MODEL 1
REMARK VINA RESULT:    -7.002      0.000      0.000
REMARK INTER + INTRA:          -8.236
REMARK INTER:                  -9.458
REMARK INTRA:                   1.222
REMARK UNBOUND:                 1.222
REMARK  6 active torsions:
REMARK  status: ('A' for Active; 'I' for Inactive)
REMARK    1  A    between atoms: C_13  and  C_16 
REMARK    2  A    between atoms: C_14  and  C_17 
REMARK    3  A    between atoms: C_15  and  C_18 
REMARK    4  A    between atoms: C_19  and  C_22 
REMARK    5  A    between atoms: C_20  and  C_23 
REMARK    6  A    between atoms: C_21  and  C_24 
ROOT
HETATM    1  O   UNL     1       2.133  22.367  11.191  1.00  0.00    -0.304 OA
HETATM    2  O   UNL     1       5.067  24.911  14.611  1.00  0.00    -0.304 OA
HETATM    3  O   UNL     1       6.566  20.614  13.330  1.00  0.00    -0.304 OA
HETATM    4  O   UNL     1       4.358  23.694  11.267  1.00  0.00    -0.270 OA
HETATM    5  O   UNL     1       5.231  21.002  10.455  1.00  0.00    -0.270 OA
HETATM    6  O   UNL     1       7.916  23.738  15.618  1.00  0.00    -0.270 OA
HETATM    7  O   UNL     1       2.368  21.503  13.316  1.00  0.00    -0.263 OA
HETATM    8  O   UNL     1       6.988  25.883  13.794  1.00  0.00    -0.263 OA
HETATM    9  O   UNL     1       8.019  19.110  14.279  1.00  0.00    -0.263 OA
HETATM   10  N   UNL     1       3.597  25.490  12.509  1.00  0.00    -0.340 N 
HETATM   11  N   UNL     1       4.057  19.670  11.950  1.00  0.00    -0.340 N 
HETATM   12  N   UNL     1       6.279  22.086  15.554  1.00  0.00    -0.340 N 
HETATM   13  C   UNL     1       4.951  26.083  12.519  1.00  0.00     0.190 C 
HETATM   14  C   UNL     1       2.771  20.102  11.366  1.00  0.00     0.190 C 
HETATM   15  C   UNL     1       7.269  20.990  15.600  1.00  0.00     0.190 C 
HETATM   16  C   UNL     1       2.005  23.712  11.701  1.00  0.00     0.227 C 
HETATM   17  C   UNL     1       5.649  24.492  15.858  1.00  0.00     0.227 C 
HETATM   18  C   UNL     1       6.555  19.871  12.095  1.00  0.00     0.227 C 
HETATM   19  C   UNL     1       3.419  24.290  11.808  1.00  0.00     0.250 C 
HETATM   20  C   UNL     1       5.233  20.233  11.422  1.00  0.00     0.250 C 
HETATM   21  C   UNL     1       6.725  23.415  15.657  1.00  0.00     0.250 C 
HETATM   22  C   UNL     1       2.393  21.379  12.098  1.00  0.00     0.283 C 
HETATM   23  C   UNL     1       5.797  25.607  13.698  1.00  0.00     0.283 C 
HETATM   24  C   UNL     1       7.325  20.119  14.346  1.00  0.00     0.283 C 
HETATM   25  C   UNL     1       2.543  26.177  13.263  1.00  0.00     0.153 C 
HETATM   26  C   UNL     1       4.018  18.713  13.060  1.00  0.00     0.153 C 
HETATM   27  C   UNL     1       4.862  21.720  15.583  1.00  0.00     0.153 C 
ENDROOT
BRANCH  16  28
HETATM   28  C   UNL     1       1.181  24.491  10.688  1.00  0.00     0.016 C 
HETATM   29  C   UNL     1       1.295  23.862   9.300  1.00  0.00     0.012 C 
HETATM   30  C   UNL     1      -0.283  24.564  11.123  1.00  0.00     0.012 C 
ENDBRANCH  16  28
BRANCH  14  31
HETATM   31  C   UNL     1       1.630  19.095  11.444  1.00  0.00     0.010 C 
HETATM   32  C   UNL     1       0.286  19.813  11.543  1.00  0.00     0.012 C 
HETATM   33  C   UNL     1       1.652  18.164  10.234  1.00  0.00     0.012 C 
ENDBRANCH  14  31
BRANCH  13  34
HETATM   34  C   UNL     1       4.955  27.611  12.466  1.00  0.00     0.010 C 
HETATM   35  C   UNL     1       4.483  28.104  11.098  1.00  0.00     0.012 C 
HETATM   36  C   UNL     1       6.345  28.159  12.781  1.00  0.00     0.012 C 
ENDBRANCH  13  34
BRANCH  18  37
HETATM   37  C   UNL     1       7.753  20.304  11.254  1.00  0.00     0.016 C 
HETATM   38  C   UNL     1       8.470  21.486  11.907  1.00  0.00     0.012 C 
HETATM   39  C   UNL     1       8.719  19.139  11.050  1.00  0.00     0.012 C 
ENDBRANCH  18  37
BRANCH  17  40
HETATM   40  C   UNL     1       6.150  25.681  16.678  1.00  0.00     0.016 C 
HETATM   41  C   UNL     1       6.480  25.249  18.105  1.00  0.00     0.012 C 
HETATM   42  C   UNL     1       5.115  26.805  16.683  1.00  0.00     0.012 C 
ENDBRANCH  17  40
BRANCH  15  43
HETATM   43  C   UNL     1       7.081  20.123  16.845  1.00  0.00     0.010 C 
HETATM   44  C   UNL     1       6.820  20.997  18.069  1.00  0.00     0.012 C 
HETATM   45  C   UNL     1       5.940  19.132  16.638  1.00  0.00     0.012 C 
ENDBRANCH  15  43
TORSDOF 6
ENDMDL
MODEL 2
REMARK VINA RESULT:    -7.002      1.928      6.638
REMARK INTER + INTRA:          -8.235
REMARK INTER:                  -9.784
REMARK INTRA:                   1.549
REMARK UNBOUND:                 1.222
REMARK  6 active torsions:
REMARK  status: ('A' for Active; 'I' for Inactive)
REMARK    1  A    between atoms: C_13  and  C_16 
REMARK    2  A    between atoms: C_14  and  C_17 
REMARK    3  A    between atoms: C_15  and  C_18 
REMARK    4  A    between atoms: C_19  and  C_22 
REMARK    5  A    between atoms: C_20  and  C_23 
REMARK    6  A    between atoms: C_21  and  C_24 
ROOT
HETATM    1  O   UNL     1       7.207  20.212  13.847  1.00  0.00    -0.304 OA
HETATM    2  O   UNL     1       5.941  24.463  16.513  1.00  0.00    -0.304 OA
HETATM    3  O   UNL     1       4.089  24.060  12.182  1.00  0.00    -0.304 OA
HETATM    4  O   UNL     1       5.203  21.168  15.185  1.00  0.00    -0.270 OA
HETATM    5  O   UNL     1       4.099  20.880  12.470  1.00  0.00    -0.270 OA
HETATM    6  O   UNL     1       3.784  26.604  15.385  1.00  0.00    -0.270 OA
HETATM    7  O   UNL     1       7.889  22.267  13.054  1.00  0.00    -0.263 OA
HETATM    8  O   UNL     1       3.845  24.492  17.465  1.00  0.00    -0.263 OA
HETATM    9  O   UNL     1       3.180  25.576  10.716  1.00  0.00    -0.263 OA
HETATM   10  N   UNL     1       6.395  21.922  17.018  1.00  0.00    -0.340 N 
HETATM   11  N   UNL     1       5.803  21.790  11.183  1.00  0.00    -0.340 N 
HETATM   12  N   UNL     1       5.262  25.914  13.726  1.00  0.00    -0.340 N 
HETATM   13  C   UNL     1       5.162  22.477  17.616  1.00  0.00     0.190 C 
HETATM   14  C   UNL     1       6.724  20.709  11.592  1.00  0.00     0.190 C 
HETATM   15  C   UNL     1       4.394  26.403  12.635  1.00  0.00     0.190 C 
HETATM   16  C   UNL     1       7.522  20.580  15.208  1.00  0.00     0.227 C 
HETATM   17  C   UNL     1       5.937  25.851  16.138  1.00  0.00     0.227 C 
HETATM   18  C   UNL     1       3.592  22.958  11.399  1.00  0.00     0.227 C 
HETATM   19  C   UNL     1       6.276  21.249  15.794  1.00  0.00     0.250 C 
HETATM   20  C   UNL     1       4.508  21.783  11.733  1.00  0.00     0.250 C 
HETATM   21  C   UNL     1       4.886  26.152  15.059  1.00  0.00     0.250 C 
HETATM   22  C   UNL     1       7.359  21.176  12.891  1.00  0.00     0.283 C 
HETATM   23  C   UNL     1       4.890  23.916  17.182  1.00  0.00     0.283 C 
HETATM   24  C   UNL     1       3.829  25.316  11.724  1.00  0.00     0.283 C 
HETATM   25  C   UNL     1       7.659  22.145  17.725  1.00  0.00     0.153 C 
HETATM   26  C   UNL     1       6.311  22.812  10.264  1.00  0.00     0.153 C 
HETATM   27  C   UNL     1       6.566  25.360  13.355  1.00  0.00     0.153 C 
ENDROOT
BRANCH  16  28
HETATM   28  C   UNL     1       7.841  19.291  15.950  1.00  0.00     0.016 C 
HETATM   29  C   UNL     1       6.575  18.696  16.566  1.00  0.00     0.012 C 
HETATM   30  C   UNL     1       8.507  18.280  15.018  1.00  0.00     0.012 C 
ENDBRANCH  16  28
BRANCH  14  31
HETATM   31  C   UNL     1       7.804  20.335  10.584  1.00  0.00     0.010 C 
HETATM   32  C   UNL     1       9.163  20.221  11.270  1.00  0.00     0.012 C 
HETATM   33  C   UNL     1       7.449  19.030   9.876  1.00  0.00     0.012 C 
ENDBRANCH  14  31
BRANCH  13  34
HETATM   34  C   UNL     1       5.120  22.383  19.140  1.00  0.00     0.010 C 
HETATM   35  C   UNL     1       5.204  20.925  19.593  1.00  0.00     0.012 C 
HETATM   36  C   UNL     1       3.856  23.040  19.689  1.00  0.00     0.012 C 
ENDBRANCH  13  34
BRANCH  18  37
HETATM   37  C   UNL     1       2.148  22.681  11.809  1.00  0.00     0.016 C 
HETATM   38  C   UNL     1       1.778  23.483  13.056  1.00  0.00     0.012 C 
HETATM   39  C   UNL     1       1.190  23.001  10.663  1.00  0.00     0.012 C 
ENDBRANCH  18  37
BRANCH  17  40
HETATM   40  C   UNL     1       5.812  26.768  17.355  1.00  0.00     0.016 C 
HETATM   41  C   UNL     1       6.222  28.195  16.998  1.00  0.00     0.012 C 
HETATM   42  C   UNL     1       6.655  26.241  18.514  1.00  0.00     0.012 C 
ENDBRANCH  17  40
BRANCH  15  43
HETATM   43  C   UNL     1       5.093  27.483  11.809  1.00  0.00     0.010 C 
HETATM   44  C   UNL     1       4.108  28.140  10.845  1.00  0.00     0.012 C 
HETATM   45  C   UNL     1       5.729  28.526  12.723  1.00  0.00     0.012 C 
ENDBRANCH  15  43
TORSDOF 6
ENDMDL
MODEL 3
REMARK VINA RESULT:    -6.518      2.881      7.700
REMARK INTER + INTRA:          -7.582
REMARK INTER:                  -9.072
REMARK INTRA:                   1.490
REMARK UNBOUND:                 1.222
REMARK  6 active torsions:
REMARK  status: ('A' for Active; 'I' for Inactive)
REMARK    1  A    between atoms: C_13  and  C_16 
REMARK    2  A    between atoms: C_14  and  C_17 
REMARK    3  A    between atoms: C_15  and  C_18 
REMARK    4  A    between atoms: C_19  and  C_22 
REMARK    5  A    between atoms: C_20  and  C_23 
REMARK    6  A    between atoms: C_21  and  C_24 
ROOT
HETATM    1  O   UNL     1       6.388  22.916  16.445  1.00  0.00    -0.304 OA
HETATM    2  O   UNL     1       4.071  18.309  16.876  1.00  0.00    -0.304 OA
HETATM    3  O   UNL     1       6.371  19.143  12.830  1.00  0.00    -0.304 OA
HETATM    4  O   UNL     1       7.008  20.440  16.897  1.00  0.00    -0.270 OA
HETATM    5  O   UNL     1       8.431  21.023  14.385  1.00  0.00    -0.270 OA
HETATM    6  O   UNL     1       4.402  16.016  14.609  1.00  0.00    -0.270 OA
HETATM    7  O   UNL     1       4.649  22.408  15.019  1.00  0.00    -0.263 OA
HETATM    8  O   UNL     1       5.435  16.514  17.343  1.00  0.00    -0.263 OA
HETATM    9  O   UNL     1       6.258  18.204  10.738  1.00  0.00    -0.263 OA
HETATM   10  N   UNL     1       5.349  19.990  18.444  1.00  0.00    -0.340 N 
HETATM   11  N   UNL     1       6.784  22.111  13.167  1.00  0.00    -0.340 N 
HETATM   12  N   UNL     1       4.040  18.112  13.668  1.00  0.00    -0.340 N 
HETATM   13  C   UNL     1       5.787  18.581  18.534  1.00  0.00     0.190 C 
HETATM   14  C   UNL     1       6.764  23.225  14.137  1.00  0.00     0.190 C 
HETATM   15  C   UNL     1       4.520  17.687  12.336  1.00  0.00     0.190 C 
HETATM   16  C   UNL     1       5.700  22.327  17.570  1.00  0.00     0.227 C 
HETATM   17  C   UNL     1       3.211  17.592  15.974  1.00  0.00     0.227 C 
HETATM   18  C   UNL     1       7.589  19.832  12.490  1.00  0.00     0.227 C 
HETATM   19  C   UNL     1       6.075  20.843  17.601  1.00  0.00     0.250 C 
HETATM   20  C   UNL     1       7.648  21.033  13.431  1.00  0.00     0.250 C 
HETATM   21  C   UNL     1       3.948  17.161  14.698  1.00  0.00     0.250 C 
HETATM   22  C   UNL     1       5.787  22.810  15.223  1.00  0.00     0.283 C 
HETATM   23  C   UNL     1       5.098  17.681  17.510  1.00  0.00     0.283 C 
HETATM   24  C   UNL     1       5.799  18.375  11.863  1.00  0.00     0.283 C 
HETATM   25  C   UNL     1       4.166  20.389  19.212  1.00  0.00     0.153 C 
HETATM   26  C   UNL     1       5.877  22.188  12.017  1.00  0.00     0.153 C 
HETATM   27  C   UNL     1       3.513  19.473  13.794  1.00  0.00     0.153 C 
ENDROOT
BRANCH  16  28
HETATM   28  C   UNL     1       6.208  23.036  18.817  1.00  0.00     0.016 C 
HETATM   29  C   UNL     1       7.403  22.292  19.412  1.00  0.00     0.012 C 
HETATM   30  C   UNL     1       6.582  24.483  18.502  1.00  0.00     0.012 C 
ENDBRANCH  16  28
BRANCH  14  31
HETATM   31  C   UNL     1       6.382  24.590  13.578  1.00  0.00     0.010 C 
HETATM   32  C   UNL     1       6.287  25.622  14.700  1.00  0.00     0.012 C 
HETATM   33  C   UNL     1       7.388  25.039  12.521  1.00  0.00     0.012 C 
ENDBRANCH  14  31
BRANCH  13  34
HETATM   34  C   UNL     1       5.642  17.978  19.930  1.00  0.00     0.010 C 
HETATM   35  C   UNL     1       6.530  18.717  20.932  1.00  0.00     0.012 C 
HETATM   36  C   UNL     1       5.978  16.489  19.915  1.00  0.00     0.012 C 
ENDBRANCH  13  34
BRANCH  18  37
HETATM   37  C   UNL     1       8.765  18.884  12.712  1.00  0.00     0.016 C 
HETATM   38  C   UNL     1       8.324  17.659  13.513  1.00  0.00     0.012 C 
HETATM   39  C   UNL     1       9.376  18.459  11.378  1.00  0.00     0.012 C 
ENDBRANCH  18  37
BRANCH  17  40
HETATM   40  C   UNL     1       2.502  16.429  16.669  1.00  0.00     0.016 C 
HETATM   41  C   UNL     1       1.391  15.870  15.782  1.00  0.00     0.012 C 
HETATM   42  C   UNL     1       1.941  16.871  18.019  1.00  0.00     0.012 C 
ENDBRANCH  17  40
BRANCH  15  43
HETATM   43  C   UNL     1       3.421  17.815  11.281  1.00  0.00     0.010 C 
HETATM   44  C   UNL     1       2.162  17.079  11.731  1.00  0.00     0.012 C 
HETATM   45  C   UNL     1       3.116  19.284  11.004  1.00  0.00     0.012 C 
ENDBRANCH  15  43
TORSDOF 6
ENDMDL
MODEL 4
REMARK VINA RESULT:    -6.478      1.909      6.447
REMARK INTER + INTRA:          -7.529
REMARK INTER:                  -8.310
REMARK INTRA:                   0.781
REMARK UNBOUND:                 1.222
REMARK  6 active torsions:
REMARK  status: ('A' for Active; 'I' for Inactive)
REMARK    1  A    between atoms: C_13  and  C_16 
REMARK    2  A    between atoms: C_14  and  C_17 
REMARK    3  A    between atoms: C_15  and  C_18 
REMARK    4  A    between atoms: C_19  and  C_22 
REMARK    5  A    between atoms: C_20  and  C_23 
REMARK    6  A    between atoms: C_21  and  C_24 
ROOT
HETATM    1  O   UNL     1       3.072  25.821  13.158  1.00  0.00    -0.304 OA
HETATM    2  O   UNL     1       2.398  20.728  12.536  1.00  0.00    -0.304 OA
HETATM    3  O   UNL     1       6.587  22.109  14.239  1.00  0.00    -0.304 OA
HETATM    4  O   UNL     1       2.597  23.713  14.589  1.00  0.00    -0.270 OA
HETATM    5  O   UNL     1       5.198  24.630  15.620  1.00  0.00    -0.270 OA
HETATM    6  O   UNL     1       4.624  18.582  13.511  1.00  0.00    -0.270 OA
HETATM    7  O   UNL     1       4.384  24.703  11.625  1.00  0.00    -0.263 OA
HETATM    8  O   UNL     1       1.966  19.510  14.441  1.00  0.00    -0.263 OA
HETATM    9  O   UNL     1       8.646  21.098  14.351  1.00  0.00    -0.263 OA
HETATM   10  N   UNL     1       0.947  22.803  13.248  1.00  0.00    -0.340 N 
HETATM   11  N   UNL     1       6.348  25.056  13.650  1.00  0.00    -0.340 N 
HETATM   12  N   UNL     1       5.594  20.397  12.427  1.00  0.00    -0.340 N 
HETATM   13  C   UNL     1       0.848  21.625  14.136  1.00  0.00     0.190 C 
HETATM   14  C   UNL     1       5.406  26.140  13.304  1.00  0.00     0.190 C 
HETATM   15  C   UNL     1       6.940  20.101  12.961  1.00  0.00     0.190 C 
HETATM   16  C   UNL     1       1.896  25.084  12.758  1.00  0.00     0.227 C 
HETATM   17  C   UNL     1       3.232  19.729  11.925  1.00  0.00     0.227 C 
HETATM   18  C   UNL     1       7.013  23.148  15.140  1.00  0.00     0.227 C 
HETATM   19  C   UNL     1       1.851  23.812  13.608  1.00  0.00     0.250 C 
HETATM   20  C   UNL     1       6.107  24.339  14.836  1.00  0.00     0.250 C 
HETATM   21  C   UNL     1       4.537  19.513  12.705  1.00  0.00     0.250 C 
HETATM   22  C   UNL     1       4.256  25.470  12.571  1.00  0.00     0.283 C 
HETATM   23  C   UNL     1       1.808  20.504  13.741  1.00  0.00     0.283 C 
HETATM   24  C   UNL     1       7.502  21.154  13.913  1.00  0.00     0.283 C 
HETATM   25  C   UNL     1       0.123  22.817  12.036  1.00  0.00     0.153 C 
HETATM   26  C   UNL     1       7.445  24.779  12.719  1.00  0.00     0.153 C 
HETATM   27  C   UNL     1       5.471  21.509  11.482  1.00  0.00     0.153 C 
ENDROOT
BRANCH  16  28
HETATM   28  C   UNL     1       0.698  25.973  13.055  1.00  0.00     0.016 C 
HETATM   29  C   UNL     1       1.076  27.076  14.044  1.00  0.00     0.012 C 
HETATM   30  C   UNL     1       0.141  26.578  11.767  1.00  0.00     0.012 C 
ENDBRANCH  16  28
BRANCH  14  31
HETATM   31  C   UNL     1       5.975  27.275  12.462  1.00  0.00     0.010 C 
HETATM   32  C   UNL     1       4.850  28.143  11.901  1.00  0.00     0.012 C 
HETATM   33  C   UNL     1       6.944  28.121  13.285  1.00  0.00     0.012 C 
ENDBRANCH  14  31
BRANCH  13  34
HETATM   34  C   UNL     1      -0.569  21.067  14.264  1.00  0.00     0.010 C 
HETATM   35  C   UNL     1      -0.932  20.848  15.732  1.00  0.00     0.012 C 
HETATM   36  C   UNL     1      -0.711  19.765  13.478  1.00  0.00     0.012 C 
ENDBRANCH  13  34
BRANCH  18  37
HETATM   37  C   UNL     1       6.835  22.655  16.573  1.00  0.00     0.016 C 
HETATM   38  C   UNL     1       5.981  21.388  16.605  1.00  0.00     0.012 C 
HETATM   39  C   UNL     1       8.190  22.404  17.231  1.00  0.00     0.012 C 
ENDBRANCH  18  37
BRANCH  17  40
HETATM   40  C   UNL     1       2.470  18.426  11.678  1.00  0.00     0.016 C 
HETATM   41  C   UNL     1       3.430  17.312  11.267  1.00  0.00     0.012 C 
HETATM   42  C   UNL     1       1.393  18.627  10.615  1.00  0.00     0.012 C 
ENDBRANCH  17  40
BRANCH  15  43
HETATM   43  C   UNL     1       7.933  19.811  11.835  1.00  0.00     0.010 C 
HETATM   44  C   UNL     1       8.896  20.983  11.659  1.00  0.00     0.012 C 
HETATM   45  C   UNL     1       8.699  18.522  12.118  1.00  0.00     0.012 C 
ENDBRANCH  15  43
TORSDOF 6
ENDMDL
MODEL 5
REMARK VINA RESULT:    -6.475      2.271      6.784
REMARK INTER + INTRA:          -7.524
REMARK INTER:                  -8.889
REMARK INTRA:                   1.365
REMARK UNBOUND:                 1.222
REMARK  6 active torsions:
REMARK  status: ('A' for Active; 'I' for Inactive)
REMARK    1  A    between atoms: C_13  and  C_16 
REMARK    2  A    between atoms: C_14  and  C_17 
REMARK    3  A    between atoms: C_15  and  C_18 
REMARK    4  A    between atoms: C_19  and  C_22 
REMARK    5  A    between atoms: C_20  and  C_23 
REMARK    6  A    between atoms: C_21  and  C_24 
ROOT
HETATM    1  O   UNL     1       5.863  25.321  15.948  1.00  0.00    -0.304 OA
HETATM    2  O   UNL     1       4.669  20.512  17.443  1.00  0.00    -0.304 OA
HETATM    3  O   UNL     1       6.137  21.030  12.978  1.00  0.00    -0.304 OA
HETATM    4  O   UNL     1       7.056  23.125  16.638  1.00  0.00    -0.270 OA
HETATM    5  O   UNL     1       7.948  23.508  13.858  1.00  0.00    -0.270 OA
HETATM    6  O   UNL     1       5.156  17.956  15.509  1.00  0.00    -0.270 OA
HETATM    7  O   UNL     1       4.087  24.250  14.939  1.00  0.00    -0.263 OA
HETATM    8  O   UNL     1       6.438  19.116  17.918  1.00  0.00    -0.263 OA
HETATM    9  O   UNL     1       5.930  19.730  11.097  1.00  0.00    -0.263 OA
HETATM   10  N   UNL     1       5.769  22.654  18.501  1.00  0.00    -0.340 N 
HETATM   11  N   UNL     1       5.950  24.034  12.803  1.00  0.00    -0.340 N 
HETATM   12  N   UNL     1       4.224  19.746  14.352  1.00  0.00    -0.340 N 
HETATM   13  C   UNL     1       6.506  21.391  18.715  1.00  0.00     0.190 C 
HETATM   14  C   UNL     1       5.831  25.279  13.590  1.00  0.00     0.190 C 
HETATM   15  C   UNL     1       4.590  19.189  13.033  1.00  0.00     0.190 C 
HETATM   16  C   UNL     1       5.485  24.822  17.250  1.00  0.00     0.227 C 
HETATM   17  C   UNL     1       3.863  19.498  16.819  1.00  0.00     0.227 C 
HETATM   18  C   UNL     1       7.119  21.863  12.333  1.00  0.00     0.227 C 
HETATM   19  C   UNL     1       6.168  23.464  17.429  1.00  0.00     0.250 C 
HETATM   20  C   UNL     1       7.053  23.202  13.064  1.00  0.00     0.250 C 
HETATM   21  C   UNL     1       4.485  18.992  15.510  1.00  0.00     0.250 C 
HETATM   22  C   UNL     1       5.130  24.888  14.879  1.00  0.00     0.283 C 
HETATM   23  C   UNL     1       5.887  20.210  17.971  1.00  0.00     0.283 C 
HETATM   24  C   UNL     1       5.610  20.009  12.248  1.00  0.00     0.283 C 
HETATM   25  C   UNL     1       4.650  22.954  19.399  1.00  0.00     0.153 C 
HETATM   26  C   UNL     1       4.893  23.735  11.832  1.00  0.00     0.153 C 
HETATM   27  C   UNL     1       3.442  20.984  14.371  1.00  0.00     0.153 C 
ENDROOT
BRANCH  16  28
HETATM   28  C   UNL     1       6.001  25.823  18.272  1.00  0.00     0.016 C 
HETATM   29  C   UNL     1       6.715  26.983  17.579  1.00  0.00     0.012 C 
HETATM   30  C   UNL     1       4.859  26.344  19.144  1.00  0.00     0.012 C 
ENDBRANCH  16  28
BRANCH  14  31
HETATM   31  C   UNL     1       5.091  26.427  12.915  1.00  0.00     0.010 C 
HETATM   32  C   UNL     1       3.795  26.742  13.660  1.00  0.00     0.012 C 
HETATM   33  C   UNL     1       5.978  27.667  12.837  1.00  0.00     0.012 C 
ENDBRANCH  14  31
BRANCH  13  34
HETATM   34  C   UNL     1       6.694  21.029  20.189  1.00  0.00     0.010 C 
HETATM   35  C   UNL     1       8.080  21.450  20.675  1.00  0.00     0.012 C 
HETATM   36  C   UNL     1       6.481  19.533  20.410  1.00  0.00     0.012 C 
ENDBRANCH  13  34
BRANCH  18  37
HETATM   37  C   UNL     1       8.489  21.207  12.480  1.00  0.00     0.016 C 
HETATM   38  C   UNL     1       8.447  20.104  13.537  1.00  0.00     0.012 C 
HETATM   39  C   UNL     1       8.967  20.647  11.142  1.00  0.00     0.012 C 
ENDBRANCH  18  37
BRANCH  17  40
HETATM   40  C   UNL     1       3.526  18.365  17.789  1.00  0.00     0.016 C 
HETATM   41  C   UNL     1       2.504  17.414  17.169  1.00  0.00     0.012 C 
HETATM   42  C   UNL     1       3.005  18.925  19.111  1.00  0.00     0.012 C 
ENDBRANCH  17  40
BRANCH  15  43
HETATM   43  C   UNL     1       3.349  18.919  12.181  1.00  0.00     0.010 C 
HETATM   44  C   UNL     1       3.205  19.984  11.096  1.00  0.00     0.012 C 
HETATM   45  C   UNL     1       3.419  17.526  11.562  1.00  0.00     0.012 C 
ENDBRANCH  15  43
TORSDOF 6
ENDMDL
MODEL 6
REMARK VINA RESULT:    -6.375      2.596      7.052
REMARK INTER + INTRA:          -7.388
REMARK INTER:                  -8.290
REMARK INTRA:                   0.902
REMARK UNBOUND:                 1.222
REMARK  6 active torsions:
REMARK  status: ('A' for Active; 'I' for Inactive)
REMARK    1  A    between atoms: C_13  and  C_16 
REMARK    2  A    between atoms: C_14  and  C_17 
REMARK    3  A    between atoms: C_15  and  C_18 
REMARK    4  A    between atoms: C_19  and  C_22 
REMARK    5  A    between atoms: C_20  and  C_23 
REMARK    6  A    between atoms: C_21  and  C_24 
ROOT
HETATM    1  O   UNL     1       5.779  25.809  15.245  1.00  0.00    -0.304 OA
HETATM    2  O   UNL     1       6.629  20.807  14.223  1.00  0.00    -0.304 OA
HETATM    3  O   UNL     1       4.354  21.780  18.252  1.00  0.00    -0.304 OA
HETATM    4  O   UNL     1       4.483  23.728  14.403  1.00  0.00    -0.270 OA
HETATM    5  O   UNL     1       3.095  24.391  16.914  1.00  0.00    -0.270 OA
HETATM    6  O   UNL     1       5.433  18.455  16.105  1.00  0.00    -0.270 OA
HETATM    7  O   UNL     1       7.158  24.604  16.648  1.00  0.00    -0.263 OA
HETATM    8  O   UNL     1       4.833  19.601  13.437  1.00  0.00    -0.263 OA
HETATM    9  O   UNL     1       4.002  20.588  20.183  1.00  0.00    -0.263 OA
HETATM   10  N   UNL     1       6.054  22.991  12.874  1.00  0.00    -0.340 N 
HETATM   11  N   UNL     1       4.884  24.746  18.348  1.00  0.00    -0.340 N 
HETATM   12  N   UNL     1       6.328  20.195  17.365  1.00  0.00    -0.340 N 
HETATM   13  C   UNL     1       5.221  21.812  12.557  1.00  0.00     0.190 C 
HETATM   14  C   UNL     1       5.320  25.915  17.557  1.00  0.00     0.190 C 
HETATM   15  C   UNL     1       5.631  19.770  18.596  1.00  0.00     0.190 C 
HETATM   16  C   UNL     1       6.351  25.187  14.074  1.00  0.00     0.227 C 
HETATM   17  C   UNL     1       7.154  19.748  15.041  1.00  0.00     0.227 C 
HETATM   18  C   UNL     1       3.375  22.762  18.642  1.00  0.00     0.227 C 
HETATM   19  C   UNL     1       5.550  23.909  13.806  1.00  0.00     0.250 C 
HETATM   20  C   UNL     1       3.761  24.034  17.891  1.00  0.00     0.250 C 
HETATM   21  C   UNL     1       6.216  19.404  16.208  1.00  0.00     0.250 C 
HETATM   22  C   UNL     1       6.216  25.363  16.461  1.00  0.00     0.283 C 
HETATM   23  C   UNL     1       5.518  20.617  13.461  1.00  0.00     0.283 C 
HETATM   24  C   UNL     1       4.584  20.753  19.116  1.00  0.00     0.283 C 
HETATM   25  C   UNL     1       7.363  23.100  12.224  1.00  0.00     0.153 C 
HETATM   26  C   UNL     1       5.672  24.387  19.532  1.00  0.00     0.153 C 
HETATM   27  C   UNL     1       7.249  21.329  17.465  1.00  0.00     0.153 C 
ENDROOT
BRANCH  16  28
HETATM   28  C   UNL     1       6.188  26.174  12.928  1.00  0.00     0.016 C 
HETATM   29  C   UNL     1       4.709  26.448  12.658  1.00  0.00     0.012 C 
HETATM   30  C   UNL     1       6.926  27.478  13.228  1.00  0.00     0.012 C 
ENDBRANCH  16  28
BRANCH  14  31
HETATM   31  C   UNL     1       6.047  27.010  18.329  1.00  0.00     0.010 C 
HETATM   32  C   UNL     1       6.897  27.858  17.385  1.00  0.00     0.012 C 
HETATM   33  C   UNL     1       5.052  27.885  19.086  1.00  0.00     0.012 C 
ENDBRANCH  14  31
BRANCH  13  34
HETATM   34  C   UNL     1       5.296  21.381  11.093  1.00  0.00     0.010 C 
HETATM   35  C   UNL     1       3.916  20.970  10.581  1.00  0.00     0.012 C 
HETATM   36  C   UNL     1       6.294  20.239  10.915  1.00  0.00     0.012 C 
ENDBRANCH  13  34
BRANCH  18  37
HETATM   37  C   UNL     1       1.992  22.262  18.233  1.00  0.00     0.016 C 
HETATM   38  C   UNL     1       2.108  21.034  17.331  1.00  0.00     0.012 C 
HETATM   39  C   UNL     1       1.147  21.944  19.465  1.00  0.00     0.012 C 
ENDBRANCH  18  37
BRANCH  17  40
HETATM   40  C   UNL     1       7.536  18.523  14.210  1.00  0.00     0.016 C 
HETATM   41  C   UNL     1       8.150  17.442  15.096  1.00  0.00     0.012 C 
HETATM   42  C   UNL     1       8.500  18.912  13.091  1.00  0.00     0.012 C 
ENDBRANCH  17  40
BRANCH  15  43
HETATM   43  C   UNL     1       6.625  19.412  19.702  1.00  0.00     0.010 C 
HETATM   44  C   UNL     1       6.803  20.587  20.660  1.00  0.00     0.012 C 
HETATM   45  C   UNL     1       6.161  18.169  20.455  1.00  0.00     0.012 C 
ENDBRANCH  15  43
TORSDOF 6
ENDMDL
MODEL 7
REMARK VINA RESULT:    -6.316      2.969      7.246
REMARK INTER + INTRA:          -7.309
REMARK INTER:                  -8.309
REMARK INTRA:                   0.999
REMARK UNBOUND:                 1.222
REMARK  6 active torsions:
REMARK  status: ('A' for Active; 'I' for Inactive)
REMARK    1  A    between atoms: C_13  and  C_16 
REMARK    2  A    between atoms: C_14  and  C_17 
REMARK    3  A    between atoms: C_15  and  C_18 
REMARK    4  A    between atoms: C_19  and  C_22 
REMARK    5  A    between atoms: C_20  and  C_23 
REMARK    6  A    between atoms: C_21  and  C_24 
ROOT
HETATM    1  O   UNL     1       5.977  20.497  18.501  1.00  0.00    -0.304 OA
HETATM    2  O   UNL     1       6.999  20.761  13.434  1.00  0.00    -0.304 OA
HETATM    3  O   UNL     1       3.146  18.323  14.685  1.00  0.00    -0.304 OA
HETATM    4  O   UNL     1       5.140  21.748  16.390  1.00  0.00    -0.270 OA
HETATM    5  O   UNL     1       2.767  20.218  17.226  1.00  0.00    -0.270 OA
HETATM    6  O   UNL     1       4.965  19.551  11.220  1.00  0.00    -0.270 OA
HETATM    7  O   UNL     1       6.488  18.556  17.366  1.00  0.00    -0.263 OA
HETATM    8  O   UNL     1       5.729  22.240  12.207  1.00  0.00    -0.263 OA
HETATM    9  O   UNL     1       1.883  16.728  13.619  1.00  0.00    -0.263 OA
HETATM   10  N   UNL     1       7.211  22.325  15.539  1.00  0.00    -0.340 N 
HETATM   11  N   UNL     1       3.692  18.131  17.643  1.00  0.00    -0.340 N 
HETATM   12  N   UNL     1       5.239  18.103  13.020  1.00  0.00    -0.340 N 
HETATM   13  C   UNL     1       6.576  22.939  14.354  1.00  0.00     0.190 C 
HETATM   14  C   UNL     1       4.495  18.679  18.756  1.00  0.00     0.190 C 
HETATM   15  C   UNL     1       4.029  17.324  12.682  1.00  0.00     0.190 C 
HETATM   16  C   UNL     1       7.003  21.233  17.800  1.00  0.00     0.227 C 
HETATM   17  C   UNL     1       7.036  19.743  12.420  1.00  0.00     0.227 C 
HETATM   18  C   UNL     1       2.140  18.484  15.703  1.00  0.00     0.227 C 
HETATM   19  C   UNL     1       6.369  21.783  16.520  1.00  0.00     0.250 C 
HETATM   20  C   UNL     1       2.884  19.027  16.920  1.00  0.00     0.250 C 
HETATM   21  C   UNL     1       5.648  19.138  12.162  1.00  0.00     0.250 C 
HETATM   22  C   UNL     1       5.775  19.199  18.124  1.00  0.00     0.283 C 
HETATM   23  C   UNL     1       6.366  21.946  13.213  1.00  0.00     0.283 C 
HETATM   24  C   UNL     1       2.903  17.404  13.710  1.00  0.00     0.283 C 
HETATM   25  C   UNL     1       8.676  22.289  15.589  1.00  0.00     0.153 C 
HETATM   26  C   UNL     1       3.819  16.700  17.347  1.00  0.00     0.153 C 
HETATM   27  C   UNL     1       6.051  17.637  14.145  1.00  0.00     0.153 C 
ENDROOT
BRANCH  16  28
HETATM   28  C   UNL     1       7.436  22.367  18.717  1.00  0.00     0.016 C 
HETATM   29  C   UNL     1       6.387  23.478  18.732  1.00  0.00     0.012 C 
HETATM   30  C   UNL     1       7.688  21.851  20.133  1.00  0.00     0.012 C 
ENDBRANCH  16  28
BRANCH  14  31
HETATM   31  C   UNL     1       4.821  17.710  19.885  1.00  0.00     0.010 C 
HETATM   32  C   UNL     1       6.066  18.167  20.642  1.00  0.00     0.012 C 
HETATM   33  C   UNL     1       3.635  17.574  20.837  1.00  0.00     0.012 C 
ENDBRANCH  14  31
BRANCH  13  34
HETATM   34  C   UNL     1       7.308  24.175  13.833  1.00  0.00     0.010 C 
HETATM   35  C   UNL     1       6.405  25.406  13.901  1.00  0.00     0.012 C 
HETATM   36  C   UNL     1       7.799  23.951  12.404  1.00  0.00     0.012 C 
ENDBRANCH  13  34
BRANCH  18  37
HETATM   37  C   UNL     1       1.089  19.470  15.199  1.00  0.00     0.016 C 
HETATM   38  C   UNL     1       1.568  20.163  13.923  1.00  0.00     0.012 C 
HETATM   39  C   UNL     1      -0.243  18.763  14.956  1.00  0.00     0.012 C 
ENDBRANCH  18  37
BRANCH  17  40
HETATM   40  C   UNL     1       7.710  20.239  11.141  1.00  0.00     0.016 C 
HETATM   41  C   UNL     1       7.725  19.141  10.080  1.00  0.00     0.012 C 
HETATM   42  C   UNL     1       9.130  20.721  11.435  1.00  0.00     0.012 C 
ENDBRANCH  17  40
BRANCH  15  43
HETATM   43  C   UNL     1       4.375  15.865  12.379  1.00  0.00     0.010 C 
HETATM   44  C   UNL     1       3.175  15.150  11.764  1.00  0.00     0.012 C 
HETATM   45  C   UNL     1       5.584  15.785  11.452  1.00  0.00     0.012 C 
ENDBRANCH  15  43
TORSDOF 6
ENDMDL
MODEL 8
REMARK VINA RESULT:    -6.290      2.080      8.136
REMARK INTER + INTRA:          -7.274
REMARK INTER:                  -8.333
REMARK INTRA:                   1.059
REMARK UNBOUND:                 1.222
REMARK  6 active torsions:
REMARK  status: ('A' for Active; 'I' for Inactive)
REMARK    1  A    between atoms: C_13  and  C_16 
REMARK    2  A    between atoms: C_14  and  C_17 
REMARK    3  A    between atoms: C_15  and  C_18 
REMARK    4  A    between atoms: C_19  and  C_22 
REMARK    5  A    between atoms: C_20  and  C_23 
REMARK    6  A    between atoms: C_21  and  C_24 
ROOT
HETATM    1  O   UNL     1       5.557  23.389  18.316  1.00  0.00    -0.304 OA
HETATM    2  O   UNL     1       4.775  21.627  13.514  1.00  0.00    -0.304 OA
HETATM    3  O   UNL     1       4.732  26.322  14.071  1.00  0.00    -0.304 OA
HETATM    4  O   UNL     1       6.845  23.141  16.081  1.00  0.00    -0.270 OA
HETATM    5  O   UNL     1       6.800  26.057  16.489  1.00  0.00    -0.270 OA
HETATM    6  O   UNL     1       4.536  23.634  10.979  1.00  0.00    -0.270 OA
HETATM    7  O   UNL     1       3.520  23.777  17.306  1.00  0.00    -0.263 OA
HETATM    8  O   UNL     1       6.561  21.761  12.068  1.00  0.00    -0.263 OA
HETATM    9  O   UNL     1       3.890  28.045  12.808  1.00  0.00    -0.263 OA
HETATM   10  N   UNL     1       6.218  20.965  15.610  1.00  0.00    -0.340 N 
HETATM   11  N   UNL     1       4.584  26.403  17.081  1.00  0.00    -0.340 N 
HETATM   12  N   UNL     1       3.331  24.412  12.811  1.00  0.00    -0.340 N 
HETATM   13  C   UNL     1       6.949  21.011  14.326  1.00  0.00     0.190 C 
HETATM   14  C   UNL     1       4.761  25.610  18.315  1.00  0.00     0.190 C 
HETATM   15  C   UNL     1       3.234  25.783  12.267  1.00  0.00     0.190 C 
HETATM   16  C   UNL     1       5.606  22.039  17.806  1.00  0.00     0.227 C 
HETATM   17  C   UNL     1       3.781  21.963  12.530  1.00  0.00     0.227 C 
HETATM   18  C   UNL     1       5.475  27.244  14.891  1.00  0.00     0.227 C 
HETATM   19  C   UNL     1       6.272  22.102  16.428  1.00  0.00     0.250 C 
HETATM   20  C   UNL     1       5.688  26.520  16.218  1.00  0.00     0.250 C 
HETATM   21  C   UNL     1       3.932  23.408  12.032  1.00  0.00     0.250 C 
HETATM   22  C   UNL     1       4.505  24.166  17.920  1.00  0.00     0.283 C 
HETATM   23  C   UNL     1       6.088  21.524  13.174  1.00  0.00     0.283 C 
HETATM   24  C   UNL     1       3.968  26.850  13.075  1.00  0.00     0.283 C 
HETATM   25  C   UNL     1       5.458  19.751  15.923  1.00  0.00     0.153 C 
HETATM   26  C   UNL     1       3.261  26.981  16.824  1.00  0.00     0.153 C 
HETATM   27  C   UNL     1       2.633  24.131  14.067  1.00  0.00     0.153 C 
ENDROOT
BRANCH  16  28
HETATM   28  C   UNL     1       6.454  21.231  18.777  1.00  0.00     0.016 C 
HETATM   29  C   UNL     1       7.293  22.156  19.658  1.00  0.00     0.012 C 
HETATM   30  C   UNL     1       5.574  20.326  19.638  1.00  0.00     0.012 C 
ENDBRANCH  16  28
BRANCH  14  31
HETATM   31  C   UNL     1       3.875  25.999  19.492  1.00  0.00     0.010 C 
HETATM   32  C   UNL     1       3.650  24.802  20.414  1.00  0.00     0.012 C 
HETATM   33  C   UNL     1       4.490  27.163  20.266  1.00  0.00     0.012 C 
ENDBRANCH  14  31
BRANCH  13  34
HETATM   34  C   UNL     1       7.593  19.681  13.936  1.00  0.00     0.010 C 
HETATM   35  C   UNL     1       8.347  19.079  15.120  1.00  0.00     0.012 C 
HETATM   36  C   UNL     1       8.529  19.863  12.743  1.00  0.00     0.012 C 
ENDBRANCH  13  34
BRANCH  18  37
HETATM   37  C   UNL     1       6.800  27.554  14.199  1.00  0.00     0.016 C 
HETATM   38  C   UNL     1       7.052  26.573  13.054  1.00  0.00     0.012 C 
HETATM   39  C   UNL     1       6.818  28.992  13.686  1.00  0.00     0.012 C 
ENDBRANCH  18  37
BRANCH  17  40
HETATM   40  C   UNL     1       3.744  20.946  11.390  1.00  0.00     0.016 C 
HETATM   41  C   UNL     1       2.471  21.112  10.563  1.00  0.00     0.012 C 
HETATM   42  C   UNL     1       3.849  19.523  11.935  1.00  0.00     0.012 C 
ENDBRANCH  17  40
BRANCH  15  43
HETATM   43  C   UNL     1       1.777  26.190  12.042  1.00  0.00     0.010 C 
HETATM   44  C   UNL     1       1.315  27.147  13.137  1.00  0.00     0.012 C 
HETATM   45  C   UNL     1       1.607  26.824  10.665  1.00  0.00     0.012 C 
ENDBRANCH  15  43
TORSDOF 6
ENDMDL
MODEL 9
REMARK VINA RESULT:    -6.175      2.732      7.296
REMARK INTER + INTRA:          -7.119
REMARK INTER:                  -7.926
REMARK INTRA:                   0.807
REMARK UNBOUND:                 1.222
REMARK  6 active torsions:
REMARK  status: ('A' for Active; 'I' for Inactive)
REMARK    1  A    between atoms: C_13  and  C_16 
REMARK    2  A    between atoms: C_14  and  C_17 
REMARK    3  A    between atoms: C_15  and  C_18 
REMARK    4  A    between atoms: C_19  and  C_22 
REMARK    5  A    between atoms: C_20  and  C_23 
REMARK    6  A    between atoms: C_21  and  C_24 
ROOT
HETATM    1  O   UNL     1       1.799  21.712  13.202  1.00  0.00    -0.304 OA
HETATM    2  O   UNL     1       3.857  16.978  12.841  1.00  0.00    -0.304 OA
HETATM    3  O   UNL     1       6.893  20.602  12.868  1.00  0.00    -0.304 OA
HETATM    4  O   UNL     1       3.032  19.988  14.693  1.00  0.00    -0.270 OA
HETATM    5  O   UNL     1       4.877  22.283  14.685  1.00  0.00    -0.270 OA
HETATM    6  O   UNL     1       7.063  16.504  12.901  1.00  0.00    -0.270 OA
HETATM    7  O   UNL     1       2.942  21.139  11.283  1.00  0.00    -0.263 OA
HETATM    8  O   UNL     1       4.789  16.115  14.762  1.00  0.00    -0.263 OA
HETATM    9  O   UNL     1       9.078  20.824  12.196  1.00  0.00    -0.263 OA
HETATM   10  N   UNL     1       1.824  18.120  14.058  1.00  0.00    -0.340 N 
HETATM   11  N   UNL     1       4.914  22.834  12.432  1.00  0.00    -0.340 N 
HETATM   12  N   UNL     1       6.484  18.304  11.545  1.00  0.00    -0.340 N 
HETATM   13  C   UNL     1       2.671  17.259  14.910  1.00  0.00     0.190 C 
HETATM   14  C   UNL     1       3.482  23.194  12.469  1.00  0.00     0.190 C 
HETATM   15  C   UNL     1       7.859  18.845  11.537  1.00  0.00     0.190 C 
HETATM   16  C   UNL     1       1.161  20.418  13.265  1.00  0.00     0.227 C 
HETATM   17  C   UNL     1       4.856  16.443  11.957  1.00  0.00     0.227 C 
HETATM   18  C   UNL     1       6.942  21.869  13.552  1.00  0.00     0.227 C 
HETATM   19  C   UNL     1       2.089  19.497  14.062  1.00  0.00     0.250 C 
HETATM   20  C   UNL     1       5.493  22.346  13.617  1.00  0.00     0.250 C 
HETATM   21  C   UNL     1       6.233  17.081  12.192  1.00  0.00     0.250 C 
HETATM   22  C   UNL     1       2.723  21.903  12.214  1.00  0.00     0.283 C 
HETATM   23  C   UNL     1       3.903  16.730  14.178  1.00  0.00     0.283 C 
HETATM   24  C   UNL     1       8.021  20.202  12.217  1.00  0.00     0.283 C 
HETATM   25  C   UNL     1       0.794  17.474  13.241  1.00  0.00     0.153 C 
HETATM   26  C   UNL     1       5.622  22.975  11.156  1.00  0.00     0.153 C 
HETATM   27  C   UNL     1       5.483  18.986  10.722  1.00  0.00     0.153 C 
ENDROOT
BRANCH  16  28
HETATM   28  C   UNL     1      -0.160  20.612  13.994  1.00  0.00     0.016 C 
HETATM   29  C   UNL     1      -0.055  21.754  15.004  1.00  0.00     0.012 C 
HETATM   30  C   UNL     1      -1.291  20.879  13.002  1.00  0.00     0.012 C 
ENDBRANCH  16  28
BRANCH  14  31
HETATM   31  C   UNL     1       3.038  24.269  11.484  1.00  0.00     0.010 C 
HETATM   32  C   UNL     1       1.523  24.227  11.290  1.00  0.00     0.012 C 
HETATM   33  C   UNL     1       3.479  25.650  11.961  1.00  0.00     0.012 C 
ENDBRANCH  14  31
BRANCH  13  34
HETATM   34  C   UNL     1       1.916  16.096  15.554  1.00  0.00     0.010 C 
HETATM   35  C   UNL     1       2.086  16.118  17.073  1.00  0.00     0.012 C 
HETATM   36  C   UNL     1       2.388  14.761  14.982  1.00  0.00     0.012 C 
ENDBRANCH  13  34
BRANCH  18  37
HETATM   37  C   UNL     1       7.526  21.649  14.945  1.00  0.00     0.016 C 
HETATM   38  C   UNL     1       7.697  20.156  15.228  1.00  0.00     0.012 C 
HETATM   39  C   UNL     1       8.860  22.378  15.093  1.00  0.00     0.012 C 
ENDBRANCH  18  37
BRANCH  17  40
HETATM   40  C   UNL     1       4.898  14.916  12.003  1.00  0.00     0.016 C 
HETATM   41  C   UNL     1       5.900  14.374  10.986  1.00  0.00     0.012 C 
HETATM   42  C   UNL     1       3.509  14.333  11.751  1.00  0.00     0.012 C 
ENDBRANCH  17  40
BRANCH  15  43
HETATM   43  C   UNL     1       8.432  18.885  10.120  1.00  0.00     0.010 C 
HETATM   44  C   UNL     1       8.135  20.230   9.461  1.00  0.00     0.012 C 
HETATM   45  C   UNL     1       9.933  18.616  10.143  1.00  0.00     0.012 C 
ENDBRANCH  15  43
TORSDOF 6
ENDMDL
MODEL 10
REMARK VINA RESULT:    -5.977      2.272      8.125
REMARK INTER + INTRA:          -6.852
REMARK INTER:                  -7.841
REMARK INTRA:                   0.990
REMARK UNBOUND:                 1.222
REMARK  6 active torsions:
REMARK  status: ('A' for Active; 'I' for Inactive)
REMARK    1  A    between atoms: C_13  and  C_16 
REMARK    2  A    between atoms: C_14  and  C_17 
REMARK    3  A    between atoms: C_15  and  C_18 
REMARK    4  A    between atoms: C_19  and  C_22 
REMARK    5  A    between atoms: C_20  and  C_23 
REMARK    6  A    between atoms: C_21  and  C_24 
ROOT
HETATM    1  O   UNL     1       5.416  21.942  18.630  1.00  0.00    -0.304 OA
HETATM    2  O   UNL     1       4.771  19.394  14.172  1.00  0.00    -0.304 OA
HETATM    3  O   UNL     1       4.819  24.115  13.916  1.00  0.00    -0.304 OA
HETATM    4  O   UNL     1       6.780  21.292  16.525  1.00  0.00    -0.270 OA
HETATM    5  O   UNL     1       6.789  24.235  16.426  1.00  0.00    -0.270 OA
HETATM    6  O   UNL     1       4.675  20.940  11.325  1.00  0.00    -0.270 OA
HETATM    7  O   UNL     1       3.428  22.185  17.487  1.00  0.00    -0.263 OA
HETATM    8  O   UNL     1       6.613  19.248  12.798  1.00  0.00    -0.263 OA
HETATM    9  O   UNL     1       4.065  25.610  12.344  1.00  0.00    -0.263 OA
HETATM   10  N   UNL     1       6.120  19.078  16.408  1.00  0.00    -0.340 N 
HETATM   11  N   UNL     1       4.561  24.715  16.859  1.00  0.00    -0.340 N 
HETATM   12  N   UNL     1       3.421  22.041  12.945  1.00  0.00    -0.340 N 
HETATM   13  C   UNL     1       6.898  18.891  15.166  1.00  0.00     0.190 C 
HETATM   14  C   UNL     1       4.674  24.144  18.217  1.00  0.00     0.190 C 
HETATM   15  C   UNL     1       3.377  23.300  12.172  1.00  0.00     0.190 C 
HETATM   16  C   UNL     1       5.452  20.524  18.361  1.00  0.00     0.227 C 
HETATM   17  C   UNL     1       3.823  19.573  13.106  1.00  0.00     0.227 C 
HETATM   18  C   UNL     1       5.553  25.152  14.595  1.00  0.00     0.227 C 
HETATM   19  C   UNL     1       6.170  20.338  17.021  1.00  0.00     0.250 C 
HETATM   20  C   UNL     1       5.699  24.663  16.035  1.00  0.00     0.250 C 
HETATM   21  C   UNL     1       4.026  20.908  12.375  1.00  0.00     0.250 C 
HETATM   22  C   UNL     1       4.398  22.658  18.065  1.00  0.00     0.283 C 
HETATM   23  C   UNL     1       6.093  19.213  13.909  1.00  0.00     0.283 C 
HETATM   24  C   UNL     1       4.105  24.478  12.814  1.00  0.00     0.283 C 
HETATM   25  C   UNL     1       5.320  17.949  16.893  1.00  0.00     0.153 C 
HETATM   26  C   UNL     1       3.263  25.263  16.453  1.00  0.00     0.153 C 
HETATM   27  C   UNL     1       2.670  21.993  14.202  1.00  0.00     0.153 C 
ENDROOT
BRANCH  16  28
HETATM   28  C   UNL     1       6.244  19.881  19.489  1.00  0.00     0.016 C 
HETATM   29  C   UNL     1       6.966  20.945  20.316  1.00  0.00     0.012 C 
HETATM   30  C   UNL     1       5.330  19.041  20.381  1.00  0.00     0.012 C 
ENDBRANCH  16  28
BRANCH  14  31
HETATM   31  C   UNL     1       3.754  24.744  19.273  1.00  0.00     0.010 C 
HETATM   32  C   UNL     1       3.466  23.727  20.375  1.00  0.00     0.012 C 
HETATM   33  C   UNL     1       4.368  26.012  19.861  1.00  0.00     0.012 C 
ENDBRANCH  14  31
BRANCH  13  34
HETATM   34  C   UNL     1       7.525  17.503  15.035  1.00  0.00     0.010 C 
HETATM   35  C   UNL     1       8.894  17.590  14.362  1.00  0.00     0.012 C 
HETATM   36  C   UNL     1       6.605  16.565  14.256  1.00  0.00     0.012 C 
ENDBRANCH  13  34
BRANCH  18  37
HETATM   37  C   UNL     1       6.909  25.316  13.915  1.00  0.00     0.016 C 
HETATM   38  C   UNL     1       7.155  24.180  12.921  1.00  0.00     0.012 C 
HETATM   39  C   UNL     1       7.003  26.670  13.214  1.00  0.00     0.012 C 
ENDBRANCH  18  37
BRANCH  17  40
HETATM   40  C   UNL     1       3.804  18.376  12.156  1.00  0.00     0.016 C 
HETATM   41  C   UNL     1       2.826  18.617  11.008  1.00  0.00     0.012 C 
HETATM   42  C   UNL     1       3.443  17.098  12.910  1.00  0.00     0.012 C 
ENDBRANCH  17  40
BRANCH  15  43
HETATM   43  C   UNL     1       1.939  23.686  11.821  1.00  0.00     0.010 C 
HETATM   44  C   UNL     1       1.246  22.547  11.079  1.00  0.00     0.012 C 
HETATM   45  C   UNL     1       1.164  24.058  13.081  1.00  0.00     0.012 C 
ENDBRANCH  15  43
TORSDOF 6
ENDMDL
MODEL 11
REMARK VINA RESULT:    -5.958      2.575      6.579
REMARK INTER + INTRA:          -6.825
REMARK INTER:                  -7.898
REMARK INTRA:                   1.073
REMARK UNBOUND:                 1.222
REMARK  6 active torsions:
REMARK  status: ('A' for Active; 'I' for Inactive)
REMARK    1  A    between atoms: C_13  and  C_16 
REMARK    2  A    between atoms: C_14  and  C_17 
REMARK    3  A    between atoms: C_15  and  C_18 
REMARK    4  A    between atoms: C_19  and  C_22 
REMARK    5  A    between atoms: C_20  and  C_23 
REMARK    6  A    between atoms: C_21  and  C_24 
ROOT
HETATM    1  O   UNL     1       5.787  19.054  16.659  1.00  0.00    -0.304 OA
HETATM    2  O   UNL     1       4.894  24.022  17.801  1.00  0.00    -0.304 OA
HETATM    3  O   UNL     1       4.498  22.799  13.251  1.00  0.00    -0.304 OA
HETATM    4  O   UNL     1       3.784  20.676  16.940  1.00  0.00    -0.270 OA
HETATM    5  O   UNL     1       3.579  19.866  14.116  1.00  0.00    -0.270 OA
HETATM    6  O   UNL     1       3.857  26.125  15.564  1.00  0.00    -0.270 OA
HETATM    7  O   UNL     1       7.202  20.664  15.808  1.00  0.00    -0.263 OA
HETATM    8  O   UNL     1       2.688  24.678  17.872  1.00  0.00    -0.263 OA
HETATM    9  O   UNL     1       4.541  24.000  11.294  1.00  0.00    -0.263 OA
HETATM   10  N   UNL     1       4.476  21.673  18.909  1.00  0.00    -0.340 N 
HETATM   11  N   UNL     1       5.782  20.077  13.417  1.00  0.00    -0.340 N 
HETATM   12  N   UNL     1       5.555  24.762  14.744  1.00  0.00    -0.340 N 
HETATM   13  C   UNL     1       3.308  22.578  18.883  1.00  0.00     0.190 C 
HETATM   14  C   UNL     1       6.205  19.001  14.338  1.00  0.00     0.190 C 
HETATM   15  C   UNL     1       5.244  25.085  13.335  1.00  0.00     0.190 C 
HETATM   16  C   UNL     1       5.732  19.714  17.942  1.00  0.00     0.227 C 
HETATM   17  C   UNL     1       5.375  25.235  17.198  1.00  0.00     0.227 C 
HETATM   18  C   UNL     1       4.008  21.633  12.562  1.00  0.00     0.227 C 
HETATM   19  C   UNL     1       4.585  20.726  17.880  1.00  0.00     0.250 C 
HETATM   20  C   UNL     1       4.426  20.449  13.431  1.00  0.00     0.250 C 
HETATM   21  C   UNL     1       4.845  25.414  15.768  1.00  0.00     0.250 C 
HETATM   22  C   UNL     1       6.487  19.681  15.667  1.00  0.00     0.283 C 
HETATM   23  C   UNL     1       3.578  23.871  18.116  1.00  0.00     0.283 C 
HETATM   24  C   UNL     1       4.738  23.910  12.501  1.00  0.00     0.283 C 
HETATM   25  C   UNL     1       5.457  21.850  19.983  1.00  0.00     0.153 C 
HETATM   26  C   UNL     1       6.809  20.706  12.581  1.00  0.00     0.153 C 
HETATM   27  C   UNL     1       6.714  23.907  15.002  1.00  0.00     0.153 C 
ENDROOT
BRANCH  16  28
HETATM   28  C   UNL     1       5.444  18.638  18.979  1.00  0.00     0.016 C 
HETATM   29  C   UNL     1       5.452  17.252  18.335  1.00  0.00     0.012 C 
HETATM   30  C   UNL     1       6.458  18.702  20.120  1.00  0.00     0.012 C 
ENDBRANCH  16  28
BRANCH  14  31
HETATM   31  C   UNL     1       7.413  18.183  13.899  1.00  0.00     0.010 C 
HETATM   32  C   UNL     1       7.993  17.406  15.078  1.00  0.00     0.012 C 
HETATM   33  C   UNL     1       7.035  17.233  12.765  1.00  0.00     0.012 C 
ENDBRANCH  14  31
BRANCH  13  34
HETATM   34  C   UNL     1       2.754  22.908  20.269  1.00  0.00     0.010 C 
HETATM   35  C   UNL     1       1.240  22.702  20.307  1.00  0.00     0.012 C 
HETATM   36  C   UNL     1       3.109  24.339  20.667  1.00  0.00     0.012 C 
ENDBRANCH  13  34
BRANCH  18  37
HETATM   37  C   UNL     1       2.490  21.738  12.443  1.00  0.00     0.016 C 
HETATM   38  C   UNL     1       1.962  22.898  13.287  1.00  0.00     0.012 C 
HETATM   39  C   UNL     1       2.072  21.904  10.984  1.00  0.00     0.012 C 
ENDBRANCH  18  37
BRANCH  17  40
HETATM   40  C   UNL     1       5.110  26.453  18.083  1.00  0.00     0.016 C 
HETATM   41  C   UNL     1       5.520  27.738  17.365  1.00  0.00     0.012 C 
HETATM   42  C   UNL     1       5.848  26.322  19.413  1.00  0.00     0.012 C 
ENDBRANCH  17  40
BRANCH  15  43
HETATM   43  C   UNL     1       6.430  25.760  12.645  1.00  0.00     0.010 C 
HETATM   44  C   UNL     1       6.912  26.957  13.461  1.00  0.00     0.012 C 
HETATM   45  C   UNL     1       7.564  24.761  12.434  1.00  0.00     0.012 C 
ENDBRANCH  15  43
TORSDOF 6
ENDMDL
MODEL 12
REMARK VINA RESULT:    -5.936      2.387      6.721
REMARK INTER + INTRA:          -6.796
REMARK INTER:                  -7.622
REMARK INTRA:                   0.826
REMARK UNBOUND:                 1.222
REMARK  6 active torsions:
REMARK  status: ('A' for Active; 'I' for Inactive)
REMARK    1  A    between atoms: C_13  and  C_16 
REMARK    2  A    between atoms: C_14  and  C_17 
REMARK    3  A    between atoms: C_15  and  C_18 
REMARK    4  A    between atoms: C_19  and  C_22 
REMARK    5  A    between atoms: C_20  and  C_23 
REMARK    6  A    between atoms: C_21  and  C_24 
ROOT
HETATM    1  O   UNL     1       6.437  18.281  13.181  1.00  0.00    -0.304 OA
HETATM    2  O   UNL     1       4.850  21.298  17.075  1.00  0.00    -0.304 OA
HETATM    3  O   UNL     1       4.846  23.240  12.764  1.00  0.00    -0.304 OA
HETATM    4  O   UNL     1       4.229  19.208  14.173  1.00  0.00    -0.270 OA
HETATM    5  O   UNL     1       4.273  20.378  11.471  1.00  0.00    -0.270 OA
HETATM    6  O   UNL     1       3.663  24.269  16.554  1.00  0.00    -0.270 OA
HETATM    7  O   UNL     1       7.673  20.154  13.712  1.00  0.00    -0.263 OA
HETATM    8  O   UNL     1       2.577  21.606  17.274  1.00  0.00    -0.263 OA
HETATM    9  O   UNL     1       4.832  25.413  12.022  1.00  0.00    -0.263 OA
HETATM   10  N   UNL     1       4.686  18.762  16.396  1.00  0.00    -0.340 N 
HETATM   11  N   UNL     1       6.463  21.135  11.335  1.00  0.00    -0.340 N 
HETATM   12  N   UNL     1       5.562  23.863  15.274  1.00  0.00    -0.340 N 
HETATM   13  C   UNL     1       3.413  19.393  16.805  1.00  0.00     0.190 C 
HETATM   14  C   UNL     1       6.975  19.751  11.416  1.00  0.00     0.190 C 
HETATM   15  C   UNL     1       5.284  24.989  14.358  1.00  0.00     0.190 C 
HETATM   16  C   UNL     1       6.233  17.963  14.575  1.00  0.00     0.227 C 
HETATM   17  C   UNL     1       5.199  22.645  17.433  1.00  0.00     0.227 C 
HETATM   18  C   UNL     1       4.547  22.753  11.442  1.00  0.00     0.227 C 
HETATM   19  C   UNL     1       4.968  18.701  15.025  1.00  0.00     0.250 C 
HETATM   20  C   UNL     1       5.071  21.319  11.415  1.00  0.00     0.250 C 
HETATM   21  C   UNL     1       4.724  23.661  16.384  1.00  0.00     0.250 C 
HETATM   22  C   UNL     1       7.098  19.443  12.899  1.00  0.00     0.283 C 
HETATM   23  C   UNL     1       3.552  20.892  17.062  1.00  0.00     0.283 C 
HETATM   24  C   UNL     1       4.977  24.587  12.917  1.00  0.00     0.283 C 
HETATM   25  C   UNL     1       5.580  18.278  17.452  1.00  0.00     0.153 C 
HETATM   26  C   UNL     1       7.440  22.221  11.213  1.00  0.00     0.153 C 
HETATM   27  C   UNL     1       6.809  23.121  15.074  1.00  0.00     0.153 C 
ENDROOT
BRANCH  16  28
HETATM   28  C   UNL     1       6.035  16.457  14.659  1.00  0.00     0.016 C 
HETATM   29  C   UNL     1       5.841  15.860  13.266  1.00  0.00     0.012 C 
HETATM   30  C   UNL     1       7.218  15.794  15.364  1.00  0.00     0.012 C 
ENDBRANCH  16  28
BRANCH  14  31
HETATM   31  C   UNL     1       8.299  19.487  10.711  1.00  0.00     0.010 C 
HETATM   32  C   UNL     1       9.057  18.353  11.399  1.00  0.00     0.012 C 
HETATM   33  C   UNL     1       8.068  19.160   9.238  1.00  0.00     0.012 C 
ENDBRANCH  14  31
BRANCH  13  34
HETATM   34  C   UNL     1       2.752  18.723  18.009  1.00  0.00     0.010 C 
HETATM   35  C   UNL     1       1.312  18.329  17.683  1.00  0.00     0.012 C 
HETATM   36  C   UNL     1       2.792  19.641  19.229  1.00  0.00     0.012 C 
ENDBRANCH  13  34
BRANCH  18  37
HETATM   37  C   UNL     1       3.036  22.806  11.232  1.00  0.00     0.016 C 
HETATM   38  C   UNL     1       2.310  22.934  12.572  1.00  0.00     0.012 C 
HETATM   39  C   UNL     1       2.659  23.961  10.307  1.00  0.00     0.012 C 
ENDBRANCH  18  37
BRANCH  17  40
HETATM   40  C   UNL     1       4.734  22.996  18.847  1.00  0.00     0.016 C 
HETATM   41  C   UNL     1       5.156  24.417  19.214  1.00  0.00     0.012 C 
HETATM   42  C   UNL     1       5.286  21.994  19.858  1.00  0.00     0.012 C 
ENDBRANCH  17  40
BRANCH  15  43
HETATM   43  C   UNL     1       6.406  26.028  14.396  1.00  0.00     0.010 C 
HETATM   44  C   UNL     1       7.149  26.060  13.063  1.00  0.00     0.012 C 
HETATM   45  C   UNL     1       5.846  27.406  14.735  1.00  0.00     0.012 C 
ENDBRANCH  15  43
TORSDOF 6
ENDMDL
MODEL 13
REMARK VINA RESULT:    -5.787      3.142      8.917
REMARK INTER + INTRA:          -6.595
REMARK INTER:                  -7.674
REMARK INTRA:                   1.079
REMARK UNBOUND:                 1.222
REMARK  6 active torsions:
REMARK  status: ('A' for Active; 'I' for Inactive)
REMARK    1  A    between atoms: C_13  and  C_16 
REMARK    2  A    between atoms: C_14  and  C_17 
REMARK    3  A    between atoms: C_15  and  C_18 
REMARK    4  A    between atoms: C_19  and  C_22 
REMARK    5  A    between atoms: C_20  and  C_23 
REMARK    6  A    between atoms: C_21  and  C_24 
ROOT
HETATM    1  O   UNL     1       5.775  19.477  18.155  1.00  0.00    -0.304 OA
HETATM    2  O   UNL     1       3.779  16.378  14.523  1.00  0.00    -0.304 OA
HETATM    3  O   UNL     1       6.076  20.217  12.992  1.00  0.00    -0.304 OA
HETATM    4  O   UNL     1       6.560  17.686  16.453  1.00  0.00    -0.270 OA
HETATM    5  O   UNL     1       7.976  20.107  15.555  1.00  0.00    -0.270 OA
HETATM    6  O   UNL     1       4.304  16.894  11.366  1.00  0.00    -0.270 OA
HETATM    7  O   UNL     1       4.097  20.290  16.798  1.00  0.00    -0.263 OA
HETATM    8  O   UNL     1       5.259  14.992  13.430  1.00  0.00    -0.263 OA
HETATM    9  O   UNL     1       6.061  21.367  11.004  1.00  0.00    -0.263 OA
HETATM   10  N   UNL     1       4.913  16.120  16.882  1.00  0.00    -0.340 N 
HETATM   11  N   UNL     1       6.275  21.683  15.618  1.00  0.00    -0.340 N 
HETATM   12  N   UNL     1       3.811  18.870  12.491  1.00  0.00    -0.340 N 
HETATM   13  C   UNL     1       5.447  15.239  15.822  1.00  0.00     0.190 C 
HETATM   14  C   UNL     1       6.163  21.543  17.085  1.00  0.00     0.190 C 
HETATM   15  C   UNL     1       4.340  19.717  11.403  1.00  0.00     0.190 C 
HETATM   16  C   UNL     1       5.113  18.201  18.288  1.00  0.00     0.227 C 
HETATM   17  C   UNL     1       2.985  16.669  13.360  1.00  0.00     0.227 C 
HETATM   18  C   UNL     1       7.248  20.929  13.431  1.00  0.00     0.227 C 
HETATM   19  C   UNL     1       5.590  17.322  17.129  1.00  0.00     0.250 C 
HETATM   20  C   UNL     1       7.209  20.866  14.956  1.00  0.00     0.250 C 
HETATM   21  C   UNL     1       3.770  17.476  12.315  1.00  0.00     0.250 C 
HETATM   22  C   UNL     1       5.201  20.391  17.318  1.00  0.00     0.283 C 
HETATM   23  C   UNL     1       4.838  15.527  14.451  1.00  0.00     0.283 C 
HETATM   24  C   UNL     1       5.574  20.539  11.768  1.00  0.00     0.283 C 
HETATM   25  C   UNL     1       3.693  15.695  17.575  1.00  0.00     0.153 C 
HETATM   26  C   UNL     1       5.383  22.636  14.951  1.00  0.00     0.153 C 
HETATM   27  C   UNL     1       3.188  19.544  13.632  1.00  0.00     0.153 C 
ENDROOT
BRANCH  16  28
HETATM   28  C   UNL     1       5.551  17.615  19.623  1.00  0.00     0.016 C 
HETATM   29  C   UNL     1       6.474  18.583  20.360  1.00  0.00     0.012 C 
HETATM   30  C   UNL     1       4.337  17.271  20.486  1.00  0.00     0.012 C 
ENDBRANCH  16  28
BRANCH  14  31
HETATM   31  C   UNL     1       5.695  22.781  17.840  1.00  0.00     0.010 C 
HETATM   32  C   UNL     1       5.150  22.398  19.214  1.00  0.00     0.012 C 
HETATM   33  C   UNL     1       6.833  23.789  17.977  1.00  0.00     0.012 C 
ENDBRANCH  14  31
BRANCH  13  34
HETATM   34  C   UNL     1       5.323  13.749  16.138  1.00  0.00     0.010 C 
HETATM   35  C   UNL     1       6.629  13.021  15.823  1.00  0.00     0.012 C 
HETATM   36  C   UNL     1       4.164  13.126  15.363  1.00  0.00     0.012 C 
ENDBRANCH  13  34
BRANCH  18  37
HETATM   37  C   UNL     1       8.484  20.230  12.869  1.00  0.00     0.016 C 
HETATM   38  C   UNL     1       8.135  18.821  12.391  1.00  0.00     0.012 C 
HETATM   39  C   UNL     1       9.096  21.045  11.732  1.00  0.00     0.012 C 
ENDBRANCH  18  37
BRANCH  17  40
HETATM   40  C   UNL     1       2.349  15.407  12.776  1.00  0.00     0.016 C 
HETATM   41  C   UNL     1       1.587  15.734  11.494  1.00  0.00     0.012 C 
HETATM   42  C   UNL     1       1.425  14.749  13.798  1.00  0.00     0.012 C 
ENDBRANCH  17  40
BRANCH  15  43
HETATM   43  C   UNL     1       3.250  20.618  10.819  1.00  0.00     0.010 C 
HETATM   44  C   UNL     1       1.954  19.833  10.632  1.00  0.00     0.012 C 
HETATM   45  C   UNL     1       3.022  21.830  11.717  1.00  0.00     0.012 C 
ENDBRANCH  15  43
TORSDOF 6
ENDMDL
MODEL 14
REMARK VINA RESULT:    -5.773      2.896      6.684
REMARK INTER + INTRA:          -6.575
REMARK INTER:                  -7.725
REMARK INTRA:                   1.149
REMARK UNBOUND:                 1.222
REMARK  6 active torsions:
REMARK  status: ('A' for Active; 'I' for Inactive)
REMARK    1  A    between atoms: C_13  and  C_16 
REMARK    2  A    between atoms: C_14  and  C_17 
REMARK    3  A    between atoms: C_15  and  C_18 
REMARK    4  A    between atoms: C_19  and  C_22 
REMARK    5  A    between atoms: C_20  and  C_23 
REMARK    6  A    between atoms: C_21  and  C_24 
ROOT
HETATM    1  O   UNL     1       7.239  21.388  12.299  1.00  0.00    -0.304 OA
HETATM    2  O   UNL     1       2.201  21.089  13.443  1.00  0.00    -0.304 OA
HETATM    3  O   UNL     1       4.432  16.996  12.652  1.00  0.00    -0.304 OA
HETATM    4  O   UNL     1       5.713  20.772  14.301  1.00  0.00    -0.270 OA
HETATM    5  O   UNL     1       7.144  18.254  13.771  1.00  0.00    -0.270 OA
HETATM    6  O   UNL     1       0.714  18.239  13.860  1.00  0.00    -0.270 OA
HETATM    7  O   UNL     1       5.783  20.574  10.707  1.00  0.00    -0.263 OA
HETATM    8  O   UNL     1       1.673  20.447  15.591  1.00  0.00    -0.263 OA
HETATM    9  O   UNL     1       3.699  14.890  12.101  1.00  0.00    -0.263 OA
HETATM   10  N   UNL     1       4.263  22.567  14.139  1.00  0.00    -0.340 N 
HETATM   11  N   UNL     1       6.970  18.105  11.462  1.00  0.00    -0.340 N 
HETATM   12  N   UNL     1       2.127  18.211  12.012  1.00  0.00    -0.340 N 
HETATM   13  C   UNL     1       3.454  22.039  15.259  1.00  0.00     0.190 C 
HETATM   14  C   UNL     1       7.786  19.324  11.295  1.00  0.00     0.190 C 
HETATM   15  C   UNL     1       2.146  16.735  11.947  1.00  0.00     0.190 C 
HETATM   16  C   UNL     1       6.313  22.428  12.682  1.00  0.00     0.227 C 
HETATM   17  C   UNL     1       1.128  20.363  12.819  1.00  0.00     0.227 C 
HETATM   18  C   UNL     1       5.748  16.494  12.950  1.00  0.00     0.227 C 
HETATM   19  C   UNL     1       5.408  21.846  13.771  1.00  0.00     0.250 C 
HETATM   20  C   UNL     1       6.682  17.689  12.775  1.00  0.00     0.250 C 
HETATM   21  C   UNL     1       1.304  18.844  12.960  1.00  0.00     0.250 C 
HETATM   22  C   UNL     1       6.811  20.487  11.364  1.00  0.00     0.283 C 
HETATM   23  C   UNL     1       2.352  21.088  14.796  1.00  0.00     0.283 C 
HETATM   24  C   UNL     1       3.505  16.095  12.223  1.00  0.00     0.283 C 
HETATM   25  C   UNL     1       3.793  23.783  13.469  1.00  0.00     0.153 C 
HETATM   26  C   UNL     1       6.486  17.433  10.252  1.00  0.00     0.153 C 
HETATM   27  C   UNL     1       2.836  18.944  10.961  1.00  0.00     0.153 C 
ENDROOT
BRANCH  16  28
HETATM   28  C   UNL     1       7.144  23.578  13.231  1.00  0.00     0.016 C 
HETATM   29  C   UNL     1       8.491  23.072  13.746  1.00  0.00     0.012 C 
HETATM   30  C   UNL     1       7.350  24.654  12.165  1.00  0.00     0.012 C 
ENDBRANCH  16  28
BRANCH  14  31
HETATM   31  C   UNL     1       8.611  19.406  10.016  1.00  0.00     0.010 C 
HETATM   32  C   UNL     1       8.222  20.639   9.204  1.00  0.00     0.012 C 
HETATM   33  C   UNL     1      10.103  19.426  10.340  1.00  0.00     0.012 C 
ENDBRANCH  14  31
BRANCH  13  34
HETATM   34  C   UNL     1       2.855  23.125  16.151  1.00  0.00     0.010 C 
HETATM   35  C   UNL     1       3.189  22.862  17.619  1.00  0.00     0.012 C 
HETATM   36  C   UNL     1       1.343  23.214  15.955  1.00  0.00     0.012 C 
ENDBRANCH  13  34
BRANCH  18  37
HETATM   37  C   UNL     1       5.760  15.975  14.386  1.00  0.00     0.016 C 
HETATM   38  C   UNL     1       4.494  16.408  15.125  1.00  0.00     0.012 C 
HETATM   39  C   UNL     1       5.901  14.455  14.410  1.00  0.00     0.012 C 
ENDBRANCH  18  37
BRANCH  17  40
HETATM   40  C   UNL     1      -0.240  20.846  13.301  1.00  0.00     0.016 C 
HETATM   41  C   UNL     1      -1.355  20.008  12.679  1.00  0.00     0.012 C 
HETATM   42  C   UNL     1      -0.434  22.325  12.973  1.00  0.00     0.012 C 
ENDBRANCH  17  40
BRANCH  15  43
HETATM   43  C   UNL     1       1.576  16.230  10.621  1.00  0.00     0.010 C 
HETATM   44  C   UNL     1       0.866  14.893  10.820  1.00  0.00     0.012 C 
HETATM   45  C   UNL     1       0.625  17.261  10.021  1.00  0.00     0.012 C 
ENDBRANCH  15  43
TORSDOF 6
ENDMDL
MODEL 15
REMARK VINA RESULT:    -5.704     18.552     23.771
REMARK INTER + INTRA:          -6.483
REMARK INTER:                  -7.417
REMARK INTRA:                   0.935
REMARK UNBOUND:                 1.222
REMARK  6 active torsions:
REMARK  status: ('A' for Active; 'I' for Inactive)
REMARK    1  A    between atoms: C_13  and  C_16 
REMARK    2  A    between atoms: C_14  and  C_17 
REMARK    3  A    between atoms: C_15  and  C_18 
REMARK    4  A    between atoms: C_19  and  C_22 
REMARK    5  A    between atoms: C_20  and  C_23 
REMARK    6  A    between atoms: C_21  and  C_24 
ROOT
HETATM    1  O   UNL     1      10.945  11.950  34.825  1.00  0.00    -0.304 OA
HETATM    2  O   UNL     1      13.072   9.010  31.135  1.00  0.00    -0.304 OA
HETATM    3  O   UNL     1       9.609  11.926  29.774  1.00  0.00    -0.304 OA
HETATM    4  O   UNL     1      12.618  12.172  32.857  1.00  0.00    -0.270 OA
HETATM    5  O   UNL     1      10.436  13.986  32.068  1.00  0.00    -0.270 OA
HETATM    6  O   UNL     1      12.262   9.340  28.014  1.00  0.00    -0.270 OA
HETATM    7  O   UNL     1       9.639  10.368  33.771  1.00  0.00    -0.263 OA
HETATM    8  O   UNL     1      14.572  10.050  29.731  1.00  0.00    -0.263 OA
HETATM    9  O   UNL     1       8.228  11.974  27.939  1.00  0.00    -0.263 OA
HETATM   10  N   UNL     1      13.862  10.274  33.302  1.00  0.00    -0.340 N 
HETATM   11  N   UNL     1       8.571  12.676  32.503  1.00  0.00    -0.340 N 
HETATM   12  N   UNL     1      10.393   9.388  29.399  1.00  0.00    -0.340 N 
HETATM   13  C   UNL     1      14.685  10.507  32.097  1.00  0.00     0.190 C 
HETATM   14  C   UNL     1       8.877  12.672  33.948  1.00  0.00     0.190 C 
HETATM   15  C   UNL     1       9.534   9.984  28.355  1.00  0.00     0.190 C 
HETATM   16  C   UNL     1      12.068  11.044  34.894  1.00  0.00     0.227 C 
HETATM   17  C   UNL     1      12.477   8.193  30.113  1.00  0.00     0.227 C 
HETATM   18  C   UNL     1       9.211  13.259  30.147  1.00  0.00     0.227 C 
HETATM   19  C   UNL     1      12.864  11.213  33.597  1.00  0.00     0.250 C 
HETATM   20  C   UNL     1       9.465  13.347  31.650  1.00  0.00     0.250 C 
HETATM   21  C   UNL     1      11.715   9.033  29.077  1.00  0.00     0.250 C 
HETATM   22  C   UNL     1       9.832  11.510  34.166  1.00  0.00     0.283 C 
HETATM   23  C   UNL     1      14.103   9.850  30.847  1.00  0.00     0.283 C 
HETATM   24  C   UNL     1       9.033  11.394  28.660  1.00  0.00     0.283 C 
HETATM   25  C   UNL     1      14.120   9.060  34.083  1.00  0.00     0.153 C 
HETATM   26  C   UNL     1       7.378  11.951  32.054  1.00  0.00     0.153 C 
HETATM   27  C   UNL     1       9.763   9.032  30.672  1.00  0.00     0.153 C 
ENDROOT
BRANCH  16  28
HETATM   28  C   UNL     1      12.901  11.467  36.096  1.00  0.00     0.016 C 
HETATM   29  C   UNL     1      13.348  12.921  35.957  1.00  0.00     0.012 C 
HETATM   30  C   UNL     1      12.117  11.270  37.393  1.00  0.00     0.012 C 
ENDBRANCH  16  28
BRANCH  14  31
HETATM   31  C   UNL     1       7.681  12.552  34.884  1.00  0.00     0.010 C 
HETATM   32  C   UNL     1       8.131  12.120  36.278  1.00  0.00     0.012 C 
HETATM   33  C   UNL     1       6.918  13.873  34.953  1.00  0.00     0.012 C 
ENDBRANCH  14  31
BRANCH  13  34
HETATM   34  C   UNL     1      16.148  10.095  32.260  1.00  0.00     0.010 C 
HETATM   35  C   UNL     1      17.078  11.247  31.879  1.00  0.00     0.012 C 
HETATM   36  C   UNL     1      16.459   8.857  31.422  1.00  0.00     0.012 C 
ENDBRANCH  13  34
BRANCH  18  37
HETATM   37  C   UNL     1      10.065  14.259  29.371  1.00  0.00     0.016 C 
HETATM   38  C   UNL     1      11.030  13.530  28.435  1.00  0.00     0.012 C 
HETATM   39  C   UNL     1       9.184  15.226  28.585  1.00  0.00     0.012 C 
ENDBRANCH  18  37
BRANCH  17  40
HETATM   40  C   UNL     1      13.496   7.250  29.473  1.00  0.00     0.016 C 
HETATM   41  C   UNL     1      12.850   6.441  28.351  1.00  0.00     0.012 C 
HETATM   42  C   UNL     1      14.102   6.322  30.524  1.00  0.00     0.012 C 
ENDBRANCH  17  40
BRANCH  15  43
HETATM   43  C   UNL     1       8.363   9.064  28.006  1.00  0.00     0.010 C 
HETATM   44  C   UNL     1       7.073   9.577  28.640  1.00  0.00     0.012 C 
HETATM   45  C   UNL     1       8.210   8.947  26.492  1.00  0.00     0.012 C 
ENDBRANCH  15  43
TORSDOF 6
ENDMDL
MODEL 16
REMARK VINA RESULT:    -5.695     19.515     23.992
REMARK INTER + INTRA:          -6.471
REMARK INTER:                  -7.381
REMARK INTRA:                   0.910
REMARK UNBOUND:                 1.222
REMARK  6 active torsions:
REMARK  status: ('A' for Active; 'I' for Inactive)
REMARK    1  A    between atoms: C_13  and  C_16 
REMARK    2  A    between atoms: C_14  and  C_17 
REMARK    3  A    between atoms: C_15  and  C_18 
REMARK    4  A    between atoms: C_19  and  C_22 
REMARK    5  A    between atoms: C_20  and  C_23 
REMARK    6  A    between atoms: C_21  and  C_24 
ROOT
HETATM    1  O   UNL     1      10.187  10.697  29.654  1.00  0.00    -0.304 OA
HETATM    2  O   UNL     1      14.393   8.129  28.071  1.00  0.00    -0.304 OA
HETATM    3  O   UNL     1      14.280   9.389  32.627  1.00  0.00    -0.304 OA
HETATM    4  O   UNL     1      11.205   8.317  29.796  1.00  0.00    -0.270 OA
HETATM    5  O   UNL     1      11.096   9.150  32.618  1.00  0.00    -0.270 OA
HETATM    6  O   UNL     1      16.703   7.198  30.146  1.00  0.00    -0.270 OA
HETATM    7  O   UNL     1      12.230  11.767  29.703  1.00  0.00    -0.263 OA
HETATM    8  O   UNL     1      14.507   5.900  28.636  1.00  0.00    -0.263 OA
HETATM    9  O   UNL     1      15.907   9.629  34.230  1.00  0.00    -0.263 OA
HETATM   10  N   UNL     1      11.810   8.114  27.573  1.00  0.00    -0.340 N 
HETATM   11  N   UNL     1      11.955  11.303  32.494  1.00  0.00    -0.340 N 
HETATM   12  N   UNL     1      15.996   9.375  30.564  1.00  0.00    -0.340 N 
HETATM   13  C   UNL     1      12.413   6.791  27.837  1.00  0.00     0.190 C 
HETATM   14  C   UNL     1      10.806  11.743  31.677  1.00  0.00     0.190 C 
HETATM   15  C   UNL     1      16.580   9.390  31.921  1.00  0.00     0.190 C 
HETATM   16  C   UNL     1      10.480  10.098  28.373  1.00  0.00     0.227 C 
HETATM   17  C   UNL     1      15.793   8.389  28.269  1.00  0.00     0.227 C 
HETATM   18  C   UNL     1      13.243   9.468  33.623  1.00  0.00     0.227 C 
HETATM   19  C   UNL     1      11.197   8.774  28.647  1.00  0.00     0.250 C 
HETATM   20  C   UNL     1      12.003   9.949  32.874  1.00  0.00     0.250 C 
HETATM   21  C   UNL     1      16.200   8.252  29.744  1.00  0.00     0.250 C 
HETATM   22  C   UNL     1      11.180  11.434  30.237  1.00  0.00     0.283 C 
HETATM   23  C   UNL     1      13.882   6.880  28.244  1.00  0.00     0.283 C 
HETATM   24  C   UNL     1      15.567   9.498  33.059  1.00  0.00     0.283 C 
HETATM   25  C   UNL     1      11.928   8.662  26.218  1.00  0.00     0.153 C 
HETATM   26  C   UNL     1      12.982  12.296  32.822  1.00  0.00     0.153 C 
HETATM   27  C   UNL     1      15.381  10.612  30.078  1.00  0.00     0.153 C 
ENDROOT
BRANCH  16  28
HETATM   28  C   UNL     1       9.144   9.855  27.685  1.00  0.00     0.016 C 
HETATM   29  C   UNL     1       8.001   9.895  28.698  1.00  0.00     0.012 C 
HETATM   30  C   UNL     1       8.912  10.881  26.577  1.00  0.00     0.012 C 
ENDBRANCH  16  28
BRANCH  14  31
HETATM   31  C   UNL     1      10.410  13.208  31.815  1.00  0.00     0.010 C 
HETATM   32  C   UNL     1       9.596  13.661  30.605  1.00  0.00     0.012 C 
HETATM   33  C   UNL     1       9.623  13.432  33.104  1.00  0.00     0.012 C 
ENDBRANCH  14  31
BRANCH  13  34
HETATM   34  C   UNL     1      12.258   5.801  26.682  1.00  0.00     0.010 C 
HETATM   35  C   UNL     1      11.030   4.915  26.892  1.00  0.00     0.012 C 
HETATM   36  C   UNL     1      13.514   4.946  26.530  1.00  0.00     0.012 C 
ENDBRANCH  13  34
BRANCH  18  37
HETATM   37  C   UNL     1      13.036   8.080  34.224  1.00  0.00     0.016 C 
HETATM   38  C   UNL     1      13.777   7.023  33.406  1.00  0.00     0.012 C 
HETATM   39  C   UNL     1      13.494   8.048  35.681  1.00  0.00     0.012 C 
ENDBRANCH  18  37
BRANCH  17  40
HETATM   40  C   UNL     1      16.664   7.549  27.336  1.00  0.00     0.016 C 
HETATM   41  C   UNL     1      18.112   8.035  27.369  1.00  0.00     0.012 C 
HETATM   42  C   UNL     1      16.117   7.588  25.910  1.00  0.00     0.012 C 
ENDBRANCH  17  40
BRANCH  15  43
HETATM   43  C   UNL     1      17.650  10.475  32.053  1.00  0.00     0.010 C 
HETATM   44  C   UNL     1      17.079  11.706  32.753  1.00  0.00     0.012 C 
HETATM   45  C   UNL     1      18.863   9.940  32.809  1.00  0.00     0.012 C 
ENDBRANCH  15  43
TORSDOF 6
ENDMDL
MODEL 17
REMARK VINA RESULT:    -5.693     18.904     23.797
REMARK INTER + INTRA:          -6.468
REMARK INTER:                  -7.319
REMARK INTRA:                   0.852
REMARK UNBOUND:                 1.222
REMARK  6 active torsions:
REMARK  status: ('A' for Active; 'I' for Inactive)
REMARK    1  A    between atoms: C_13  and  C_16 
REMARK    2  A    between atoms: C_14  and  C_17 
REMARK    3  A    between atoms: C_15  and  C_18 
REMARK    4  A    between atoms: C_19  and  C_22 
REMARK    5  A    between atoms: C_20  and  C_23 
REMARK    6  A    between atoms: C_21  and  C_24 
ROOT
HETATM    1  O   UNL     1       9.419  11.907  29.738  1.00  0.00    -0.304 OA
HETATM    2  O   UNL     1      13.316   8.526  29.325  1.00  0.00    -0.304 OA
HETATM    3  O   UNL     1      12.468  10.251  33.645  1.00  0.00    -0.304 OA
HETATM    4  O   UNL     1       9.925   9.419  30.260  1.00  0.00    -0.270 OA
HETATM    5  O   UNL     1       9.372  10.546  32.924  1.00  0.00    -0.270 OA
HETATM    6  O   UNL     1      14.916   7.444  31.928  1.00  0.00    -0.270 OA
HETATM    7  O   UNL     1      11.566  12.623  30.185  1.00  0.00    -0.263 OA
HETATM    8  O   UNL     1      12.892   6.380  30.041  1.00  0.00    -0.263 OA
HETATM    9  O   UNL     1      13.732  10.382  35.558  1.00  0.00    -0.263 OA
HETATM   10  N   UNL     1      10.942   8.889  28.251  1.00  0.00    -0.340 N 
HETATM   11  N   UNL     1      10.620  12.501  32.862  1.00  0.00    -0.340 N 
HETATM   12  N   UNL     1      14.552   9.739  32.034  1.00  0.00    -0.340 N 
HETATM   13  C   UNL     1      11.219   7.519  28.730  1.00  0.00     0.190 C 
HETATM   14  C   UNL     1       9.774  13.039  31.778  1.00  0.00     0.190 C 
HETATM   15  C   UNL     1      14.826   9.798  33.485  1.00  0.00     0.190 C 
HETATM   16  C   UNL     1       9.862  11.139  28.598  1.00  0.00     0.227 C 
HETATM   17  C   UNL     1      14.664   8.569  29.821  1.00  0.00     0.227 C 
HETATM   18  C   UNL     1      11.276  10.605  34.371  1.00  0.00     0.227 C 
HETATM   19  C   UNL     1      10.246   9.749  29.113  1.00  0.00     0.250 C 
HETATM   20  C   UNL     1      10.335  11.205  33.328  1.00  0.00     0.250 C 
HETATM   21  C   UNL     1      14.715   8.519  31.355  1.00  0.00     0.250 C 
HETATM   22  C   UNL     1      10.383  12.525  30.484  1.00  0.00     0.283 C 
HETATM   23  C   UNL     1      12.558   7.404  29.456  1.00  0.00     0.283 C 
HETATM   24  C   UNL     1      13.631  10.189  34.351  1.00  0.00     0.283 C 
HETATM   25  C   UNL     1      11.446   9.267  26.928  1.00  0.00     0.153 C 
HETATM   26  C   UNL     1      11.720  13.338  33.352  1.00  0.00     0.153 C 
HETATM   27  C   UNL     1      14.294  11.004  31.342  1.00  0.00     0.153 C 
ENDROOT
BRANCH  16  28
HETATM   28  C   UNL     1       8.683  11.052  27.641  1.00  0.00     0.016 C 
HETATM   29  C   UNL     1       7.480  11.814  28.196  1.00  0.00     0.012 C 
HETATM   30  C   UNL     1       9.065  11.588  26.262  1.00  0.00     0.012 C 
ENDBRANCH  16  28
BRANCH  14  31
HETATM   31  C   UNL     1       9.636  14.556  31.728  1.00  0.00     0.010 C 
HETATM   32  C   UNL     1       9.203  15.011  30.336  1.00  0.00     0.012 C 
HETATM   33  C   UNL     1       8.644  15.040  32.783  1.00  0.00     0.012 C 
ENDBRANCH  14  31
BRANCH  13  34
HETATM   34  C   UNL     1      11.133   6.455  27.636  1.00  0.00     0.010 C 
HETATM   35  C   UNL     1      10.116   5.377  28.010  1.00  0.00     0.012 C 
HETATM   36  C   UNL     1      12.503   5.830  27.381  1.00  0.00     0.012 C 
ENDBRANCH  13  34
BRANCH  18  37
HETATM   37  C   UNL     1      10.692   9.340  34.996  1.00  0.00     0.016 C 
HETATM   38  C   UNL     1      11.380   8.095  34.436  1.00  0.00     0.012 C 
HETATM   39  C   UNL     1      10.816   9.382  36.517  1.00  0.00     0.012 C 
ENDBRANCH  18  37
BRANCH  17  40
HETATM   40  C   UNL     1      15.544   7.503  29.167  1.00  0.00     0.016 C 
HETATM   41  C   UNL     1      16.970   7.575  29.710  1.00  0.00     0.012 C 
HETATM   42  C   UNL     1      15.540   7.662  27.647  1.00  0.00     0.012 C 
ENDBRANCH  17  40
BRANCH  15  43
HETATM   43  C   UNL     1      16.025  10.697  33.788  1.00  0.00     0.010 C 
HETATM   44  C   UNL     1      15.556  12.047  34.326  1.00  0.00     0.012 C 
HETATM   45  C   UNL     1      16.964  10.019  34.780  1.00  0.00     0.012 C 
ENDBRANCH  15  43
TORSDOF 6
ENDMDL
MODEL 18
REMARK VINA RESULT:    -5.676     20.219     24.589
REMARK INTER + INTRA:          -6.445
REMARK INTER:                  -7.807
REMARK INTRA:                   1.363
REMARK UNBOUND:                 1.222
REMARK  6 active torsions:
REMARK  status: ('A' for Active; 'I' for Inactive)
REMARK    1  A    between atoms: C_13  and  C_16 
REMARK    2  A    between atoms: C_14  and  C_17 
REMARK    3  A    between atoms: C_15  and  C_18 
REMARK    4  A    between atoms: C_19  and  C_22 
REMARK    5  A    between atoms: C_20  and  C_23 
REMARK    6  A    between atoms: C_21  and  C_24 
ROOT
HETATM    1  O   UNL     1      12.407  10.130  29.020  1.00  0.00    -0.304 OA
HETATM    2  O   UNL     1      11.323  10.817  34.034  1.00  0.00    -0.304 OA
HETATM    3  O   UNL     1      15.730   9.455  32.996  1.00  0.00    -0.304 OA
HETATM    4  O   UNL     1      12.826  11.864  30.901  1.00  0.00    -0.270 OA
HETATM    5  O   UNL     1      15.549  10.989  30.201  1.00  0.00    -0.270 OA
HETATM    6  O   UNL     1      13.610  10.588  36.319  1.00  0.00    -0.270 OA
HETATM    7  O   UNL     1      12.483   8.311  30.435  1.00  0.00    -0.263 OA
HETATM    8  O   UNL     1      12.094  12.763  34.993  1.00  0.00    -0.263 OA
HETATM    9  O   UNL     1      17.400   8.472  34.227  1.00  0.00    -0.263 OA
HETATM   10  N   UNL     1      10.672  11.927  31.740  1.00  0.00    -0.340 N 
HETATM   11  N   UNL     1      15.283   8.685  30.116  1.00  0.00    -0.340 N 
HETATM   12  N   UNL     1      13.785   8.878  34.751  1.00  0.00    -0.340 N 
HETATM   13  C   UNL     1      11.092  12.865  32.802  1.00  0.00     0.190 C 
HETATM   14  C   UNL     1      14.360   8.808  28.968  1.00  0.00     0.190 C 
HETATM   15  C   UNL     1      15.168   8.544  35.150  1.00  0.00     0.190 C 
HETATM   16  C   UNL     1      11.206  10.628  29.649  1.00  0.00     0.227 C 
HETATM   17  C   UNL     1      11.581   9.991  35.182  1.00  0.00     0.227 C 
HETATM   18  C   UNL     1      16.650   9.754  31.929  1.00  0.00     0.227 C 
HETATM   19  C   UNL     1      11.642  11.519  30.814  1.00  0.00     0.250 C 
HETATM   20  C   UNL     1      15.786   9.873  30.675  1.00  0.00     0.250 C 
HETATM   21  C   UNL     1      13.084   9.862  35.471  1.00  0.00     0.250 C 
HETATM   22  C   UNL     1      12.980   9.017  29.567  1.00  0.00     0.283 C 
HETATM   23  C   UNL     1      11.578  12.153  34.063  1.00  0.00     0.283 C 
HETATM   24  C   UNL     1      16.227   8.799  34.080  1.00  0.00     0.283 C 
HETATM   25  C   UNL     1       9.283  11.459  31.750  1.00  0.00     0.153 C 
HETATM   26  C   UNL     1      15.581   7.339  30.614  1.00  0.00     0.153 C 
HETATM   27  C   UNL     1      13.152   8.037  33.734  1.00  0.00     0.153 C 
ENDROOT
BRANCH  16  28
HETATM   28  C   UNL     1      10.463  11.440  28.598  1.00  0.00     0.016 C 
HETATM   29  C   UNL     1      11.167  12.774  28.351  1.00  0.00     0.012 C 
HETATM   30  C   UNL     1      10.338  10.653  27.294  1.00  0.00     0.012 C 
ENDBRANCH  16  28
BRANCH  14  31
HETATM   31  C   UNL     1      14.340   7.632  27.999  1.00  0.00     0.010 C 
HETATM   32  C   UNL     1      13.088   7.677  27.126  1.00  0.00     0.012 C 
HETATM   33  C   UNL     1      15.597   7.629  27.132  1.00  0.00     0.012 C 
ENDBRANCH  14  31
BRANCH  13  34
HETATM   34  C   UNL     1      10.024  13.895  33.172  1.00  0.00     0.010 C 
HETATM   35  C   UNL     1       8.851  13.224  33.884  1.00  0.00     0.012 C 
HETATM   36  C   UNL     1       9.540  14.642  31.931  1.00  0.00     0.012 C 
ENDBRANCH  13  34
BRANCH  18  37
HETATM   37  C   UNL     1      17.361  11.066  32.250  1.00  0.00     0.016 C 
HETATM   38  C   UNL     1      16.598  11.844  33.322  1.00  0.00     0.012 C 
HETATM   39  C   UNL     1      18.798  10.807  32.698  1.00  0.00     0.012 C 
ENDBRANCH  18  37
BRANCH  17  40
HETATM   40  C   UNL     1      10.783  10.448  36.402  1.00  0.00     0.016 C 
HETATM   41  C   UNL     1      11.079   9.553  37.604  1.00  0.00     0.012 C 
HETATM   42  C   UNL     1       9.287  10.456  36.094  1.00  0.00     0.012 C 
ENDBRANCH  17  40
BRANCH  15  43
HETATM   43  C   UNL     1      15.265   7.108  35.668  1.00  0.00     0.010 C 
HETATM   44  C   UNL     1      15.889   6.201  34.610  1.00  0.00     0.012 C 
HETATM   45  C   UNL     1      16.072   7.061  36.962  1.00  0.00     0.012 C 
ENDBRANCH  15  43
TORSDOF 6
ENDMDL
MODEL 19
REMARK VINA RESULT:    -5.609      2.679      5.972
REMARK INTER + INTRA:          -6.354
REMARK INTER:                  -7.094
REMARK INTRA:                   0.740
REMARK UNBOUND:                 1.222
REMARK  6 active torsions:
REMARK  status: ('A' for Active; 'I' for Inactive)
REMARK    1  A    between atoms: C_13  and  C_16 
REMARK    2  A    between atoms: C_14  and  C_17 
REMARK    3  A    between atoms: C_15  and  C_18 
REMARK    4  A    between atoms: C_19  and  C_22 
REMARK    5  A    between atoms: C_20  and  C_23 
REMARK    6  A    between atoms: C_21  and  C_24 
ROOT
HETATM    1  O   UNL     1       4.059  19.101  17.856  1.00  0.00    -0.304 OA
HETATM    2  O   UNL     1       5.165  23.200  14.897  1.00  0.00    -0.304 OA
HETATM    3  O   UNL     1       4.609  19.072  12.660  1.00  0.00    -0.304 OA
HETATM    4  O   UNL     1       2.863  20.736  16.238  1.00  0.00    -0.270 OA
HETATM    5  O   UNL     1       2.535  18.134  14.898  1.00  0.00    -0.270 OA
HETATM    6  O   UNL     1       5.210  23.005  11.662  1.00  0.00    -0.270 OA
HETATM    7  O   UNL     1       6.054  19.133  16.700  1.00  0.00    -0.263 OA
HETATM    8  O   UNL     1       3.410  24.129  13.731  1.00  0.00    -0.263 OA
HETATM    9  O   UNL     1       5.259  18.306  10.595  1.00  0.00    -0.263 OA
HETATM   10  N   UNL     1       3.767  22.697  17.067  1.00  0.00    -0.340 N 
HETATM   11  N   UNL     1       4.677  17.258  15.067  1.00  0.00    -0.340 N 
HETATM   12  N   UNL     1       6.266  21.182  12.649  1.00  0.00    -0.340 N 
HETATM   13  C   UNL     1       3.067  23.482  16.029  1.00  0.00     0.190 C 
HETATM   14  C   UNL     1       4.571  17.211  16.540  1.00  0.00     0.190 C 
HETATM   15  C   UNL     1       6.204  20.373  11.414  1.00  0.00     0.190 C 
HETATM   16  C   UNL     1       4.190  20.494  18.214  1.00  0.00     0.227 C 
HETATM   17  C   UNL     1       6.132  23.379  13.847  1.00  0.00     0.227 C 
HETATM   18  C   UNL     1       3.738  17.939  12.841  1.00  0.00     0.227 C 
HETATM   19  C   UNL     1       3.554  21.311  17.087  1.00  0.00     0.250 C 
HETATM   20  C   UNL     1       3.587  17.787  14.352  1.00  0.00     0.250 C 
HETATM   21  C   UNL     1       5.814  22.513  12.620  1.00  0.00     0.250 C 
HETATM   22  C   UNL     1       5.014  18.578  17.030  1.00  0.00     0.283 C 
HETATM   23  C   UNL     1       3.883  23.630  14.747  1.00  0.00     0.283 C 
HETATM   24  C   UNL     1       5.324  19.129  11.502  1.00  0.00     0.283 C 
HETATM   25  C   UNL     1       4.665  23.413  17.978  1.00  0.00     0.153 C 
HETATM   26  C   UNL     1       5.922  16.785  14.454  1.00  0.00     0.153 C 
HETATM   27  C   UNL     1       6.965  20.607  13.800  1.00  0.00     0.153 C 
ENDROOT
BRANCH  16  28
HETATM   28  C   UNL     1       3.427  20.687  19.516  1.00  0.00     0.016 C 
HETATM   29  C   UNL     1       2.485  19.511  19.769  1.00  0.00     0.012 C 
HETATM   30  C   UNL     1       4.393  20.859  20.688  1.00  0.00     0.012 C 
ENDBRANCH  16  28
BRANCH  14  31
HETATM   31  C   UNL     1       5.374  16.117  17.232  1.00  0.00     0.010 C 
HETATM   32  C   UNL     1       5.461  16.383  18.733  1.00  0.00     0.012 C 
HETATM   33  C   UNL     1       4.756  14.746  16.966  1.00  0.00     0.012 C 
ENDBRANCH  14  31
BRANCH  13  34
HETATM   34  C   UNL     1       2.603  24.858  16.506  1.00  0.00     0.010 C 
HETATM   35  C   UNL     1       1.107  25.042  16.249  1.00  0.00     0.012 C 
HETATM   36  C   UNL     1       3.402  25.965  15.823  1.00  0.00     0.012 C 
ENDBRANCH  13  34
BRANCH  18  37
HETATM   37  C   UNL     1       2.401  18.239  12.167  1.00  0.00     0.016 C 
HETATM   38  C   UNL     1       2.328  19.706  11.745  1.00  0.00     0.012 C 
HETATM   39  C   UNL     1       2.185  17.324  10.964  1.00  0.00     0.012 C 
ENDBRANCH  18  37
BRANCH  17  40
HETATM   40  C   UNL     1       6.322  24.854  13.495  1.00  0.00     0.016 C 
HETATM   41  C   UNL     1       7.398  25.017  12.424  1.00  0.00     0.012 C 
HETATM   42  C   UNL     1       6.678  25.662  14.742  1.00  0.00     0.012 C 
ENDBRANCH  17  40
BRANCH  15  43
HETATM   43  C   UNL     1       7.604  20.006  10.919  1.00  0.00     0.010 C 
HETATM   44  C   UNL     1       7.882  18.524  11.159  1.00  0.00     0.012 C 
HETATM   45  C   UNL     1       7.755  20.350   9.441  1.00  0.00     0.012 C 
ENDBRANCH  15  43
TORSDOF 6
ENDMDL
MODEL 20
REMARK VINA RESULT:    -5.518      4.047      7.243
REMARK INTER + INTRA:          -6.231
REMARK INTER:                  -7.206
REMARK INTRA:                   0.974
REMARK UNBOUND:                 1.222
REMARK  6 active torsions:
REMARK  status: ('A' for Active; 'I' for Inactive)
REMARK    1  A    between atoms: C_13  and  C_16 
REMARK    2  A    between atoms: C_14  and  C_17 
REMARK    3  A    between atoms: C_15  and  C_18 
REMARK    4  A    between atoms: C_19  and  C_22 
REMARK    5  A    between atoms: C_20  and  C_23 
REMARK    6  A    between atoms: C_21  and  C_24 
ROOT
HETATM    1  O   UNL     1       7.147  20.542  13.910  1.00  0.00    -0.304 OA
HETATM    2  O   UNL     1       3.701  19.661  17.670  1.00  0.00    -0.304 OA
HETATM    3  O   UNL     1       4.661  16.032  14.795  1.00  0.00    -0.304 OA
HETATM    4  O   UNL     1       7.011  19.361  16.214  1.00  0.00    -0.270 OA
HETATM    5  O   UNL     1       7.625  17.142  14.377  1.00  0.00    -0.270 OA
HETATM    6  O   UNL     1       2.467  16.710  18.194  1.00  0.00    -0.270 OA
HETATM    7  O   UNL     1       4.968  20.054  13.331  1.00  0.00    -0.263 OA
HETATM    8  O   UNL     1       4.455  18.481  19.497  1.00  0.00    -0.263 OA
HETATM    9  O   UNL     1       3.549  14.084  14.300  1.00  0.00    -0.263 OA
HETATM   10  N   UNL     1       5.914  21.047  17.354  1.00  0.00    -0.340 N 
HETATM   11  N   UNL     1       6.133  17.553  12.648  1.00  0.00    -0.340 N 
HETATM   12  N   UNL     1       2.539  17.223  15.926  1.00  0.00    -0.340 N 
HETATM   13  C   UNL     1       5.856  20.213  18.573  1.00  0.00     0.190 C 
HETATM   14  C   UNL     1       6.813  18.825  12.327  1.00  0.00     0.190 C 
HETATM   15  C   UNL     1       2.377  15.811  15.519  1.00  0.00     0.190 C 
HETATM   16  C   UNL     1       6.717  21.397  14.992  1.00  0.00     0.227 C 
HETATM   17  C   UNL     1       2.402  19.045  17.640  1.00  0.00     0.227 C 
HETATM   18  C   UNL     1       5.852  15.555  14.141  1.00  0.00     0.227 C 
HETATM   19  C   UNL     1       6.559  20.511  16.231  1.00  0.00     0.250 C 
HETATM   20  C   UNL     1       6.620  16.812  13.740  1.00  0.00     0.250 C 
HETATM   21  C   UNL     1       2.481  17.552  17.291  1.00  0.00     0.250 C 
HETATM   22  C   UNL     1       6.174  19.873  13.223  1.00  0.00     0.283 C 
HETATM   23  C   UNL     1       4.606  19.338  18.633  1.00  0.00     0.283 C 
HETATM   24  C   UNL     1       3.576  15.208  14.791  1.00  0.00     0.283 C 
HETATM   25  C   UNL     1       5.260  22.359  17.391  1.00  0.00     0.153 C 
HETATM   26  C   UNL     1       4.977  17.169  11.832  1.00  0.00     0.153 C 
HETATM   27  C   UNL     1       2.574  18.233  14.866  1.00  0.00     0.153 C 
ENDROOT
BRANCH  16  28
HETATM   28  C   UNL     1       7.817  22.426  15.203  1.00  0.00     0.016 C 
HETATM   29  C   UNL     1       9.073  21.765  15.771  1.00  0.00     0.012 C 
HETATM   30  C   UNL     1       8.139  23.150  13.896  1.00  0.00     0.012 C 
ENDBRANCH  16  28
BRANCH  14  31
HETATM   31  C   UNL     1       6.749  19.267  10.871  1.00  0.00     0.010 C 
HETATM   32  C   UNL     1       7.079  20.753  10.746  1.00  0.00     0.012 C 
HETATM   33  C   UNL     1       7.698  18.433  10.014  1.00  0.00     0.012 C 
ENDBRANCH  14  31
BRANCH  13  34
HETATM   34  C   UNL     1       5.991  21.008  19.871  1.00  0.00     0.010 C 
HETATM   35  C   UNL     1       7.083  20.412  20.758  1.00  0.00     0.012 C 
HETATM   36  C   UNL     1       4.660  21.053  20.619  1.00  0.00     0.012 C 
ENDBRANCH  13  34
BRANCH  18  37
HETATM   37  C   UNL     1       6.643  14.702  15.129  1.00  0.00     0.016 C 
HETATM   38  C   UNL     1       6.157  14.943  16.559  1.00  0.00     0.012 C 
HETATM   39  C   UNL     1       6.537  13.221  14.771  1.00  0.00     0.012 C 
ENDBRANCH  18  37
BRANCH  17  40
HETATM   40  C   UNL     1       1.618  19.310  18.925  1.00  0.00     0.016 C 
HETATM   41  C   UNL     1       0.259  18.615  18.880  1.00  0.00     0.012 C 
HETATM   42  C   UNL     1       1.446  20.811  19.150  1.00  0.00     0.012 C 
ENDBRANCH  17  40
BRANCH  15  43
HETATM   43  C   UNL     1       1.100  15.612  14.701  1.00  0.00     0.010 C 
HETATM   44  C   UNL     1      -0.103  16.192  15.441  1.00  0.00     0.012 C 
HETATM   45  C   UNL     1       1.243  16.250  13.323  1.00  0.00     0.012 C 
ENDBRANCH  15  43
TORSDOF 6
ENDMDL
