MODEL 1
REMARK VINA RESULT:    -6.738      0.000      0.000
REMARK INTER + INTRA:          -7.962
REMARK INTER:                  -9.101
REMARK INTRA:                   1.139
REMARK UNBOUND:                 1.139
REMARK  6 active torsions:
REMARK  status: ('A' for Active; 'I' for Inactive)
REMARK    1  A    between atoms: C_13  and  C_16 
REMARK    2  A    between atoms: C_14  and  C_17 
REMARK    3  A    between atoms: C_15  and  C_18 
REMARK    4  A    between atoms: C_19  and  C_22 
REMARK    5  A    between atoms: C_20  and  C_23 
REMARK    6  A    between atoms: C_21  and  C_24 
ROOT
HETATM    1  O   UNL     1      32.686   3.706  -4.971  1.00  0.00    -0.304 OA
HETATM    2  O   UNL     1      33.553   8.342  -7.102  1.00  0.00    -0.304 OA
HETATM    3  O   UNL     1      34.563   4.571  -9.770  1.00  0.00    -0.304 OA
HETATM    4  O   UNL     1      31.611   5.301  -6.708  1.00  0.00    -0.270 OA
HETATM    5  O   UNL     1      32.250   2.919  -8.316  1.00  0.00    -0.270 OA
HETATM    6  O   UNL     1      34.483   8.650 -10.191  1.00  0.00    -0.270 OA
HETATM    7  O   UNL     1      34.851   4.302  -5.497  1.00  0.00    -0.263 OA
HETATM    8  O   UNL     1      31.997   9.074  -8.633  1.00  0.00    -0.263 OA
HETATM    9  O   UNL     1      35.887   4.268 -11.622  1.00  0.00    -0.263 OA
HETATM   10  N   UNL     1      31.792   7.252  -5.480  1.00  0.00    -0.340 N 
HETATM   11  N   UNL     1      34.416   2.463  -7.620  1.00  0.00    -0.340 N 
HETATM   12  N   UNL     1      35.635   6.941  -9.112  1.00  0.00    -0.340 N 
HETATM   13  C   UNL     1      31.225   8.033  -6.599  1.00  0.00     0.190 C 
HETATM   14  C   UNL     1      33.943   2.173  -6.250  1.00  0.00     0.190 C 
HETATM   15  C   UNL     1      36.084   6.332 -10.381  1.00  0.00     0.190 C 
HETATM   16  C   UNL     1      32.396   5.027  -4.465  1.00  0.00     0.227 C 
HETATM   17  C   UNL     1      34.691   8.862  -7.808  1.00  0.00     0.227 C 
HETATM   18  C   UNL     1      33.960   3.276  -9.950  1.00  0.00     0.227 C 
HETATM   19  C   UNL     1      31.905   5.865  -5.648  1.00  0.00     0.250 C 
HETATM   20  C   UNL     1      33.459   2.870  -8.566  1.00  0.00     0.250 C 
HETATM   21  C   UNL     1      34.912   8.147  -9.149  1.00  0.00     0.250 C 
HETATM   22  C   UNL     1      33.917   3.511  -5.530  1.00  0.00     0.283 C 
HETATM   23  C   UNL     1      32.290   8.530  -7.574  1.00  0.00     0.283 C 
HETATM   24  C   UNL     1      35.522   4.941 -10.663  1.00  0.00     0.283 C 
HETATM   25  C   UNL     1      32.231   7.984  -4.288  1.00  0.00     0.153 C 
HETATM   26  C   UNL     1      35.852   2.341  -7.889  1.00  0.00     0.153 C 
HETATM   27  C   UNL     1      36.122   6.346  -7.866  1.00  0.00     0.153 C 
ENDROOT
BRANCH  16  28
HETATM   28  C   UNL     1      31.296   4.868  -3.425  1.00  0.00     0.016 C 
HETATM   29  C   UNL     1      30.543   3.555  -3.632  1.00  0.00     0.012 C 
HETATM   30  C   UNL     1      31.875   4.935  -2.012  1.00  0.00     0.012 C 
ENDBRANCH  16  28
BRANCH  14  31
HETATM   31  C   UNL     1      34.767   1.166  -5.458  1.00  0.00     0.010 C 
HETATM   32  C   UNL     1      35.434   1.840  -4.261  1.00  0.00     0.012 C 
HETATM   33  C   UNL     1      33.895   0.000  -5.000  1.00  0.00     0.012 C 
ENDBRANCH  14  31
BRANCH  13  34
HETATM   34  C   UNL     1      30.349   9.204  -6.153  1.00  0.00     0.010 C 
HETATM   35  C   UNL     1      29.137   9.352  -7.072  1.00  0.00     0.012 C 
HETATM   36  C   UNL     1      31.155  10.500  -6.119  1.00  0.00     0.012 C 
ENDBRANCH  13  34
BRANCH  18  37
HETATM   37  C   UNL     1      32.813   3.407 -10.949  1.00  0.00     0.016 C 
HETATM   38  C   UNL     1      32.577   4.873 -11.309  1.00  0.00     0.012 C 
HETATM   39  C   UNL     1      33.095   2.586 -12.206  1.00  0.00     0.012 C 
ENDBRANCH  18  37
BRANCH  17  40
HETATM   40  C   UNL     1      34.622  10.383  -7.955  1.00  0.00     0.016 C 
HETATM   41  C   UNL     1      35.800  10.897  -8.780  1.00  0.00     0.012 C 
HETATM   42  C   UNL     1      34.592  11.054  -6.584  1.00  0.00     0.012 C 
ENDBRANCH  17  40
BRANCH  15  43
HETATM   43  C   UNL     1      37.610   6.324 -10.483  1.00  0.00     0.010 C 
HETATM   44  C   UNL     1      38.155   4.923 -10.221  1.00  0.00     0.012 C 
HETATM   45  C   UNL     1      38.056   6.828 -11.853  1.00  0.00     0.012 C 
ENDBRANCH  15  43
TORSDOF 6
ENDMDL
MODEL 2
REMARK VINA RESULT:    -6.263      1.849      6.448
REMARK INTER + INTRA:          -7.321
REMARK INTER:                  -8.322
REMARK INTRA:                   1.001
REMARK UNBOUND:                 1.139
REMARK  6 active torsions:
REMARK  status: ('A' for Active; 'I' for Inactive)
REMARK    1  A    between atoms: C_13  and  C_16 
REMARK    2  A    between atoms: C_14  and  C_17 
REMARK    3  A    between atoms: C_15  and  C_18 
REMARK    4  A    between atoms: C_19  and  C_22 
REMARK    5  A    between atoms: C_20  and  C_23 
REMARK    6  A    between atoms: C_21  and  C_24 
ROOT
HETATM    1  O   UNL     1      32.392   6.588  -4.999  1.00  0.00    -0.304 OA
HETATM    2  O   UNL     1      33.942   2.640  -7.965  1.00  0.00    -0.304 OA
HETATM    3  O   UNL     1      35.535   6.929  -9.159  1.00  0.00    -0.304 OA
HETATM    4  O   UNL     1      34.497   5.125  -5.379  1.00  0.00    -0.270 OA
HETATM    5  O   UNL     1      35.438   7.822  -6.095  1.00  0.00    -0.270 OA
HETATM    6  O   UNL     1      36.101   3.045 -10.348  1.00  0.00    -0.270 OA
HETATM    7  O   UNL     1      31.734   6.530  -7.209  1.00  0.00    -0.263 OA
HETATM    8  O   UNL     1      36.088   1.880  -7.622  1.00  0.00    -0.263 OA
HETATM    9  O   UNL     1      36.410   7.795 -11.098  1.00  0.00    -0.263 OA
HETATM   10  N   UNL     1      33.435   3.071  -5.420  1.00  0.00    -0.340 N 
HETATM   11  N   UNL     1      33.695   8.576  -7.429  1.00  0.00    -0.340 N 
HETATM   12  N   UNL     1      34.511   4.743 -10.329  1.00  0.00    -0.340 N 
HETATM   13  C   UNL     1      34.717   2.392  -5.705  1.00  0.00     0.190 C 
HETATM   14  C   UNL     1      32.763   8.532  -6.284  1.00  0.00     0.190 C 
HETATM   15  C   UNL     1      35.333   5.633 -11.176  1.00  0.00     0.190 C 
HETATM   16  C   UNL     1      32.165   5.170  -4.846  1.00  0.00     0.227 C 
HETATM   17  C   UNL     1      33.971   2.482  -9.393  1.00  0.00     0.227 C 
HETATM   18  C   UNL     1      35.952   8.090  -8.415  1.00  0.00     0.227 C 
HETATM   19  C   UNL     1      33.464   4.461  -5.241  1.00  0.00     0.250 C 
HETATM   20  C   UNL     1      35.017   8.150  -7.209  1.00  0.00     0.250 C 
HETATM   21  C   UNL     1      34.969   3.442 -10.058  1.00  0.00     0.250 C 
HETATM   22  C   UNL     1      32.218   7.114  -6.248  1.00  0.00     0.283 C 
HETATM   23  C   UNL     1      35.011   2.287  -7.200  1.00  0.00     0.283 C 
HETATM   24  C   UNL     1      35.811   6.912 -10.492  1.00  0.00     0.283 C 
HETATM   25  C   UNL     1      32.220   2.252  -5.381  1.00  0.00     0.153 C 
HETATM   26  C   UNL     1      33.170   9.024  -8.722  1.00  0.00     0.153 C 
HETATM   27  C   UNL     1      33.171   5.206  -9.963  1.00  0.00     0.153 C 
ENDROOT
BRANCH  16  28
HETATM   28  C   UNL     1      31.847   4.930  -3.378  1.00  0.00     0.016 C 
HETATM   29  C   UNL     1      31.927   6.236  -2.589  1.00  0.00     0.012 C 
HETATM   30  C   UNL     1      30.466   4.295  -3.221  1.00  0.00     0.012 C 
ENDBRANCH  16  28
BRANCH  14  31
HETATM   31  C   UNL     1      31.618   9.536  -6.316  1.00  0.00     0.010 C 
HETATM   32  C   UNL     1      30.403   8.989  -5.568  1.00  0.00     0.012 C 
HETATM   33  C   UNL     1      32.057  10.871  -5.720  1.00  0.00     0.012 C 
ENDBRANCH  14  31
BRANCH  13  34
HETATM   34  C   UNL     1      34.841   1.013  -5.058  1.00  0.00     0.010 C 
HETATM   35  C   UNL     1      35.710   1.083  -3.803  1.00  0.00     0.012 C 
HETATM   36  C   UNL     1      35.413   0.000  -6.048  1.00  0.00     0.012 C 
ENDBRANCH  13  34
BRANCH  18  37
HETATM   37  C   UNL     1      37.407   7.904  -7.993  1.00  0.00     0.016 C 
HETATM   38  C   UNL     1      37.863   6.468  -8.252  1.00  0.00     0.012 C 
HETATM   39  C   UNL     1      38.312   8.893  -8.723  1.00  0.00     0.012 C 
ENDBRANCH  18  37
BRANCH  17  40
HETATM   40  C   UNL     1      34.194   1.025  -9.799  1.00  0.00     0.016 C 
HETATM   41  C   UNL     1      34.055   0.860 -11.311  1.00  0.00     0.012 C 
HETATM   42  C   UNL     1      33.216   0.108  -9.067  1.00  0.00     0.012 C 
ENDBRANCH  17  40
BRANCH  15  43
HETATM   43  C   UNL     1      34.624   5.961 -12.490  1.00  0.00     0.010 C 
HETATM   44  C   UNL     1      33.922   7.313 -12.395  1.00  0.00     0.012 C 
HETATM   45  C   UNL     1      35.616   5.950 -13.649  1.00  0.00     0.012 C 
ENDBRANCH  15  43
TORSDOF 6
ENDMDL
MODEL 3
REMARK VINA RESULT:    -6.036      1.954      4.369
REMARK INTER + INTRA:          -7.014
REMARK INTER:                  -7.730
REMARK INTRA:                   0.716
REMARK UNBOUND:                 1.139
REMARK  6 active torsions:
REMARK  status: ('A' for Active; 'I' for Inactive)
REMARK    1  A    between atoms: C_13  and  C_16 
REMARK    2  A    between atoms: C_14  and  C_17 
REMARK    3  A    between atoms: C_15  and  C_18 
REMARK    4  A    between atoms: C_19  and  C_22 
REMARK    5  A    between atoms: C_20  and  C_23 
REMARK    6  A    between atoms: C_21  and  C_24 
ROOT
HETATM    1  O   UNL     1      32.290   7.583  -6.260  1.00  0.00    -0.304 OA
HETATM    2  O   UNL     1      35.966   7.996  -9.878  1.00  0.00    -0.304 OA
HETATM    3  O   UNL     1      34.701   3.610  -8.647  1.00  0.00    -0.304 OA
HETATM    4  O   UNL     1      32.554   7.348  -8.828  1.00  0.00    -0.270 OA
HETATM    5  O   UNL     1      31.748   4.638  -8.003  1.00  0.00    -0.270 OA
HETATM    6  O   UNL     1      37.148   5.396 -11.412  1.00  0.00    -0.270 OA
HETATM    7  O   UNL     1      34.407   6.798  -5.790  1.00  0.00    -0.263 OA
HETATM    8  O   UNL     1      35.309   7.631 -12.055  1.00  0.00    -0.263 OA
HETATM    9  O   UNL     1      35.719   1.563  -8.865  1.00  0.00    -0.263 OA
HETATM   10  N   UNL     1      33.777   9.278  -9.184  1.00  0.00    -0.340 N 
HETATM   11  N   UNL     1      33.125   4.289  -6.168  1.00  0.00    -0.340 N 
HETATM   12  N   UNL     1      36.931   5.023  -9.125  1.00  0.00    -0.340 N 
HETATM   13  C   UNL     1      33.896   8.961 -10.622  1.00  0.00     0.190 C 
HETATM   14  C   UNL     1      32.461   5.382  -5.428  1.00  0.00     0.190 C 
HETATM   15  C   UNL     1      37.024   3.556  -9.274  1.00  0.00     0.190 C 
HETATM   16  C   UNL     1      32.819   8.757  -6.912  1.00  0.00     0.227 C 
HETATM   17  C   UNL     1      37.241   7.346 -10.013  1.00  0.00     0.227 C 
HETATM   18  C   UNL     1      33.454   2.986  -8.288  1.00  0.00     0.227 C 
HETATM   19  C   UNL     1      33.039   8.395  -8.384  1.00  0.00     0.250 C 
HETATM   20  C   UNL     1      32.695   4.039  -7.484  1.00  0.00     0.250 C 
HETATM   21  C   UNL     1      37.095   5.837 -10.260  1.00  0.00     0.250 C 
HETATM   22  C   UNL     1      33.192   6.654  -5.824  1.00  0.00     0.283 C 
HETATM   23  C   UNL     1      35.122   8.107 -10.940  1.00  0.00     0.283 C 
HETATM   24  C   UNL     1      35.759   2.788  -8.895  1.00  0.00     0.283 C 
HETATM   25  C   UNL     1      34.469  10.471  -8.686  1.00  0.00     0.153 C 
HETATM   26  C   UNL     1      34.209   3.566  -5.495  1.00  0.00     0.153 C 
HETATM   27  C   UNL     1      36.850   5.562  -7.766  1.00  0.00     0.153 C 
ENDROOT
BRANCH  16  28
HETATM   28  C   UNL     1      31.767   9.848  -6.778  1.00  0.00     0.016 C 
HETATM   29  C   UNL     1      30.409   9.246  -6.417  1.00  0.00     0.012 C 
HETATM   30  C   UNL     1      32.188  10.881  -5.734  1.00  0.00     0.012 C 
ENDBRANCH  16  28
BRANCH  14  31
HETATM   31  C   UNL     1      32.435   5.241  -3.911  1.00  0.00     0.010 C 
HETATM   32  C   UNL     1      32.269   6.607  -3.248  1.00  0.00     0.012 C 
HETATM   33  C   UNL     1      31.316   4.296  -3.478  1.00  0.00     0.012 C 
ENDBRANCH  14  31
BRANCH  13  34
HETATM   34  C   UNL     1      33.877  10.191 -11.529  1.00  0.00     0.010 C 
HETATM   35  C   UNL     1      32.945   9.969 -12.719  1.00  0.00     0.012 C 
HETATM   36  C   UNL     1      35.286  10.531 -12.009  1.00  0.00     0.012 C 
ENDBRANCH  13  34
BRANCH  18  37
HETATM   37  C   UNL     1      32.710   2.610  -9.567  1.00  0.00     0.016 C 
HETATM   38  C   UNL     1      33.312   3.333 -10.772  1.00  0.00     0.012 C 
HETATM   39  C   UNL     1      32.736   1.098  -9.783  1.00  0.00     0.012 C 
ENDBRANCH  18  37
BRANCH  17  40
HETATM   40  C   UNL     1      38.121   8.032 -11.058  1.00  0.00     0.016 C 
HETATM   41  C   UNL     1      39.436   7.275 -11.234  1.00  0.00     0.012 C 
HETATM   42  C   UNL     1      38.386   9.485 -10.667  1.00  0.00     0.012 C 
ENDBRANCH  17  40
BRANCH  15  43
HETATM   43  C   UNL     1      38.234   2.996  -8.524  1.00  0.00     0.010 C 
HETATM   44  C   UNL     1      37.794   2.335  -7.220  1.00  0.00     0.012 C 
HETATM   45  C   UNL     1      38.994   2.006  -9.401  1.00  0.00     0.012 C 
ENDBRANCH  15  43
TORSDOF 6
ENDMDL
MODEL 4
REMARK VINA RESULT:    -5.978      2.307      6.523
REMARK INTER + INTRA:          -6.935
REMARK INTER:                  -8.082
REMARK INTRA:                   1.146
REMARK UNBOUND:                 1.139
REMARK  6 active torsions:
REMARK  status: ('A' for Active; 'I' for Inactive)
REMARK    1  A    between atoms: C_13  and  C_16 
REMARK    2  A    between atoms: C_14  and  C_17 
REMARK    3  A    between atoms: C_15  and  C_18 
REMARK    4  A    between atoms: C_19  and  C_22 
REMARK    5  A    between atoms: C_20  and  C_23 
REMARK    6  A    between atoms: C_21  and  C_24 
ROOT
HETATM    1  O   UNL     1      37.047   5.680  -9.793  1.00  0.00    -0.304 OA
HETATM    2  O   UNL     1      35.704   9.858  -7.050  1.00  0.00    -0.304 OA
HETATM    3  O   UNL     1      32.555   6.334  -7.205  1.00  0.00    -0.304 OA
HETATM    4  O   UNL     1      36.867   6.431  -7.319  1.00  0.00    -0.270 OA
HETATM    5  O   UNL     1      34.931   4.218  -7.472  1.00  0.00    -0.270 OA
HETATM    6  O   UNL     1      32.970   9.949  -5.312  1.00  0.00    -0.270 OA
HETATM    7  O   UNL     1      35.246   6.939 -10.493  1.00  0.00    -0.263 OA
HETATM    8  O   UNL     1      35.870   9.679  -4.761  1.00  0.00    -0.263 OA
HETATM    9  O   UNL     1      30.296   6.230  -6.807  1.00  0.00    -0.263 OA
HETATM   10  N   UNL     1      37.894   8.490  -7.553  1.00  0.00    -0.340 N 
HETATM   11  N   UNL     1      33.802   4.731  -9.433  1.00  0.00    -0.340 N 
HETATM   12  N   UNL     1      32.624   9.008  -7.411  1.00  0.00    -0.340 N 
HETATM   13  C   UNL     1      37.650   8.796  -6.127  1.00  0.00     0.190 C 
HETATM   14  C   UNL     1      35.032   4.530 -10.226  1.00  0.00     0.190 C 
HETATM   15  C   UNL     1      31.337   8.401  -7.017  1.00  0.00     0.190 C 
HETATM   16  C   UNL     1      37.810   6.864  -9.475  1.00  0.00     0.227 C 
HETATM   17  C   UNL     1      34.494  10.634  -7.036  1.00  0.00     0.227 C 
HETATM   18  C   UNL     1      32.653   4.897  -7.208  1.00  0.00     0.227 C 
HETATM   19  C   UNL     1      37.478   7.239  -8.028  1.00  0.00     0.250 C 
HETATM   20  C   UNL     1      33.895   4.581  -8.038  1.00  0.00     0.250 C 
HETATM   21  C   UNL     1      33.302   9.831  -6.495  1.00  0.00     0.250 C 
HETATM   22  C   UNL     1      35.758   5.864 -10.210  1.00  0.00     0.283 C 
HETATM   23  C   UNL     1      36.304   9.477  -5.890  1.00  0.00     0.283 C 
HETATM   24  C   UNL     1      31.320   6.874  -7.009  1.00  0.00     0.283 C 
HETATM   25  C   UNL     1      38.518   9.528  -8.379  1.00  0.00     0.153 C 
HETATM   26  C   UNL     1      32.580   5.109 -10.150  1.00  0.00     0.153 C 
HETATM   27  C   UNL     1      33.041   8.864  -8.808  1.00  0.00     0.153 C 
ENDROOT
BRANCH  16  28
HETATM   28  C   UNL     1      39.279   6.490  -9.610  1.00  0.00     0.016 C 
HETATM   29  C   UNL     1      39.464   4.978  -9.484  1.00  0.00     0.012 C 
HETATM   30  C   UNL     1      39.844   6.988 -10.940  1.00  0.00     0.012 C 
ENDBRANCH  16  28
BRANCH  14  31
HETATM   31  C   UNL     1      34.833   4.056 -11.660  1.00  0.00     0.010 C 
HETATM   32  C   UNL     1      36.058   4.385 -12.510  1.00  0.00     0.012 C 
HETATM   33  C   UNL     1      34.542   2.558 -11.696  1.00  0.00     0.012 C 
ENDBRANCH  14  31
BRANCH  13  34
HETATM   34  C   UNL     1      38.763   9.614  -5.474  1.00  0.00     0.010 C 
HETATM   35  C   UNL     1      39.236   8.946  -4.183  1.00  0.00     0.012 C 
HETATM   36  C   UNL     1      38.295  11.041  -5.197  1.00  0.00     0.012 C 
ENDBRANCH  13  34
BRANCH  18  37
HETATM   37  C   UNL     1      32.799   4.415  -5.767  1.00  0.00     0.016 C 
HETATM   38  C   UNL     1      33.017   5.597  -4.823  1.00  0.00     0.012 C 
HETATM   39  C   UNL     1      31.576   3.607  -5.341  1.00  0.00     0.012 C 
ENDBRANCH  18  37
BRANCH  17  40
HETATM   40  C   UNL     1      34.683  11.968  -6.314  1.00  0.00     0.016 C 
HETATM   41  C   UNL     1      33.396  12.788  -6.353  1.00  0.00     0.012 C 
HETATM   42  C   UNL     1      35.839  12.753  -6.931  1.00  0.00     0.012 C 
ENDBRANCH  17  40
BRANCH  15  43
HETATM   43  C   UNL     1      30.183   8.944  -7.861  1.00  0.00     0.010 C 
HETATM   44  C   UNL     1      29.100   9.540  -6.965  1.00  0.00     0.012 C 
HETATM   45  C   UNL     1      30.693   9.985  -8.854  1.00  0.00     0.012 C 
ENDBRANCH  15  43
TORSDOF 6
ENDMDL
MODEL 5
REMARK VINA RESULT:    -5.676      2.392      8.186
REMARK INTER + INTRA:          -6.528
REMARK INTER:                  -7.927
REMARK INTRA:                   1.399
REMARK UNBOUND:                 1.139
REMARK  6 active torsions:
REMARK  status: ('A' for Active; 'I' for Inactive)
REMARK    1  A    between atoms: C_13  and  C_16 
REMARK    2  A    between atoms: C_14  and  C_17 
REMARK    3  A    between atoms: C_15  and  C_18 
REMARK    4  A    between atoms: C_19  and  C_22 
REMARK    5  A    between atoms: C_20  and  C_23 
REMARK    6  A    between atoms: C_21  and  C_24 
ROOT
HETATM    1  O   UNL     1      35.722  11.528  -9.484  1.00  0.00    -0.304 OA
HETATM    2  O   UNL     1      35.075   6.532 -10.670  1.00  0.00    -0.304 OA
HETATM    3  O   UNL     1      32.528   8.187  -7.047  1.00  0.00    -0.304 OA
HETATM    4  O   UNL     1      34.002   9.998 -10.676  1.00  0.00    -0.270 OA
HETATM    5  O   UNL     1      32.460  11.074  -8.410  1.00  0.00    -0.270 OA
HETATM    6  O   UNL     1      32.849   4.702  -9.186  1.00  0.00    -0.270 OA
HETATM    7  O   UNL     1      36.345   9.928  -7.944  1.00  0.00    -0.263 OA
HETATM    8  O   UNL     1      33.165   5.993 -11.836  1.00  0.00    -0.263 OA
HETATM    9  O   UNL     1      31.452   7.171  -5.291  1.00  0.00    -0.263 OA
HETATM   10  N   UNL     1      35.505   8.788 -11.951  1.00  0.00    -0.340 N 
HETATM   11  N   UNL     1      33.965  10.809  -6.664  1.00  0.00    -0.340 N 
HETATM   12  N   UNL     1      34.009   6.040  -7.677  1.00  0.00    -0.340 N 
HETATM   13  C   UNL     1      34.409   7.954 -12.487  1.00  0.00     0.190 C 
HETATM   14  C   UNL     1      34.898  11.771  -7.287  1.00  0.00     0.190 C 
HETATM   15  C   UNL     1      32.994   5.866  -6.618  1.00  0.00     0.190 C 
HETATM   16  C   UNL     1      36.269  10.756 -10.576  1.00  0.00     0.227 C 
HETATM   17  C   UNL     1      35.064   5.355  -9.844  1.00  0.00     0.227 C 
HETATM   18  C   UNL     1      31.867   9.436  -6.770  1.00  0.00     0.227 C 
HETATM   19  C   UNL     1      35.162   9.818 -11.064  1.00  0.00     0.250 C 
HETATM   20  C   UNL     1      32.778  10.511  -7.357  1.00  0.00     0.250 C 
HETATM   21  C   UNL     1      33.865   5.337  -8.886  1.00  0.00     0.250 C 
HETATM   22  C   UNL     1      35.754  10.957  -8.243  1.00  0.00     0.283 C 
HETATM   23  C   UNL     1      34.127   6.724 -11.626  1.00  0.00     0.283 C 
HETATM   24  C   UNL     1      32.245   7.138  -6.226  1.00  0.00     0.283 C 
HETATM   25  C   UNL     1      36.876   8.460 -12.354  1.00  0.00     0.153 C 
HETATM   26  C   UNL     1      34.357  10.205  -5.387  1.00  0.00     0.153 C 
HETATM   27  C   UNL     1      35.212   6.805  -7.342  1.00  0.00     0.153 C 
ENDROOT
BRANCH  16  28
HETATM   28  C   UNL     1      36.653  11.747 -11.665  1.00  0.00     0.016 C 
HETATM   29  C   UNL     1      35.603  12.850 -11.787  1.00  0.00     0.012 C 
HETATM   30  C   UNL     1      38.030  12.349 -11.387  1.00  0.00     0.012 C 
ENDBRANCH  16  28
BRANCH  14  31
HETATM   31  C   UNL     1      35.783  12.559  -6.329  1.00  0.00     0.010 C 
HETATM   32  C   UNL     1      37.012  13.101  -7.056  1.00  0.00     0.012 C 
HETATM   33  C   UNL     1      34.996  13.698  -5.685  1.00  0.00     0.012 C 
ENDBRANCH  14  31
BRANCH  13  34
HETATM   34  C   UNL     1      34.612   7.529 -13.941  1.00  0.00     0.010 C 
HETATM   35  C   UNL     1      35.770   6.537 -14.056  1.00  0.00     0.012 C 
HETATM   36  C   UNL     1      34.860   8.745 -14.831  1.00  0.00     0.012 C 
ENDBRANCH  13  34
BRANCH  18  37
HETATM   37  C   UNL     1      30.499   9.426  -7.448  1.00  0.00     0.016 C 
HETATM   38  C   UNL     1      30.433   8.330  -8.512  1.00  0.00     0.012 C 
HETATM   39  C   UNL     1      29.387   9.238  -6.418  1.00  0.00     0.012 C 
ENDBRANCH  18  37
BRANCH  17  40
HETATM   40  C   UNL     1      35.175   4.077 -10.675  1.00  0.00     0.016 C 
HETATM   41  C   UNL     1      35.178   2.846  -9.771  1.00  0.00     0.012 C 
HETATM   42  C   UNL     1      36.432   4.108 -11.543  1.00  0.00     0.012 C 
ENDBRANCH  17  40
BRANCH  15  43
HETATM   43  C   UNL     1      33.591   5.194  -5.381  1.00  0.00     0.010 C 
HETATM   44  C   UNL     1      32.493   4.851  -4.377  1.00  0.00     0.012 C 
HETATM   45  C   UNL     1      34.370   3.943  -5.777  1.00  0.00     0.012 C 
ENDBRANCH  15  43
TORSDOF 6
ENDMDL
MODEL 6
REMARK VINA RESULT:    -5.631     19.730     23.471
REMARK INTER + INTRA:          -6.468
REMARK INTER:                  -7.256
REMARK INTRA:                   0.788
REMARK UNBOUND:                 1.139
REMARK  6 active torsions:
REMARK  status: ('A' for Active; 'I' for Inactive)
REMARK    1  A    between atoms: C_13  and  C_16 
REMARK    2  A    between atoms: C_14  and  C_17 
REMARK    3  A    between atoms: C_15  and  C_18 
REMARK    4  A    between atoms: C_19  and  C_22 
REMARK    5  A    between atoms: C_20  and  C_23 
REMARK    6  A    between atoms: C_21  and  C_24 
ROOT
HETATM    1  O   UNL     1      31.856  25.754  -0.441  1.00  0.00    -0.304 OA
HETATM    2  O   UNL     1      28.713  25.181   3.631  1.00  0.00    -0.304 OA
HETATM    3  O   UNL     1      26.692  26.551  -0.417  1.00  0.00    -0.304 OA
HETATM    4  O   UNL     1      30.108  24.070   0.471  1.00  0.00    -0.270 OA
HETATM    5  O   UNL     1      28.905  24.949  -2.069  1.00  0.00    -0.270 OA
HETATM    6  O   UNL     1      25.497  25.483   3.358  1.00  0.00    -0.270 OA
HETATM    7  O   UNL     1      30.770  27.608   0.397  1.00  0.00    -0.263 OA
HETATM    8  O   UNL     1      27.437  23.265   3.681  1.00  0.00    -0.263 OA
HETATM    9  O   UNL     1      24.697  27.578  -0.907  1.00  0.00    -0.263 OA
HETATM   10  N   UNL     1      30.858  24.010   2.658  1.00  0.00    -0.340 N 
HETATM   11  N   UNL     1      29.197  27.248  -1.943  1.00  0.00    -0.340 N 
HETATM   12  N   UNL     1      26.622  27.156   2.196  1.00  0.00    -0.340 N 
HETATM   13  C   UNL     1      29.754  23.101   3.032  1.00  0.00     0.190 C 
HETATM   14  C   UNL     1      30.666  27.090  -1.978  1.00  0.00     0.190 C 
HETATM   15  C   UNL     1      25.432  27.511   1.394  1.00  0.00     0.190 C 
HETATM   16  C   UNL     1      32.140  25.262   0.887  1.00  0.00     0.227 C 
HETATM   17  C   UNL     1      27.690  26.037   4.167  1.00  0.00     0.227 C 
HETATM   18  C   UNL     1      26.905  26.234  -1.806  1.00  0.00     0.227 C 
HETATM   19  C   UNL     1      30.948  24.403   1.315  1.00  0.00     0.250 C 
HETATM   20  C   UNL     1      28.417  26.078  -1.954  1.00  0.00     0.250 C 
HETATM   21  C   UNL     1      26.502  26.184   3.205  1.00  0.00     0.250 C 
HETATM   22  C   UNL     1      31.095  26.885  -0.535  1.00  0.00     0.283 C 
HETATM   23  C   UNL     1      28.495  23.848   3.468  1.00  0.00     0.283 C 
HETATM   24  C   UNL     1      25.558  27.237  -0.103  1.00  0.00     0.283 C 
HETATM   25  C   UNL     1      31.759  24.468   3.720  1.00  0.00     0.153 C 
HETATM   26  C   UNL     1      28.656  28.608  -1.861  1.00  0.00     0.153 C 
HETATM   27  C   UNL     1      27.827  27.967   2.014  1.00  0.00     0.153 C 
ENDROOT
BRANCH  16  28
HETATM   28  C   UNL     1      33.402  24.418   0.784  1.00  0.00     0.016 C 
HETATM   29  C   UNL     1      33.654  24.001  -0.665  1.00  0.00     0.012 C 
HETATM   30  C   UNL     1      34.607  25.177   1.338  1.00  0.00     0.012 C 
ENDBRANCH  16  28
BRANCH  14  31
HETATM   31  C   UNL     1      31.446  28.241  -2.600  1.00  0.00     0.010 C 
HETATM   32  C   UNL     1      32.895  28.230  -2.119  1.00  0.00     0.012 C 
HETATM   33  C   UNL     1      31.387  28.169  -4.124  1.00  0.00     0.012 C 
ENDBRANCH  14  31
BRANCH  13  34
HETATM   34  C   UNL     1      30.137  22.072   4.096  1.00  0.00     0.010 C 
HETATM   35  C   UNL     1      29.839  20.655   3.607  1.00  0.00     0.012 C 
HETATM   36  C   UNL     1      29.404  22.350   5.406  1.00  0.00     0.012 C 
ENDBRANCH  13  34
BRANCH  18  37
HETATM   37  C   UNL     1      26.170  24.936  -2.129  1.00  0.00     0.016 C 
HETATM   38  C   UNL     1      25.485  24.380  -0.880  1.00  0.00     0.012 C 
HETATM   39  C   UNL     1      25.151  25.154  -3.245  1.00  0.00     0.012 C 
ENDBRANCH  18  37
BRANCH  17  40
HETATM   40  C   UNL     1      27.263  25.603   5.569  1.00  0.00     0.016 C 
HETATM   41  C   UNL     1      26.157  26.512   6.100  1.00  0.00     0.012 C 
HETATM   42  C   UNL     1      28.459  25.601   6.519  1.00  0.00     0.012 C 
ENDBRANCH  17  40
BRANCH  15  43
HETATM   43  C   UNL     1      25.008  28.959   1.640  1.00  0.00     0.010 C 
HETATM   44  C   UNL     1      25.533  29.865   0.529  1.00  0.00     0.012 C 
HETATM   45  C   UNL     1      23.489  29.060   1.745  1.00  0.00     0.012 C 
ENDBRANCH  15  43
TORSDOF 6
ENDMDL
MODEL 7
REMARK VINA RESULT:    -5.459      2.002      6.455
REMARK INTER + INTRA:          -6.234
REMARK INTER:                  -7.342
REMARK INTRA:                   1.108
REMARK UNBOUND:                 1.139
REMARK  6 active torsions:
REMARK  status: ('A' for Active; 'I' for Inactive)
REMARK    1  A    between atoms: C_13  and  C_16 
REMARK    2  A    between atoms: C_14  and  C_17 
REMARK    3  A    between atoms: C_15  and  C_18 
REMARK    4  A    between atoms: C_19  and  C_22 
REMARK    5  A    between atoms: C_20  and  C_23 
REMARK    6  A    between atoms: C_21  and  C_24 
ROOT
HETATM    1  O   UNL     1      33.147   8.523  -9.544  1.00  0.00    -0.304 OA
HETATM    2  O   UNL     1      32.801   4.421  -6.408  1.00  0.00    -0.304 OA
HETATM    3  O   UNL     1      36.598   4.613  -9.219  1.00  0.00    -0.304 OA
HETATM    4  O   UNL     1      34.179   7.648  -7.333  1.00  0.00    -0.270 OA
HETATM    5  O   UNL     1      36.510   7.803  -9.125  1.00  0.00    -0.270 OA
HETATM    6  O   UNL     1      35.188   2.238  -6.187  1.00  0.00    -0.270 OA
HETATM    7  O   UNL     1      32.917   6.426 -10.476  1.00  0.00    -0.263 OA
HETATM    8  O   UNL     1      34.128   4.453  -4.526  1.00  0.00    -0.263 OA
HETATM    9  O   UNL     1      38.092   3.030  -9.950  1.00  0.00    -0.263 OA
HETATM   10  N   UNL     1      32.208   6.982  -6.322  1.00  0.00    -0.340 N 
HETATM   11  N   UNL     1      35.672   6.820 -11.053  1.00  0.00    -0.340 N 
HETATM   12  N   UNL     1      34.767   2.834  -8.397  1.00  0.00    -0.340 N 
HETATM   13  C   UNL     1      32.958   6.465  -5.157  1.00  0.00     0.190 C 
HETATM   14  C   UNL     1      34.694   7.914 -11.218  1.00  0.00     0.190 C 
HETATM   15  C   UNL     1      36.057   2.294  -8.873  1.00  0.00     0.190 C 
HETATM   16  C   UNL     1      32.180   8.223  -8.514  1.00  0.00     0.227 C 
HETATM   17  C   UNL     1      32.966   3.015  -6.663  1.00  0.00     0.227 C 
HETATM   18  C   UNL     1      37.446   5.677  -9.693  1.00  0.00     0.227 C 
HETATM   19  C   UNL     1      32.944   7.592  -7.347  1.00  0.00     0.250 C 
HETATM   20  C   UNL     1      36.511   6.862  -9.925  1.00  0.00     0.250 C 
HETATM   21  C   UNL     1      34.412   2.666  -7.047  1.00  0.00     0.250 C 
HETATM   22  C   UNL     1      33.479   7.511 -10.399  1.00  0.00     0.283 C 
HETATM   23  C   UNL     1      33.382   5.007  -5.326  1.00  0.00     0.283 C 
HETATM   24  C   UNL     1      37.028   3.337  -9.423  1.00  0.00     0.283 C 
HETATM   25  C   UNL     1      30.756   6.787  -6.343  1.00  0.00     0.153 C 
HETATM   26  C   UNL     1      35.678   5.749 -12.054  1.00  0.00     0.153 C 
HETATM   27  C   UNL     1      33.841   3.360  -9.402  1.00  0.00     0.153 C 
ENDROOT
BRANCH  16  28
HETATM   28  C   UNL     1      31.556   9.546  -8.097  1.00  0.00     0.016 C 
HETATM   29  C   UNL     1      32.610  10.653  -8.064  1.00  0.00     0.012 C 
HETATM   30  C   UNL     1      30.412   9.925  -9.036  1.00  0.00     0.012 C 
ENDBRANCH  16  28
BRANCH  14  31
HETATM   31  C   UNL     1      34.281   8.230 -12.650  1.00  0.00     0.010 C 
HETATM   32  C   UNL     1      33.026   9.101 -12.668  1.00  0.00     0.012 C 
HETATM   33  C   UNL     1      35.420   8.917 -13.399  1.00  0.00     0.012 C 
ENDBRANCH  14  31
BRANCH  13  34
HETATM   34  C   UNL     1      32.225   6.637  -3.827  1.00  0.00     0.010 C 
HETATM   35  C   UNL     1      32.639   7.942  -3.148  1.00  0.00     0.012 C 
HETATM   36  C   UNL     1      32.488   5.448  -2.906  1.00  0.00     0.012 C 
ENDBRANCH  13  34
BRANCH  18  37
HETATM   37  C   UNL     1      38.490   5.983  -8.623  1.00  0.00     0.016 C 
HETATM   38  C   UNL     1      38.308   5.065  -7.414  1.00  0.00     0.012 C 
HETATM   39  C   UNL     1      39.901   5.847  -9.190  1.00  0.00     0.012 C 
ENDBRANCH  18  37
BRANCH  17  40
HETATM   40  C   UNL     1      32.439   2.163  -5.509  1.00  0.00     0.016 C 
HETATM   41  C   UNL     1      32.363   0.693  -5.917  1.00  0.00     0.012 C 
HETATM   42  C   UNL     1      31.071   2.664  -5.051  1.00  0.00     0.012 C 
ENDBRANCH  17  40
BRANCH  15  43
HETATM   43  C   UNL     1      35.849   1.169  -9.888  1.00  0.00     0.010 C 
HETATM   44  C   UNL     1      36.070   1.685 -11.308  1.00  0.00     0.012 C 
HETATM   45  C   UNL     1      36.782   0.000  -9.588  1.00  0.00     0.012 C 
ENDBRANCH  15  43
TORSDOF 6
ENDMDL
MODEL 8
REMARK VINA RESULT:    -5.388      2.742      7.249
REMARK INTER + INTRA:          -6.139
REMARK INTER:                  -6.884
REMARK INTRA:                   0.745
REMARK UNBOUND:                 1.139
REMARK  6 active torsions:
REMARK  status: ('A' for Active; 'I' for Inactive)
REMARK    1  A    between atoms: C_13  and  C_16 
REMARK    2  A    between atoms: C_14  and  C_17 
REMARK    3  A    between atoms: C_15  and  C_18 
REMARK    4  A    between atoms: C_19  and  C_22 
REMARK    5  A    between atoms: C_20  and  C_23 
REMARK    6  A    between atoms: C_21  and  C_24 
ROOT
HETATM    1  O   UNL     1      33.786   6.185  -6.959  1.00  0.00    -0.304 OA
HETATM    2  O   UNL     1      35.264   8.823 -11.159  1.00  0.00    -0.304 OA
HETATM    3  O   UNL     1      35.612  11.080  -7.019  1.00  0.00    -0.304 OA
HETATM    4  O   UNL     1      35.968   6.930  -8.144  1.00  0.00    -0.270 OA
HETATM    5  O   UNL     1      36.137   8.299  -5.542  1.00  0.00    -0.270 OA
HETATM    6  O   UNL     1      36.607  11.765 -10.938  1.00  0.00    -0.270 OA
HETATM    7  O   UNL     1      32.603   8.070  -7.563  1.00  0.00    -0.263 OA
HETATM    8  O   UNL     1      37.533   9.007 -11.509  1.00  0.00    -0.263 OA
HETATM    9  O   UNL     1      35.764  13.300  -6.449  1.00  0.00    -0.263 OA
HETATM   10  N   UNL     1      35.360   6.340 -10.296  1.00  0.00    -0.340 N 
HETATM   11  N   UNL     1      33.995   9.167  -5.341  1.00  0.00    -0.340 N 
HETATM   12  N   UNL     1      34.773  11.547  -9.524  1.00  0.00    -0.340 N 
HETATM   13  C   UNL     1      36.632   6.877 -10.824  1.00  0.00     0.190 C 
HETATM   14  C   UNL     1      33.420   7.807  -5.286  1.00  0.00     0.190 C 
HETATM   15  C   UNL     1      35.154  12.724  -8.715  1.00  0.00     0.190 C 
HETATM   16  C   UNL     1      33.893   5.754  -8.334  1.00  0.00     0.227 C 
HETATM   17  C   UNL     1      34.953  10.155 -11.600  1.00  0.00     0.227 C 
HETATM   18  C   UNL     1      35.968  10.680  -5.682  1.00  0.00     0.227 C 
HETATM   19  C   UNL     1      35.158   6.395  -8.910  1.00  0.00     0.250 C 
HETATM   20  C   UNL     1      35.386   9.279  -5.514  1.00  0.00     0.250 C 
HETATM   21  C   UNL     1      35.533  11.223 -10.661  1.00  0.00     0.250 C 
HETATM   22  C   UNL     1      33.194   7.395  -6.730  1.00  0.00     0.283 C 
HETATM   23  C   UNL     1      36.543   8.358 -11.188  1.00  0.00     0.283 C 
HETATM   24  C   UNL     1      35.529  12.417  -7.267  1.00  0.00     0.283 C 
HETATM   25  C   UNL     1      34.383   5.822 -11.259  1.00  0.00     0.153 C 
HETATM   26  C   UNL     1      33.074  10.304  -5.249  1.00  0.00     0.153 C 
HETATM   27  C   UNL     1      33.510  10.882  -9.197  1.00  0.00     0.153 C 
ENDROOT
BRANCH  16  28
HETATM   28  C   UNL     1      34.020   4.238  -8.312  1.00  0.00     0.016 C 
HETATM   29  C   UNL     1      34.695   3.772  -7.022  1.00  0.00     0.012 C 
HETATM   30  C   UNL     1      32.650   3.578  -8.466  1.00  0.00     0.012 C 
ENDBRANCH  16  28
BRANCH  14  31
HETATM   31  C   UNL     1      32.130   7.659  -4.489  1.00  0.00     0.010 C 
HETATM   32  C   UNL     1      31.496   6.293  -4.741  1.00  0.00     0.012 C 
HETATM   33  C   UNL     1      32.393   7.861  -2.998  1.00  0.00     0.012 C 
ENDBRANCH  14  31
BRANCH  13  34
HETATM   34  C   UNL     1      37.190   6.089 -12.008  1.00  0.00     0.010 C 
HETATM   35  C   UNL     1      38.659   5.737 -11.777  1.00  0.00     0.012 C 
HETATM   36  C   UNL     1      37.026   6.874 -13.307  1.00  0.00     0.012 C 
ENDBRANCH  13  34
BRANCH  18  37
HETATM   37  C   UNL     1      37.490  10.677  -5.563  1.00  0.00     0.016 C 
HETATM   38  C   UNL     1      38.138  10.844  -6.937  1.00  0.00     0.012 C 
HETATM   39  C   UNL     1      37.960  11.775  -4.612  1.00  0.00     0.012 C 
ENDBRANCH  18  37
BRANCH  17  40
HETATM   40  C   UNL     1      35.346  10.377 -13.060  1.00  0.00     0.016 C 
HETATM   41  C   UNL     1      35.138  11.837 -13.458  1.00  0.00     0.012 C 
HETATM   42  C   UNL     1      34.549   9.452 -13.978  1.00  0.00     0.012 C 
ENDBRANCH  17  40
BRANCH  15  43
HETATM   43  C   UNL     1      34.078  13.809  -8.771  1.00  0.00     0.010 C 
HETATM   44  C   UNL     1      33.268  13.824  -7.477  1.00  0.00     0.012 C 
HETATM   45  C   UNL     1      34.709  15.174  -9.027  1.00  0.00     0.012 C 
ENDBRANCH  15  43
TORSDOF 6
ENDMDL
MODEL 9
REMARK VINA RESULT:    -5.384      2.126      6.578
REMARK INTER + INTRA:          -6.134
REMARK INTER:                  -7.174
REMARK INTRA:                   1.041
REMARK UNBOUND:                 1.139
REMARK  6 active torsions:
REMARK  status: ('A' for Active; 'I' for Inactive)
REMARK    1  A    between atoms: C_13  and  C_16 
REMARK    2  A    between atoms: C_14  and  C_17 
REMARK    3  A    between atoms: C_15  and  C_18 
REMARK    4  A    between atoms: C_19  and  C_22 
REMARK    5  A    between atoms: C_20  and  C_23 
REMARK    6  A    between atoms: C_21  and  C_24 
ROOT
HETATM    1  O   UNL     1      38.168   4.562  -8.522  1.00  0.00    -0.304 OA
HETATM    2  O   UNL     1      33.851   5.125  -5.724  1.00  0.00    -0.304 OA
HETATM    3  O   UNL     1      34.527   8.246  -9.210  1.00  0.00    -0.304 OA
HETATM    4  O   UNL     1      35.624   4.102  -8.720  1.00  0.00    -0.270 OA
HETATM    5  O   UNL     1      36.109   6.036 -10.887  1.00  0.00    -0.270 OA
HETATM    6  O   UNL     1      31.601   7.330  -6.487  1.00  0.00    -0.270 OA
HETATM    7  O   UNL     1      37.906   6.469  -7.252  1.00  0.00    -0.263 OA
HETATM    8  O   UNL     1      31.897   4.387  -6.692  1.00  0.00    -0.263 OA
HETATM    9  O   UNL     1      33.668  10.332  -9.638  1.00  0.00    -0.263 OA
HETATM   10  N   UNL     1      35.327   3.147  -6.634  1.00  0.00    -0.340 N 
HETATM   11  N   UNL     1      37.416   7.619  -9.804  1.00  0.00    -0.340 N 
HETATM   12  N   UNL     1      33.751   8.204  -6.643  1.00  0.00    -0.340 N 
HETATM   13  C   UNL     1      33.875   3.020  -6.878  1.00  0.00     0.190 C 
HETATM   14  C   UNL     1      38.496   6.631  -9.607  1.00  0.00     0.190 C 
HETATM   15  C   UNL     1      33.311   9.357  -7.456  1.00  0.00     0.190 C 
HETATM   16  C   UNL     1      37.631   3.731  -7.470  1.00  0.00     0.227 C 
HETATM   17  C   UNL     1      33.265   6.284  -5.107  1.00  0.00     0.227 C 
HETATM   18  C   UNL     1      35.079   8.167 -10.539  1.00  0.00     0.227 C 
HETATM   19  C   UNL     1      36.113   3.683  -7.664  1.00  0.00     0.250 C 
HETATM   20  C   UNL     1      36.238   7.178 -10.433  1.00  0.00     0.250 C 
HETATM   21  C   UNL     1      32.788   7.309  -6.147  1.00  0.00     0.250 C 
HETATM   22  C   UNL     1      38.167   5.912  -8.310  1.00  0.00     0.283 C 
HETATM   23  C   UNL     1      33.090   4.255  -6.441  1.00  0.00     0.283 C 
HETATM   24  C   UNL     1      33.859   9.386  -8.882  1.00  0.00     0.283 C 
HETATM   25  C   UNL     1      35.839   2.742  -5.322  1.00  0.00     0.153 C 
HETATM   26  C   UNL     1      37.630   8.979  -9.300  1.00  0.00     0.153 C 
HETATM   27  C   UNL     1      35.159   8.156  -6.245  1.00  0.00     0.153 C 
ENDROOT
BRANCH  16  28
HETATM   28  C   UNL     1      38.240   2.348  -7.648  1.00  0.00     0.016 C 
HETATM   29  C   UNL     1      38.062   1.860  -9.085  1.00  0.00     0.012 C 
HETATM   30  C   UNL     1      39.720   2.356  -7.266  1.00  0.00     0.012 C 
ENDBRANCH  16  28
BRANCH  14  31
HETATM   31  C   UNL     1      39.912   7.192  -9.553  1.00  0.00     0.010 C 
HETATM   32  C   UNL     1      40.848   6.220  -8.838  1.00  0.00     0.012 C 
HETATM   33  C   UNL     1      40.425   7.492 -10.960  1.00  0.00     0.012 C 
ENDBRANCH  14  31
BRANCH  13  34
HETATM   34  C   UNL     1      33.253   1.769  -6.257  1.00  0.00     0.010 C 
HETATM   35  C   UNL     1      32.806   0.793  -7.344  1.00  0.00     0.012 C 
HETATM   36  C   UNL     1      32.078   2.140  -5.355  1.00  0.00     0.012 C 
ENDBRANCH  13  34
BRANCH  18  37
HETATM   37  C   UNL     1      33.994   7.665 -11.488  1.00  0.00     0.016 C 
HETATM   38  C   UNL     1      32.840   7.039 -10.706  1.00  0.00     0.012 C 
HETATM   39  C   UNL     1      33.486   8.800 -12.376  1.00  0.00     0.012 C 
ENDBRANCH  18  37
BRANCH  17  40
HETATM   40  C   UNL     1      32.173   5.905  -4.107  1.00  0.00     0.016 C 
HETATM   41  C   UNL     1      31.723   7.130  -3.313  1.00  0.00     0.012 C 
HETATM   42  C   UNL     1      32.664   4.806  -3.167  1.00  0.00     0.012 C 
ENDBRANCH  17  40
BRANCH  15  43
HETATM   43  C   UNL     1      33.596  10.680  -6.746  1.00  0.00     0.010 C 
HETATM   44  C   UNL     1      32.965  11.842  -7.509  1.00  0.00     0.012 C 
HETATM   45  C   UNL     1      33.082  10.637  -5.310  1.00  0.00     0.012 C 
ENDBRANCH  15  43
TORSDOF 6
ENDMDL
MODEL 10
REMARK VINA RESULT:    -5.316      3.302      8.250
REMARK INTER + INTRA:          -6.041
REMARK INTER:                  -6.911
REMARK INTRA:                   0.870
REMARK UNBOUND:                 1.139
REMARK  6 active torsions:
REMARK  status: ('A' for Active; 'I' for Inactive)
REMARK    1  A    between atoms: C_13  and  C_16 
REMARK    2  A    between atoms: C_14  and  C_17 
REMARK    3  A    between atoms: C_15  and  C_18 
REMARK    4  A    between atoms: C_19  and  C_22 
REMARK    5  A    between atoms: C_20  and  C_23 
REMARK    6  A    between atoms: C_21  and  C_24 
ROOT
HETATM    1  O   UNL     1      39.054   8.576  -7.904  1.00  0.00    -0.304 OA
HETATM    2  O   UNL     1      34.386   6.804  -9.266  1.00  0.00    -0.304 OA
HETATM    3  O   UNL     1      34.541  11.170  -7.457  1.00  0.00    -0.304 OA
HETATM    4  O   UNL     1      37.324   8.862  -9.813  1.00  0.00    -0.270 OA
HETATM    5  O   UNL     1      37.474  11.566  -8.655  1.00  0.00    -0.270 OA
HETATM    6  O   UNL     1      31.747   8.681  -9.138  1.00  0.00    -0.270 OA
HETATM    7  O   UNL     1      37.462   8.261  -6.266  1.00  0.00    -0.263 OA
HETATM    8  O   UNL     1      33.526   7.598 -11.248  1.00  0.00    -0.263 OA
HETATM    9  O   UNL     1      32.956  12.531  -6.503  1.00  0.00    -0.263 OA
HETATM   10  N   UNL     1      36.860   6.620 -10.140  1.00  0.00    -0.340 N 
HETATM   11  N   UNL     1      37.358  11.099  -6.385  1.00  0.00    -0.340 N 
HETATM   12  N   UNL     1      33.076   8.933  -7.244  1.00  0.00    -0.340 N 
HETATM   13  C   UNL     1      35.849   6.959 -11.164  1.00  0.00     0.190 C 
HETATM   14  C   UNL     1      38.647  10.380  -6.439  1.00  0.00     0.190 C 
HETATM   15  C   UNL     1      32.423  10.200  -6.855  1.00  0.00     0.190 C 
HETATM   16  C   UNL     1      38.687   7.344  -8.563  1.00  0.00     0.227 C 
HETATM   17  C   UNL     1      33.131   6.804  -8.565  1.00  0.00     0.227 C 
HETATM   18  C   UNL     1      35.469  12.267  -7.555  1.00  0.00     0.227 C 
HETATM   19  C   UNL     1      37.567   7.679  -9.551  1.00  0.00     0.250 C 
HETATM   20  C   UNL     1      36.852  11.620  -7.589  1.00  0.00     0.250 C 
HETATM   21  C   UNL     1      32.588   8.226  -8.357  1.00  0.00     0.250 C 
HETATM   22  C   UNL     1      38.307   8.950  -6.823  1.00  0.00     0.283 C 
HETATM   23  C   UNL     1      34.458   7.176 -10.572  1.00  0.00     0.283 C 
HETATM   24  C   UNL     1      33.326  11.430  -6.899  1.00  0.00     0.283 C 
HETATM   25  C   UNL     1      37.028   5.208  -9.783  1.00  0.00     0.153 C 
HETATM   26  C   UNL     1      36.677  11.189  -5.089  1.00  0.00     0.153 C 
HETATM   27  C   UNL     1      34.088   8.387  -6.338  1.00  0.00     0.153 C 
ENDROOT
BRANCH  16  28
HETATM   28  C   UNL     1      39.925   6.852  -9.298  1.00  0.00     0.016 C 
HETATM   29  C   UNL     1      40.884   8.009  -9.575  1.00  0.00     0.012 C 
HETATM   30  C   UNL     1      40.628   5.755  -8.500  1.00  0.00     0.012 C 
ENDBRANCH  16  28
BRANCH  14  31
HETATM   31  C   UNL     1      39.476  10.398  -5.161  1.00  0.00     0.010 C 
HETATM   32  C   UNL     1      40.472   9.241  -5.150  1.00  0.00     0.012 C 
HETATM   33  C   UNL     1      40.203  11.732  -5.011  1.00  0.00     0.012 C 
ENDBRANCH  14  31
BRANCH  13  34
HETATM   34  C   UNL     1      35.770   5.950 -12.309  1.00  0.00     0.010 C 
HETATM   35  C   UNL     1      35.702   6.667 -13.656  1.00  0.00     0.012 C 
HETATM   36  C   UNL     1      34.567   5.026 -12.134  1.00  0.00     0.012 C 
ENDBRANCH  13  34
BRANCH  18  37
HETATM   37  C   UNL     1      35.177  13.041  -8.838  1.00  0.00     0.016 C 
HETATM   38  C   UNL     1      34.198  12.268  -9.722  1.00  0.00     0.012 C 
HETATM   39  C   UNL     1      34.627  14.429  -8.519  1.00  0.00     0.012 C 
ENDBRANCH  18  37
BRANCH  17  40
HETATM   40  C   UNL     1      32.112   5.874  -9.225  1.00  0.00     0.016 C 
HETATM   41  C   UNL     1      30.758   5.978  -8.526  1.00  0.00     0.012 C 
HETATM   42  C   UNL     1      32.614   4.432  -9.212  1.00  0.00     0.012 C 
ENDBRANCH  17  40
BRANCH  15  43
HETATM   43  C   UNL     1      31.747  10.081  -5.489  1.00  0.00     0.010 C 
HETATM   44  C   UNL     1      30.751   8.924  -5.485  1.00  0.00     0.012 C 
HETATM   45  C   UNL     1      32.791   9.897  -4.391  1.00  0.00     0.012 C 
ENDBRANCH  15  43
TORSDOF 6
ENDMDL
MODEL 11
REMARK VINA RESULT:    -5.312     16.735     21.051
REMARK INTER + INTRA:          -6.036
REMARK INTER:                  -7.212
REMARK INTRA:                   1.176
REMARK UNBOUND:                 1.139
REMARK  6 active torsions:
REMARK  status: ('A' for Active; 'I' for Inactive)
REMARK    1  A    between atoms: C_13  and  C_16 
REMARK    2  A    between atoms: C_14  and  C_17 
REMARK    3  A    between atoms: C_15  and  C_18 
REMARK    4  A    between atoms: C_19  and  C_22 
REMARK    5  A    between atoms: C_20  and  C_23 
REMARK    6  A    between atoms: C_21  and  C_24 
ROOT
HETATM    1  O   UNL     1      26.624  21.702  -2.885  1.00  0.00    -0.304 OA
HETATM    2  O   UNL     1      29.577  24.398  -6.171  1.00  0.00    -0.304 OA
HETATM    3  O   UNL     1      26.996  26.909  -3.107  1.00  0.00    -0.304 OA
HETATM    4  O   UNL     1      28.855  23.021  -2.892  1.00  0.00    -0.270 OA
HETATM    5  O   UNL     1      27.206  24.537  -0.980  1.00  0.00    -0.270 OA
HETATM    6  O   UNL     1      29.850  27.621  -5.965  1.00  0.00    -0.270 OA
HETATM    7  O   UNL     1      25.601  23.074  -4.432  1.00  0.00    -0.263 OA
HETATM    8  O   UNL     1      31.531  25.266  -5.318  1.00  0.00    -0.263 OA
HETATM    9  O   UNL     1      26.292  29.095  -3.069  1.00  0.00    -0.263 OA
HETATM   10  N   UNL     1      29.726  22.133  -4.842  1.00  0.00    -0.340 N 
HETATM   11  N   UNL     1      25.198  24.695  -2.132  1.00  0.00    -0.340 N 
HETATM   12  N   UNL     1      27.645  26.926  -5.710  1.00  0.00    -0.340 N 
HETATM   13  C   UNL     1      30.911  23.010  -4.735  1.00  0.00     0.190 C 
HETATM   14  C   UNL     1      25.018  23.229  -2.074  1.00  0.00     0.190 C 
HETATM   15  C   UNL     1      27.223  28.212  -5.117  1.00  0.00     0.190 C 
HETATM   16  C   UNL     1      27.584  21.240  -3.860  1.00  0.00     0.227 C 
HETATM   17  C   UNL     1      29.278  25.532  -7.002  1.00  0.00     0.227 C 
HETATM   18  C   UNL     1      26.612  26.729  -1.730  1.00  0.00     0.227 C 
HETATM   19  C   UNL     1      28.768  22.210  -3.821  1.00  0.00     0.250 C 
HETATM   20  C   UNL     1      26.373  25.229  -1.574  1.00  0.00     0.250 C 
HETATM   21  C   UNL     1      28.965  26.786  -6.173  1.00  0.00     0.250 C 
HETATM   22  C   UNL     1      25.751  22.675  -3.284  1.00  0.00     0.283 C 
HETATM   23  C   UNL     1      30.711  24.360  -5.421  1.00  0.00     0.283 C 
HETATM   24  C   UNL     1      26.770  28.132  -3.661  1.00  0.00     0.283 C 
HETATM   25  C   UNL     1      29.614  21.272  -6.023  1.00  0.00     0.153 C 
HETATM   26  C   UNL     1      24.158  25.486  -2.798  1.00  0.00     0.153 C 
HETATM   27  C   UNL     1      26.609  25.918  -5.948  1.00  0.00     0.153 C 
ENDROOT
BRANCH  16  28
HETATM   28  C   UNL     1      28.015  19.847  -3.427  1.00  0.00     0.016 C 
HETATM   29  C   UNL     1      29.250  19.919  -2.530  1.00  0.00     0.012 C 
HETATM   30  C   UNL     1      26.875  19.126  -2.710  1.00  0.00     0.012 C 
ENDBRANCH  16  28
BRANCH  14  31
HETATM   31  C   UNL     1      23.578  22.733  -2.058  1.00  0.00     0.010 C 
HETATM   32  C   UNL     1      23.465  21.391  -2.777  1.00  0.00     0.012 C 
HETATM   33  C   UNL     1      23.066  22.618  -0.625  1.00  0.00     0.012 C 
ENDBRANCH  14  31
BRANCH  13  34
HETATM   34  C   UNL     1      32.202  22.364  -5.236  1.00  0.00     0.010 C 
HETATM   35  C   UNL     1      33.275  22.390  -4.148  1.00  0.00     0.012 C 
HETATM   36  C   UNL     1      32.703  23.063  -6.498  1.00  0.00     0.012 C 
ENDBRANCH  13  34
BRANCH  18  37
HETATM   37  C   UNL     1      27.751  27.214  -0.838  1.00  0.00     0.016 C 
HETATM   38  C   UNL     1      29.010  27.476  -1.666  1.00  0.00     0.012 C 
HETATM   39  C   UNL     1      27.342  28.472  -0.074  1.00  0.00     0.012 C 
ENDBRANCH  18  37
BRANCH  17  40
HETATM   40  C   UNL     1      30.367  25.773  -8.048  1.00  0.00     0.016 C 
HETATM   41  C   UNL     1      30.028  26.989  -8.906  1.00  0.00     0.012 C 
HETATM   42  C   UNL     1      30.556  24.534  -8.922  1.00  0.00     0.012 C 
ENDBRANCH  17  40
BRANCH  15  43
HETATM   43  C   UNL     1      26.155  28.895  -5.973  1.00  0.00     0.010 C 
HETATM   44  C   UNL     1      26.604  28.963  -7.431  1.00  0.00     0.012 C 
HETATM   45  C   UNL     1      24.824  28.160  -5.853  1.00  0.00     0.012 C 
ENDBRANCH  15  43
TORSDOF 6
ENDMDL
MODEL 12
REMARK VINA RESULT:    -5.164      3.206      7.529
REMARK INTER + INTRA:          -5.837
REMARK INTER:                  -6.715
REMARK INTRA:                   0.879
REMARK UNBOUND:                 1.139
REMARK  6 active torsions:
REMARK  status: ('A' for Active; 'I' for Inactive)
REMARK    1  A    between atoms: C_13  and  C_16 
REMARK    2  A    between atoms: C_14  and  C_17 
REMARK    3  A    between atoms: C_15  and  C_18 
REMARK    4  A    between atoms: C_19  and  C_22 
REMARK    5  A    between atoms: C_20  and  C_23 
REMARK    6  A    between atoms: C_21  and  C_24 
ROOT
HETATM    1  O   UNL     1      36.570   6.214  -9.685  1.00  0.00    -0.304 OA
HETATM    2  O   UNL     1      38.261  10.318  -7.024  1.00  0.00    -0.304 OA
HETATM    3  O   UNL     1      33.615   9.458  -6.849  1.00  0.00    -0.304 OA
HETATM    4  O   UNL     1      37.067   6.898  -7.235  1.00  0.00    -0.270 OA
HETATM    5  O   UNL     1      34.177   6.333  -7.183  1.00  0.00    -0.270 OA
HETATM    6  O   UNL     1      36.287  12.048  -5.123  1.00  0.00    -0.270 OA
HETATM    7  O   UNL     1      35.867   8.318 -10.318  1.00  0.00    -0.263 OA
HETATM    8  O   UNL     1      38.449  10.056  -4.745  1.00  0.00    -0.263 OA
HETATM    9  O   UNL     1      31.798  10.754  -6.306  1.00  0.00    -0.263 OA
HETATM   10  N   UNL     1      39.117   7.901  -7.611  1.00  0.00    -0.340 N 
HETATM   11  N   UNL     1      33.458   7.446  -9.088  1.00  0.00    -0.340 N 
HETATM   12  N   UNL     1      35.288  11.533  -7.160  1.00  0.00    -0.340 N 
HETATM   13  C   UNL     1      39.215   8.280  -6.185  1.00  0.00     0.190 C 
HETATM   14  C   UNL     1      34.248   6.540  -9.947  1.00  0.00     0.190 C 
HETATM   15  C   UNL     1      33.929  11.837  -6.663  1.00  0.00     0.190 C 
HETATM   16  C   UNL     1      37.918   6.681  -9.461  1.00  0.00     0.227 C 
HETATM   17  C   UNL     1      37.782  11.672  -6.964  1.00  0.00     0.227 C 
HETATM   18  C   UNL     1      32.815   8.262  -6.803  1.00  0.00     0.227 C 
HETATM   19  C   UNL     1      37.990   7.169  -8.011  1.00  0.00     0.250 C 
HETATM   20  C   UNL     1      33.541   7.259  -7.696  1.00  0.00     0.250 C 
HETATM   21  C   UNL     1      36.391  11.762  -6.320  1.00  0.00     0.250 C 
HETATM   22  C   UNL     1      35.636   7.152 -10.028  1.00  0.00     0.283 C 
HETATM   23  C   UNL     1      38.586   9.640  -5.890  1.00  0.00     0.283 C 
HETATM   24  C   UNL     1      32.985  10.639  -6.597  1.00  0.00     0.283 C 
HETATM   25  C   UNL     1      40.182   8.347  -8.513  1.00  0.00     0.153 C 
HETATM   26  C   UNL     1      32.673   8.498  -9.741  1.00  0.00     0.153 C 
HETATM   27  C   UNL     1      35.427  11.175  -8.573  1.00  0.00     0.153 C 
ENDROOT
BRANCH  16  28
HETATM   28  C   UNL     1      38.838   5.488  -9.673  1.00  0.00     0.016 C 
HETATM   29  C   UNL     1      38.065   4.178  -9.529  1.00  0.00     0.012 C 
HETATM   30  C   UNL     1      39.513   5.563 -11.042  1.00  0.00     0.012 C 
ENDBRANCH  16  28
BRANCH  14  31
HETATM   31  C   UNL     1      33.697   6.299 -11.347  1.00  0.00     0.010 C 
HETATM   32  C   UNL     1      34.828   5.971 -12.320  1.00  0.00     0.012 C 
HETATM   33  C   UNL     1      32.661   5.178 -11.332  1.00  0.00     0.012 C 
ENDBRANCH  14  31
BRANCH  13  34
HETATM   34  C   UNL     1      40.639   8.241  -5.634  1.00  0.00     0.010 C 
HETATM   35  C   UNL     1      40.698   7.415  -4.349  1.00  0.00     0.012 C 
HETATM   36  C   UNL     1      41.162   9.654  -5.385  1.00  0.00     0.012 C 
ENDBRANCH  13  34
BRANCH  18  37
HETATM   37  C   UNL     1      32.741   7.779  -5.357  1.00  0.00     0.016 C 
HETATM   38  C   UNL     1      33.743   8.534  -4.484  1.00  0.00     0.012 C 
HETATM   39  C   UNL     1      31.325   7.938  -4.806  1.00  0.00     0.012 C 
ENDBRANCH  18  37
BRANCH  17  40
HETATM   40  C   UNL     1      38.798  12.606  -6.307  1.00  0.00     0.016 C 
HETATM   41  C   UNL     1      38.245  14.027  -6.220  1.00  0.00     0.012 C 
HETATM   42  C   UNL     1      40.118  12.590  -7.075  1.00  0.00     0.012 C 
ENDBRANCH  17  40
BRANCH  15  43
HETATM   43  C   UNL     1      33.291  12.979  -7.454  1.00  0.00     0.010 C 
HETATM   44  C   UNL     1      34.142  14.241  -7.350  1.00  0.00     0.012 C 
HETATM   45  C   UNL     1      33.100  12.577  -8.913  1.00  0.00     0.012 C 
ENDBRANCH  15  43
TORSDOF 6
ENDMDL
MODEL 13
REMARK VINA RESULT:    -5.118     15.881     19.986
REMARK INTER + INTRA:          -5.774
REMARK INTER:                  -7.286
REMARK INTRA:                   1.512
REMARK UNBOUND:                 1.139
REMARK  6 active torsions:
REMARK  status: ('A' for Active; 'I' for Inactive)
REMARK    1  A    between atoms: C_13  and  C_16 
REMARK    2  A    between atoms: C_14  and  C_17 
REMARK    3  A    between atoms: C_15  and  C_18 
REMARK    4  A    between atoms: C_19  and  C_22 
REMARK    5  A    between atoms: C_20  and  C_23 
REMARK    6  A    between atoms: C_21  and  C_24 
ROOT
HETATM    1  O   UNL     1      25.749  22.436  -3.189  1.00  0.00    -0.304 OA
HETATM    2  O   UNL     1      27.866  27.129  -3.712  1.00  0.00    -0.304 OA
HETATM    3  O   UNL     1      30.141  23.545  -5.793  1.00  0.00    -0.304 OA
HETATM    4  O   UNL     1      25.973  24.302  -4.974  1.00  0.00    -0.270 OA
HETATM    5  O   UNL     1      27.365  22.030  -6.227  1.00  0.00    -0.270 OA
HETATM    6  O   UNL     1      30.462  27.629  -5.588  1.00  0.00    -0.270 OA
HETATM    7  O   UNL     1      27.820  22.833  -2.255  1.00  0.00    -0.263 OA
HETATM    8  O   UNL     1      27.552  28.176  -5.739  1.00  0.00    -0.263 OA
HETATM    9  O   UNL     1      32.297  23.276  -6.539  1.00  0.00    -0.263 OA
HETATM   10  N   UNL     1      25.451  26.093  -3.607  1.00  0.00    -0.340 N 
HETATM   11  N   UNL     1      28.674  21.268  -4.469  1.00  0.00    -0.340 N 
HETATM   12  N   UNL     1      30.688  25.705  -4.299  1.00  0.00    -0.340 N 
HETATM   13  C   UNL     1      25.687  27.037  -4.719  1.00  0.00     0.190 C 
HETATM   14  C   UNL     1      27.470  20.903  -3.695  1.00  0.00     0.190 C 
HETATM   15  C   UNL     1      31.784  25.175  -5.136  1.00  0.00     0.190 C 
HETATM   16  C   UNL     1      25.258  23.726  -2.765  1.00  0.00     0.227 C 
HETATM   17  C   UNL     1      29.218  27.585  -3.534  1.00  0.00     0.227 C 
HETATM   18  C   UNL     1      29.722  22.349  -6.478  1.00  0.00     0.227 C 
HETATM   19  C   UNL     1      25.596  24.724  -3.875  1.00  0.00     0.250 C 
HETATM   20  C   UNL     1      28.482  21.870  -5.725  1.00  0.00     0.250 C 
HETATM   21  C   UNL     1      30.170  26.982  -4.577  1.00  0.00     0.250 C 
HETATM   22  C   UNL     1      27.064  22.159  -2.943  1.00  0.00     0.283 C 
HETATM   23  C   UNL     1      27.140  27.503  -4.801  1.00  0.00     0.283 C 
HETATM   24  C   UNL     1      31.455  23.890  -5.891  1.00  0.00     0.283 C 
HETATM   25  C   UNL     1      25.118  26.652  -2.293  1.00  0.00     0.153 C 
HETATM   26  C   UNL     1      29.983  21.013  -3.860  1.00  0.00     0.153 C 
HETATM   27  C   UNL     1      30.317  24.941  -3.105  1.00  0.00     0.153 C 
ENDROOT
BRANCH  16  28
HETATM   28  C   UNL     1      23.751  23.592  -2.602  1.00  0.00     0.016 C 
HETATM   29  C   UNL     1      23.272  22.234  -3.113  1.00  0.00     0.012 C 
HETATM   30  C   UNL     1      23.346  23.786  -1.141  1.00  0.00     0.012 C 
ENDBRANCH  16  28
BRANCH  14  31
HETATM   31  C   UNL     1      27.627  19.737  -2.726  1.00  0.00     0.010 C 
HETATM   32  C   UNL     1      26.264  19.151  -2.366  1.00  0.00     0.012 C 
HETATM   33  C   UNL     1      28.532  18.662  -3.322  1.00  0.00     0.012 C 
ENDBRANCH  14  31
BRANCH  13  34
HETATM   34  C   UNL     1      24.757  28.249  -4.707  1.00  0.00     0.010 C 
HETATM   35  C   UNL     1      24.366  28.643  -6.131  1.00  0.00     0.012 C 
HETATM   36  C   UNL     1      25.412  29.427  -3.988  1.00  0.00     0.012 C 
ENDBRANCH  13  34
BRANCH  18  37
HETATM   37  C   UNL     1      29.400  22.704  -7.927  1.00  0.00     0.016 C 
HETATM   38  C   UNL     1      29.188  24.210  -8.079  1.00  0.00     0.012 C 
HETATM   39  C   UNL     1      30.509  22.222  -8.860  1.00  0.00     0.012 C 
ENDBRANCH  18  37
BRANCH  17  40
HETATM   40  C   UNL     1      29.300  29.110  -3.472  1.00  0.00     0.016 C 
HETATM   41  C   UNL     1      30.753  29.567  -3.361  1.00  0.00     0.012 C 
HETATM   42  C   UNL     1      28.477  29.645  -2.302  1.00  0.00     0.012 C 
ENDBRANCH  17  40
BRANCH  15  43
HETATM   43  C   UNL     1      33.070  25.006  -4.325  1.00  0.00     0.010 C 
HETATM   44  C   UNL     1      33.292  23.537  -3.977  1.00  0.00     0.012 C 
HETATM   45  C   UNL     1      34.263  25.564  -5.095  1.00  0.00     0.012 C 
ENDBRANCH  15  43
TORSDOF 6
ENDMDL
MODEL 14
REMARK VINA RESULT:    -5.112     15.932     19.458
REMARK INTER + INTRA:          -5.766
REMARK INTER:                  -6.795
REMARK INTRA:                   1.029
REMARK UNBOUND:                 1.139
REMARK  6 active torsions:
REMARK  status: ('A' for Active; 'I' for Inactive)
REMARK    1  A    between atoms: C_13  and  C_16 
REMARK    2  A    between atoms: C_14  and  C_17 
REMARK    3  A    between atoms: C_15  and  C_18 
REMARK    4  A    between atoms: C_19  and  C_22 
REMARK    5  A    between atoms: C_20  and  C_23 
REMARK    6  A    between atoms: C_21  and  C_24 
ROOT
HETATM    1  O   UNL     1      30.493  21.749  -2.199  1.00  0.00    -0.304 OA
HETATM    2  O   UNL     1      32.383  25.264  -5.494  1.00  0.00    -0.304 OA
HETATM    3  O   UNL     1      27.734  24.435  -5.731  1.00  0.00    -0.304 OA
HETATM    4  O   UNL     1      30.579  24.324  -2.489  1.00  0.00    -0.270 OA
HETATM    5  O   UNL     1      27.694  23.748  -2.614  1.00  0.00    -0.270 OA
HETATM    6  O   UNL     1      30.447  26.998  -7.431  1.00  0.00    -0.270 OA
HETATM    7  O   UNL     1      30.396  21.318  -4.462  1.00  0.00    -0.263 OA
HETATM    8  O   UNL     1      32.015  27.473  -4.961  1.00  0.00    -0.263 OA
HETATM    9  O   UNL     1      26.152  24.815  -7.353  1.00  0.00    -0.263 OA
HETATM   10  N   UNL     1      32.824  24.493  -3.019  1.00  0.00    -0.340 N 
HETATM   11  N   UNL     1      27.651  21.931  -4.055  1.00  0.00    -0.340 N 
HETATM   12  N   UNL     1      29.827  24.757  -7.378  1.00  0.00    -0.340 N 
HETATM   13  C   UNL     1      32.688  25.952  -3.214  1.00  0.00     0.190 C 
HETATM   14  C   UNL     1      28.402  21.108  -3.084  1.00  0.00     0.190 C 
HETATM   15  C   UNL     1      28.487  25.030  -7.938  1.00  0.00     0.190 C 
HETATM   16  C   UNL     1      31.827  22.290  -2.312  1.00  0.00     0.227 C 
HETATM   17  C   UNL     1      32.193  25.435  -6.909  1.00  0.00     0.227 C 
HETATM   18  C   UNL     1      26.712  24.150  -4.757  1.00  0.00     0.227 C 
HETATM   19  C   UNL     1      31.684  23.784  -2.616  1.00  0.00     0.250 C 
HETATM   20  C   UNL     1      27.390  23.269  -3.710  1.00  0.00     0.250 C 
HETATM   21  C   UNL     1      30.746  25.814  -7.254  1.00  0.00     0.250 C 
HETATM   22  C   UNL     1      29.870  21.382  -3.359  1.00  0.00     0.283 C 
HETATM   23  C   UNL     1      32.307  26.324  -4.645  1.00  0.00     0.283 C 
HETATM   24  C   UNL     1      27.323  24.738  -6.994  1.00  0.00     0.283 C 
HETATM   25  C   UNL     1      34.129  23.884  -3.295  1.00  0.00     0.153 C 
HETATM   26  C   UNL     1      27.261  21.307  -5.323  1.00  0.00     0.153 C 
HETATM   27  C   UNL     1      30.191  23.357  -7.147  1.00  0.00     0.153 C 
ENDROOT
BRANCH  16  28
HETATM   28  C   UNL     1      32.503  22.078  -0.965  1.00  0.00     0.016 C 
HETATM   29  C   UNL     1      31.921  23.022   0.085  1.00  0.00     0.012 C 
HETATM   30  C   UNL     1      32.364  20.625  -0.513  1.00  0.00     0.012 C 
ENDBRANCH  16  28
BRANCH  14  31
HETATM   31  C   UNL     1      28.129  19.610  -3.126  1.00  0.00     0.010 C 
HETATM   32  C   UNL     1      29.135  18.857  -2.258  1.00  0.00     0.012 C 
HETATM   33  C   UNL     1      26.702  19.311  -2.673  1.00  0.00     0.012 C 
ENDBRANCH  14  31
BRANCH  13  34
HETATM   34  C   UNL     1      33.920  26.749  -2.786  1.00  0.00     0.010 C 
HETATM   35  C   UNL     1      33.530  27.866  -1.818  1.00  0.00     0.012 C 
HETATM   36  C   UNL     1      34.642  27.324  -4.002  1.00  0.00     0.012 C 
ENDBRANCH  13  34
BRANCH  18  37
HETATM   37  C   UNL     1      26.228  25.468  -4.157  1.00  0.00     0.016 C 
HETATM   38  C   UNL     1      27.170  26.611  -4.538  1.00  0.00     0.012 C 
HETATM   39  C   UNL     1      24.802  25.776  -4.608  1.00  0.00     0.012 C 
ENDBRANCH  18  37
BRANCH  17  40
HETATM   40  C   UNL     1      33.215  26.404  -7.506  1.00  0.00     0.016 C 
HETATM   41  C   UNL     1      32.967  26.593  -9.001  1.00  0.00     0.012 C 
HETATM   42  C   UNL     1      34.637  25.906  -7.256  1.00  0.00     0.012 C 
ENDBRANCH  17  40
BRANCH  15  43
HETATM   43  C   UNL     1      28.286  24.313  -9.274  1.00  0.00     0.010 C 
HETATM   44  C   UNL     1      29.433  24.634 -10.229  1.00  0.00     0.012 C 
HETATM   45  C   UNL     1      28.168  22.807  -9.059  1.00  0.00     0.012 C 
ENDBRANCH  15  43
TORSDOF 6
ENDMDL
MODEL 15
REMARK VINA RESULT:    -5.028     18.920     22.375
REMARK INTER + INTRA:          -5.652
REMARK INTER:                  -7.722
REMARK INTRA:                   2.070
REMARK UNBOUND:                 1.139
REMARK  6 active torsions:
REMARK  status: ('A' for Active; 'I' for Inactive)
REMARK    1  A    between atoms: C_13  and  C_16 
REMARK    2  A    between atoms: C_14  and  C_17 
REMARK    3  A    between atoms: C_15  and  C_18 
REMARK    4  A    between atoms: C_19  and  C_22 
REMARK    5  A    between atoms: C_20  and  C_23 
REMARK    6  A    between atoms: C_21  and  C_24 
ROOT
HETATM    1  O   UNL     1      26.710  27.187   2.838  1.00  0.00    -0.304 OA
HETATM    2  O   UNL     1      27.441  25.144  -1.861  1.00  0.00    -0.304 OA
HETATM    3  O   UNL     1      30.404  23.727   1.540  1.00  0.00    -0.304 OA
HETATM    4  O   UNL     1      26.271  24.969   1.570  1.00  0.00    -0.270 OA
HETATM    5  O   UNL     1      28.107  24.142   3.719  1.00  0.00    -0.270 OA
HETATM    6  O   UNL     1      29.637  22.819  -2.385  1.00  0.00    -0.270 OA
HETATM    7  O   UNL     1      28.671  27.649   1.716  1.00  0.00    -0.263 OA
HETATM    8  O   UNL     1      26.685  22.992  -2.173  1.00  0.00    -0.263 OA
HETATM    9  O   UNL     1      32.480  22.746   1.505  1.00  0.00    -0.263 OA
HETATM   10  N   UNL     1      25.409  25.893  -0.367  1.00  0.00    -0.340 N 
HETATM   11  N   UNL     1      29.719  25.807   3.612  1.00  0.00    -0.340 N 
HETATM   12  N   UNL     1      30.479  24.508  -1.025  1.00  0.00    -0.340 N 
HETATM   13  C   UNL     1      25.288  24.552  -0.976  1.00  0.00     0.190 C 
HETATM   14  C   UNL     1      28.728  26.829   4.007  1.00  0.00     0.190 C 
HETATM   15  C   UNL     1      31.601  23.674  -0.546  1.00  0.00     0.190 C 
HETATM   16  C   UNL     1      25.930  27.336   1.631  1.00  0.00     0.227 C 
HETATM   17  C   UNL     1      28.632  24.984  -2.650  1.00  0.00     0.227 C 
HETATM   18  C   UNL     1      30.262  23.449   2.946  1.00  0.00     0.227 C 
HETATM   19  C   UNL     1      25.891  25.967   0.947  1.00  0.00     0.250 C 
HETATM   20  C   UNL     1      29.265  24.485   3.461  1.00  0.00     0.250 C 
HETATM   21  C   UNL     1      29.617  23.995  -2.010  1.00  0.00     0.250 C 
HETATM   22  C   UNL     1      28.067  27.286   2.717  1.00  0.00     0.283 C 
HETATM   23  C   UNL     1      26.550  24.125  -1.723  1.00  0.00     0.283 C 
HETATM   24  C   UNL     1      31.564  23.338   0.943  1.00  0.00     0.283 C 
HETATM   25  C   UNL     1      25.054  27.053  -1.189  1.00  0.00     0.153 C 
HETATM   26  C   UNL     1      31.096  26.247   3.368  1.00  0.00     0.153 C 
HETATM   27  C   UNL     1      30.431  25.901  -0.576  1.00  0.00     0.153 C 
ENDROOT
BRANCH  16  28
HETATM   28  C   UNL     1      24.534  27.764   2.059  1.00  0.00     0.016 C 
HETATM   29  C   UNL     1      24.361  27.608   3.569  1.00  0.00     0.012 C 
HETATM   30  C   UNL     1      24.256  29.206   1.636  1.00  0.00     0.012 C 
ENDBRANCH  16  28
BRANCH  14  31
HETATM   31  C   UNL     1      29.274  28.028   4.772  1.00  0.00     0.010 C 
HETATM   32  C   UNL     1      28.447  29.277   4.473  1.00  0.00     0.012 C 
HETATM   33  C   UNL     1      29.293  27.745   6.272  1.00  0.00     0.012 C 
ENDBRANCH  14  31
BRANCH  13  34
HETATM   34  C   UNL     1      24.072  24.397  -1.889  1.00  0.00     0.010 C 
HETATM   35  C   UNL     1      23.226  23.199  -1.462  1.00  0.00     0.012 C 
HETATM   36  C   UNL     1      24.505  24.253  -3.347  1.00  0.00     0.012 C 
ENDBRANCH  13  34
BRANCH  18  37
HETATM   37  C   UNL     1      29.733  22.027   3.112  1.00  0.00     0.016 C 
HETATM   38  C   UNL     1      30.852  21.084   3.556  1.00  0.00     0.012 C 
HETATM   39  C   UNL     1      28.577  21.992   4.109  1.00  0.00     0.012 C 
ENDBRANCH  18  37
BRANCH  17  40
HETATM   40  C   UNL     1      28.308  24.636  -4.103  1.00  0.00     0.016 C 
HETATM   41  C   UNL     1      29.591  24.462  -4.913  1.00  0.00     0.012 C 
HETATM   42  C   UNL     1      27.421  25.712  -4.728  1.00  0.00     0.012 C 
ENDBRANCH  17  40
BRANCH  15  43
HETATM   43  C   UNL     1      32.950  24.288  -0.923  1.00  0.00     0.010 C 
HETATM   44  C   UNL     1      33.592  24.954   0.292  1.00  0.00     0.012 C 
HETATM   45  C   UNL     1      33.876  23.224  -1.506  1.00  0.00     0.012 C 
ENDBRANCH  15  43
TORSDOF 6
ENDMDL
MODEL 16
REMARK VINA RESULT:    -5.026      2.838      8.044
REMARK INTER + INTRA:          -5.650
REMARK INTER:                  -6.338
REMARK INTRA:                   0.687
REMARK UNBOUND:                 1.139
REMARK  6 active torsions:
REMARK  status: ('A' for Active; 'I' for Inactive)
REMARK    1  A    between atoms: C_13  and  C_16 
REMARK    2  A    between atoms: C_14  and  C_17 
REMARK    3  A    between atoms: C_15  and  C_18 
REMARK    4  A    between atoms: C_19  and  C_22 
REMARK    5  A    between atoms: C_20  and  C_23 
REMARK    6  A    between atoms: C_21  and  C_24 
ROOT
HETATM    1  O   UNL     1      38.450   9.391  -6.648  1.00  0.00    -0.304 OA
HETATM    2  O   UNL     1      36.565   4.626  -7.365  1.00  0.00    -0.304 OA
HETATM    3  O   UNL     1      33.681   8.218  -8.430  1.00  0.00    -0.304 OA
HETATM    4  O   UNL     1      37.967   7.741  -8.588  1.00  0.00    -0.270 OA
HETATM    5  O   UNL     1      36.202  10.015  -9.209  1.00  0.00    -0.270 OA
HETATM    6  O   UNL     1      33.664   4.127  -8.723  1.00  0.00    -0.270 OA
HETATM    7  O   UNL     1      36.655   8.702  -5.375  1.00  0.00    -0.263 OA
HETATM    8  O   UNL     1      36.503   3.862  -9.537  1.00  0.00    -0.263 OA
HETATM    9  O   UNL     1      31.404   8.382  -8.678  1.00  0.00    -0.263 OA
HETATM   10  N   UNL     1      38.878   5.853  -7.612  1.00  0.00    -0.340 N 
HETATM   11  N   UNL     1      35.253  10.439  -7.134  1.00  0.00    -0.340 N 
HETATM   12  N   UNL     1      33.600   5.853  -7.165  1.00  0.00    -0.340 N 
HETATM   13  C   UNL     1      38.468   5.032  -8.772  1.00  0.00     0.190 C 
HETATM   14  C   UNL     1      36.570  10.815  -6.579  1.00  0.00     0.190 C 
HETATM   15  C   UNL     1      32.320   6.380  -7.681  1.00  0.00     0.190 C 
HETATM   16  C   UNL     1      39.099   8.108  -6.512  1.00  0.00     0.227 C 
HETATM   17  C   UNL     1      35.313   4.033  -6.979  1.00  0.00     0.227 C 
HETATM   18  C   UNL     1      33.870   9.520  -9.016  1.00  0.00     0.227 C 
HETATM   19  C   UNL     1      38.595   7.225  -7.657  1.00  0.00     0.250 C 
HETATM   20  C   UNL     1      35.210  10.013  -8.473  1.00  0.00     0.250 C 
HETATM   21  C   UNL     1      34.125   4.670  -7.715  1.00  0.00     0.250 C 
HETATM   22  C   UNL     1      37.203   9.518  -6.104  1.00  0.00     0.283 C 
HETATM   23  C   UNL     1      37.064   4.452  -8.619  1.00  0.00     0.283 C 
HETATM   24  C   UNL     1      32.400   7.772  -8.304  1.00  0.00     0.283 C 
HETATM   25  C   UNL     1      39.517   5.171  -6.483  1.00  0.00     0.153 C 
HETATM   26  C   UNL     1      34.091  10.502  -6.243  1.00  0.00     0.153 C 
HETATM   27  C   UNL     1      34.169   6.497  -5.979  1.00  0.00     0.153 C 
ENDROOT
BRANCH  16  28
HETATM   28  C   UNL     1      40.595   8.356  -6.643  1.00  0.00     0.016 C 
HETATM   29  C   UNL     1      40.863   9.707  -7.303  1.00  0.00     0.012 C 
HETATM   30  C   UNL     1      41.276   8.285  -5.276  1.00  0.00     0.012 C 
ENDBRANCH  16  28
BRANCH  14  31
HETATM   31  C   UNL     1      36.552  11.836  -5.449  1.00  0.00     0.010 C 
HETATM   32  C   UNL     1      37.835  11.751  -4.626  1.00  0.00     0.012 C 
HETATM   33  C   UNL     1      36.363  13.247  -6.002  1.00  0.00     0.012 C 
ENDBRANCH  14  31
BRANCH  13  34
HETATM   34  C   UNL     1      39.453   3.915  -9.115  1.00  0.00     0.010 C 
HETATM   35  C   UNL     1      39.852   3.981 -10.588  1.00  0.00     0.012 C 
HETATM   36  C   UNL     1      38.857   2.548  -8.783  1.00  0.00     0.012 C 
ENDBRANCH  13  34
BRANCH  18  37
HETATM   37  C   UNL     1      33.897   9.373 -10.535  1.00  0.00     0.016 C 
HETATM   38  C   UNL     1      34.087   7.909 -10.931  1.00  0.00     0.012 C 
HETATM   39  C   UNL     1      32.618   9.933 -11.155  1.00  0.00     0.012 C 
ENDBRANCH  18  37
BRANCH  17  40
HETATM   40  C   UNL     1      35.340   2.510  -7.111  1.00  0.00     0.016 C 
HETATM   41  C   UNL     1      33.990   1.913  -6.724  1.00  0.00     0.012 C 
HETATM   42  C   UNL     1      36.456   1.917  -6.253  1.00  0.00     0.012 C 
ENDBRANCH  17  40
BRANCH  15  43
HETATM   43  C   UNL     1      31.229   6.335  -6.611  1.00  0.00     0.010 C 
HETATM   44  C   UNL     1      31.067   7.705  -5.956  1.00  0.00     0.012 C 
HETATM   45  C   UNL     1      29.908   5.868  -7.214  1.00  0.00     0.012 C 
ENDBRANCH  15  43
TORSDOF 6
ENDMDL
MODEL 17
REMARK VINA RESULT:    -5.007     18.300     22.639
REMARK INTER + INTRA:          -5.624
REMARK INTER:                  -6.660
REMARK INTRA:                   1.036
REMARK UNBOUND:                 1.139
REMARK  6 active torsions:
REMARK  status: ('A' for Active; 'I' for Inactive)
REMARK    1  A    between atoms: C_13  and  C_16 
REMARK    2  A    between atoms: C_14  and  C_17 
REMARK    3  A    between atoms: C_15  and  C_18 
REMARK    4  A    between atoms: C_19  and  C_22 
REMARK    5  A    between atoms: C_20  and  C_23 
REMARK    6  A    between atoms: C_21  and  C_24 
ROOT
HETATM    1  O   UNL     1      25.556  23.479  -2.980  1.00  0.00    -0.304 OA
HETATM    2  O   UNL     1      27.213  27.440  -0.090  1.00  0.00    -0.304 OA
HETATM    3  O   UNL     1      28.340  27.560  -4.680  1.00  0.00    -0.304 OA
HETATM    4  O   UNL     1      24.963  25.960  -2.523  1.00  0.00    -0.270 OA
HETATM    5  O   UNL     1      25.661  25.971  -5.383  1.00  0.00    -0.270 OA
HETATM    6  O   UNL     1      28.709  29.998  -1.402  1.00  0.00    -0.270 OA
HETATM    7  O   UNL     1      27.826  23.785  -2.707  1.00  0.00    -0.263 OA
HETATM    8  O   UNL     1      26.032  29.408  -0.274  1.00  0.00    -0.263 OA
HETATM    9  O   UNL     1      29.943  28.692  -5.874  1.00  0.00    -0.263 OA
HETATM   10  N   UNL     1      25.096  25.883  -0.215  1.00  0.00    -0.340 N 
HETATM   11  N   UNL     1      27.615  24.720  -5.383  1.00  0.00    -0.340 N 
HETATM   12  N   UNL     1      29.487  27.994  -2.294  1.00  0.00    -0.340 N 
HETATM   13  C   UNL     1      24.814  27.332  -0.131  1.00  0.00     0.190 C 
HETATM   14  C   UNL     1      26.879  23.521  -4.933  1.00  0.00     0.190 C 
HETATM   15  C   UNL     1      30.100  28.659  -3.462  1.00  0.00     0.190 C 
HETATM   16  C   UNL     1      25.301  23.783  -1.591  1.00  0.00     0.227 C 
HETATM   17  C   UNL     1      28.503  28.066   0.010  1.00  0.00     0.227 C 
HETATM   18  C   UNL     1      27.663  27.177  -5.892  1.00  0.00     0.227 C 
HETATM   19  C   UNL     1      25.110  25.298  -1.489  1.00  0.00     0.250 C 
HETATM   20  C   UNL     1      26.886  25.912  -5.535  1.00  0.00     0.250 C 
HETATM   21  C   UNL     1      28.896  28.782  -1.291  1.00  0.00     0.250 C 
HETATM   22  C   UNL     1      26.845  23.601  -3.416  1.00  0.00     0.283 C 
HETATM   23  C   UNL     1      26.079  28.185  -0.191  1.00  0.00     0.283 C 
HETATM   24  C   UNL     1      29.474  28.303  -4.809  1.00  0.00     0.283 C 
HETATM   25  C   UNL     1      25.378  25.167   1.032  1.00  0.00     0.153 C 
HETATM   26  C   UNL     1      29.059  24.594  -5.604  1.00  0.00     0.153 C 
HETATM   27  C   UNL     1      29.684  26.550  -2.155  1.00  0.00     0.153 C 
ENDROOT
BRANCH  16  28
HETATM   28  C   UNL     1      24.022  23.052  -1.208  1.00  0.00     0.016 C 
HETATM   29  C   UNL     1      22.817  23.987  -1.306  1.00  0.00     0.012 C 
HETATM   30  C   UNL     1      23.817  21.822  -2.092  1.00  0.00     0.012 C 
ENDBRANCH  16  28
BRANCH  14  31
HETATM   31  C   UNL     1      27.451  22.180  -5.377  1.00  0.00     0.010 C 
HETATM   32  C   UNL     1      26.959  21.058  -4.465  1.00  0.00     0.012 C 
HETATM   33  C   UNL     1      27.079  21.891  -6.829  1.00  0.00     0.012 C 
ENDBRANCH  14  31
BRANCH  13  34
HETATM   34  C   UNL     1      23.983  27.728   1.089  1.00  0.00     0.010 C 
HETATM   35  C   UNL     1      22.790  28.588   0.673  1.00  0.00     0.012 C 
HETATM   36  C   UNL     1      24.842  28.465   2.113  1.00  0.00     0.012 C 
ENDBRANCH  13  34
BRANCH  18  37
HETATM   37  C   UNL     1      26.732  28.312  -6.312  1.00  0.00     0.016 C 
HETATM   38  C   UNL     1      26.613  29.351  -5.197  1.00  0.00     0.012 C 
HETATM   39  C   UNL     1      27.224  28.965  -7.602  1.00  0.00     0.012 C 
ENDBRANCH  18  37
BRANCH  17  40
HETATM   40  C   UNL     1      28.600  28.974   1.236  1.00  0.00     0.016 C 
HETATM   41  C   UNL     1      29.978  29.629   1.312  1.00  0.00     0.012 C 
HETATM   42  C   UNL     1      28.309  28.186   2.512  1.00  0.00     0.012 C 
ENDBRANCH  17  40
BRANCH  15  43
HETATM   43  C   UNL     1      31.613  28.433  -3.499  1.00  0.00     0.010 C 
HETATM   44  C   UNL     1      31.969  27.377  -4.542  1.00  0.00     0.012 C 
HETATM   45  C   UNL     1      32.341  29.742  -3.788  1.00  0.00     0.012 C 
ENDBRANCH  15  43
TORSDOF 6
ENDMDL
MODEL 18
REMARK VINA RESULT:    -4.932     19.657     23.102
REMARK INTER + INTRA:          -5.523
REMARK INTER:                  -6.876
REMARK INTRA:                   1.353
REMARK UNBOUND:                 1.139
REMARK  6 active torsions:
REMARK  status: ('A' for Active; 'I' for Inactive)
REMARK    1  A    between atoms: C_13  and  C_16 
REMARK    2  A    between atoms: C_14  and  C_17 
REMARK    3  A    between atoms: C_15  and  C_18 
REMARK    4  A    between atoms: C_19  and  C_22 
REMARK    5  A    between atoms: C_20  and  C_23 
REMARK    6  A    between atoms: C_21  and  C_24 
ROOT
HETATM    1  O   UNL     1      29.270  27.332   0.328  1.00  0.00    -0.304 OA
HETATM    2  O   UNL     1      27.955  25.606  -4.370  1.00  0.00    -0.304 OA
HETATM    3  O   UNL     1      24.544  25.618  -1.096  1.00  0.00    -0.304 OA
HETATM    4  O   UNL     1      27.981  28.139  -1.771  1.00  0.00    -0.270 OA
HETATM    5  O   UNL     1      25.901  28.141   0.314  1.00  0.00    -0.270 OA
HETATM    6  O   UNL     1      24.895  24.828  -5.105  1.00  0.00    -0.270 OA
HETATM    7  O   UNL     1      28.639  25.127   0.089  1.00  0.00    -0.263 OA
HETATM    8  O   UNL     1      26.758  27.057  -5.698  1.00  0.00    -0.263 OA
HETATM    9  O   UNL     1      22.539  24.513  -0.913  1.00  0.00    -0.263 OA
HETATM   10  N   UNL     1      29.523  27.457  -3.354  1.00  0.00    -0.340 N 
HETATM   11  N   UNL     1      26.270  26.088   1.331  1.00  0.00    -0.340 N 
HETATM   12  N   UNL     1      25.513  24.014  -3.015  1.00  0.00    -0.340 N 
HETATM   13  C   UNL     1      28.633  27.909  -4.444  1.00  0.00     0.190 C 
HETATM   14  C   UNL     1      27.604  26.525   1.791  1.00  0.00     0.190 C 
HETATM   15  C   UNL     1      24.113  23.790  -2.599  1.00  0.00     0.190 C 
HETATM   16  C   UNL     1      30.040  27.293  -0.893  1.00  0.00     0.227 C 
HETATM   17  C   UNL     1      27.241  24.428  -4.782  1.00  0.00     0.227 C 
HETATM   18  C   UNL     1      24.191  26.501  -0.014  1.00  0.00     0.227 C 
HETATM   19  C   UNL     1      29.090  27.662  -2.036  1.00  0.00     0.250 C 
HETATM   20  C   UNL     1      25.522  26.990   0.555  1.00  0.00     0.250 C 
HETATM   21  C   UNL     1      25.775  24.455  -4.324  1.00  0.00     0.250 C 
HETATM   22  C   UNL     1      28.558  26.212   0.650  1.00  0.00     0.283 C 
HETATM   23  C   UNL     1      27.661  26.824  -4.902  1.00  0.00     0.283 C 
HETATM   24  C   UNL     1      23.639  24.660  -1.437  1.00  0.00     0.283 C 
HETATM   25  C   UNL     1      30.777  26.793  -3.724  1.00  0.00     0.153 C 
HETATM   26  C   UNL     1      25.834  24.734   1.684  1.00  0.00     0.153 C 
HETATM   27  C   UNL     1      26.569  23.591  -2.093  1.00  0.00     0.153 C 
ENDROOT
BRANCH  16  28
HETATM   28  C   UNL     1      31.142  28.332  -0.753  1.00  0.00     0.016 C 
HETATM   29  C   UNL     1      30.720  29.439   0.214  1.00  0.00     0.012 C 
HETATM   30  C   UNL     1      32.443  27.681  -0.285  1.00  0.00     0.012 C 
ENDBRANCH  16  28
BRANCH  14  31
HETATM   31  C   UNL     1      28.105  25.894   3.084  1.00  0.00     0.010 C 
HETATM   32  C   UNL     1      29.623  26.022   3.192  1.00  0.00     0.012 C 
HETATM   33  C   UNL     1      27.426  26.534   4.292  1.00  0.00     0.012 C 
ENDBRANCH  14  31
BRANCH  13  34
HETATM   34  C   UNL     1      29.378  28.476  -5.652  1.00  0.00     0.010 C 
HETATM   35  C   UNL     1      28.927  29.908  -5.940  1.00  0.00     0.012 C 
HETATM   36  C   UNL     1      29.170  27.593  -6.880  1.00  0.00     0.012 C 
ENDBRANCH  13  34
BRANCH  18  37
HETATM   37  C   UNL     1      23.360  27.652  -0.574  1.00  0.00     0.016 C 
HETATM   38  C   UNL     1      22.850  28.548   0.555  1.00  0.00     0.012 C 
HETATM   39  C   UNL     1      24.173  28.467  -1.578  1.00  0.00     0.012 C 
ENDBRANCH  18  37
BRANCH  17  40
HETATM   40  C   UNL     1      27.386  24.171  -6.282  1.00  0.00     0.016 C 
HETATM   41  C   UNL     1      26.673  22.880  -6.678  1.00  0.00     0.012 C 
HETATM   42  C   UNL     1      28.860  24.114  -6.677  1.00  0.00     0.012 C 
ENDBRANCH  17  40
BRANCH  15  43
HETATM   43  C   UNL     1      23.851  22.312  -2.303  1.00  0.00     0.010 C 
HETATM   44  C   UNL     1      23.459  22.123  -0.839  1.00  0.00     0.012 C 
HETATM   45  C   UNL     1      22.765  21.767  -3.226  1.00  0.00     0.012 C 
ENDBRANCH  15  43
TORSDOF 6
ENDMDL
MODEL 19
REMARK VINA RESULT:    -4.852     18.736     23.018
REMARK INTER + INTRA:          -5.415
REMARK INTER:                  -6.127
REMARK INTRA:                   0.712
REMARK UNBOUND:                 1.139
REMARK  6 active torsions:
REMARK  status: ('A' for Active; 'I' for Inactive)
REMARK    1  A    between atoms: C_13  and  C_16 
REMARK    2  A    between atoms: C_14  and  C_17 
REMARK    3  A    between atoms: C_15  and  C_18 
REMARK    4  A    between atoms: C_19  and  C_22 
REMARK    5  A    between atoms: C_20  and  C_23 
REMARK    6  A    between atoms: C_21  and  C_24 
ROOT
HETATM    1  O   UNL     1      29.394  24.724  -3.881  1.00  0.00    -0.304 OA
HETATM    2  O   UNL     1      29.436  26.656   0.920  1.00  0.00    -0.304 OA
HETATM    3  O   UNL     1      25.188  25.862  -0.998  1.00  0.00    -0.304 OA
HETATM    4  O   UNL     1      29.022  23.932  -1.441  1.00  0.00    -0.270 OA
HETATM    5  O   UNL     1      26.402  23.445  -2.694  1.00  0.00    -0.270 OA
HETATM    6  O   UNL     1      26.707  27.050   2.623  1.00  0.00    -0.270 OA
HETATM    7  O   UNL     1      28.522  26.828  -3.520  1.00  0.00    -0.263 OA
HETATM    8  O   UNL     1      29.002  25.173   2.627  1.00  0.00    -0.263 OA
HETATM    9  O   UNL     1      23.082  26.648  -0.527  1.00  0.00    -0.263 OA
HETATM   10  N   UNL     1      30.865  24.967  -0.502  1.00  0.00    -0.340 N 
HETATM   11  N   UNL     1      26.069  25.430  -3.848  1.00  0.00    -0.340 N 
HETATM   12  N   UNL     1      26.457  27.754   0.420  1.00  0.00    -0.340 N 
HETATM   13  C   UNL     1      30.472  24.491   0.841  1.00  0.00     0.190 C 
HETATM   14  C   UNL     1      27.230  25.150  -4.718  1.00  0.00     0.190 C 
HETATM   15  C   UNL     1      24.981  27.737   0.496  1.00  0.00     0.190 C 
HETATM   16  C   UNL     1      30.506  24.982  -2.996  1.00  0.00     0.227 C 
HETATM   17  C   UNL     1      28.714  27.752   1.507  1.00  0.00     0.227 C 
HETATM   18  C   UNL     1      24.650  24.845  -1.863  1.00  0.00     0.227 C 
HETATM   19  C   UNL     1      30.062  24.584  -1.586  1.00  0.00     0.250 C 
HETATM   20  C   UNL     1      25.779  24.502  -2.832  1.00  0.00     0.250 C 
HETATM   21  C   UNL     1      27.205  27.474   1.576  1.00  0.00     0.250 C 
HETATM   22  C   UNL     1      28.441  25.697  -3.982  1.00  0.00     0.283 C 
HETATM   23  C   UNL     1      29.540  25.462   1.563  1.00  0.00     0.283 C 
HETATM   24  C   UNL     1      24.301  26.707  -0.403  1.00  0.00     0.283 C 
HETATM   25  C   UNL     1      32.042  25.834  -0.605  1.00  0.00     0.153 C 
HETATM   26  C   UNL     1      25.324  26.671  -4.080  1.00  0.00     0.153 C 
HETATM   27  C   UNL     1      27.064  28.240  -0.821  1.00  0.00     0.153 C 
ENDROOT
BRANCH  16  28
HETATM   28  C   UNL     1      31.656  24.104  -3.466  1.00  0.00     0.016 C 
HETATM   29  C   UNL     1      31.129  22.806  -4.076  1.00  0.00     0.012 C 
HETATM   30  C   UNL     1      32.531  24.850  -4.472  1.00  0.00     0.012 C 
ENDBRANCH  16  28
BRANCH  14  31
HETATM   31  C   UNL     1      27.165  25.728  -6.126  1.00  0.00     0.010 C 
HETATM   32  C   UNL     1      28.563  25.825  -6.733  1.00  0.00     0.012 C 
HETATM   33  C   UNL     1      26.253  24.883  -7.013  1.00  0.00     0.012 C 
ENDBRANCH  14  31
BRANCH  13  34
HETATM   34  C   UNL     1      31.657  24.147   1.743  1.00  0.00     0.010 C 
HETATM   35  C   UNL     1      31.482  22.757   2.356  1.00  0.00     0.012 C 
HETATM   36  C   UNL     1      31.825  25.197   2.839  1.00  0.00     0.012 C 
ENDBRANCH  13  34
BRANCH  18  37
HETATM   37  C   UNL     1      24.252  23.641  -1.012  1.00  0.00     0.016 C 
HETATM   38  C   UNL     1      24.684  23.842   0.440  1.00  0.00     0.012 C 
HETATM   39  C   UNL     1      22.747  23.395  -1.094  1.00  0.00     0.012 C 
ENDBRANCH  18  37
BRANCH  17  40
HETATM   40  C   UNL     1      29.301  28.160   2.859  1.00  0.00     0.016 C 
HETATM   41  C   UNL     1      28.477  29.282   3.486  1.00  0.00     0.012 C 
HETATM   42  C   UNL     1      30.760  28.586   2.704  1.00  0.00     0.012 C 
ENDBRANCH  17  40
BRANCH  15  43
HETATM   43  C   UNL     1      24.395  29.129   0.254  1.00  0.00     0.010 C 
HETATM   44  C   UNL     1      23.819  29.228  -1.156  1.00  0.00     0.012 C 
HETATM   45  C   UNL     1      23.328  29.447   1.296  1.00  0.00     0.012 C 
ENDBRANCH  15  43
TORSDOF 6
ENDMDL
MODEL 20
REMARK VINA RESULT:    -4.778     19.144     23.363
REMARK INTER + INTRA:          -5.315
REMARK INTER:                  -6.294
REMARK INTRA:                   0.979
REMARK UNBOUND:                 1.139
REMARK  6 active torsions:
REMARK  status: ('A' for Active; 'I' for Inactive)
REMARK    1  A    between atoms: C_13  and  C_16 
REMARK    2  A    between atoms: C_14  and  C_17 
REMARK    3  A    between atoms: C_15  and  C_18 
REMARK    4  A    between atoms: C_19  and  C_22 
REMARK    5  A    between atoms: C_20  and  C_23 
REMARK    6  A    between atoms: C_21  and  C_24 
ROOT
HETATM    1  O   UNL     1      28.021  28.041   0.549  1.00  0.00    -0.304 OA
HETATM    2  O   UNL     1      29.859  24.091   3.343  1.00  0.00    -0.304 OA
HETATM    3  O   UNL     1      33.009  26.498   0.766  1.00  0.00    -0.304 OA
HETATM    4  O   UNL     1      29.344  27.632   2.741  1.00  0.00    -0.270 OA
HETATM    5  O   UNL     1      31.259  29.148   1.095  1.00  0.00    -0.270 OA
HETATM    6  O   UNL     1      33.034  23.466   3.528  1.00  0.00    -0.270 OA
HETATM    7  O   UNL     1      28.933  26.230  -0.549  1.00  0.00    -0.263 OA
HETATM    8  O   UNL     1      30.958  24.636   5.291  1.00  0.00    -0.263 OA
HETATM    9  O   UNL     1      35.116  26.003  -0.000  1.00  0.00    -0.263 OA
HETATM   10  N   UNL     1      28.009  25.944   3.589  1.00  0.00    -0.340 N 
HETATM   11  N   UNL     1      31.075  28.056  -0.944  1.00  0.00    -0.340 N 
HETATM   12  N   UNL     1      32.379  23.956   1.350  1.00  0.00    -0.340 N 
HETATM   13  C   UNL     1      28.910  25.789   4.751  1.00  0.00     0.190 C 
HETATM   14  C   UNL     1      29.669  28.488  -1.079  1.00  0.00     0.190 C 
HETATM   15  C   UNL     1      33.763  24.218   0.906  1.00  0.00     0.190 C 
HETATM   16  C   UNL     1      27.348  27.185   1.499  1.00  0.00     0.227 C 
HETATM   17  C   UNL     1      30.739  23.009   2.991  1.00  0.00     0.227 C 
HETATM   18  C   UNL     1      33.175  27.886   0.421  1.00  0.00     0.227 C 
HETATM   19  C   UNL     1      28.322  26.942   2.655  1.00  0.00     0.250 C 
HETATM   20  C   UNL     1      31.759  28.424   0.228  1.00  0.00     0.250 C 
HETATM   21  C   UNL     1      32.155  23.504   2.662  1.00  0.00     0.250 C 
HETATM   22  C   UNL     1      28.842  27.436  -0.361  1.00  0.00     0.283 C 
HETATM   23  C   UNL     1      30.037  24.791   4.496  1.00  0.00     0.283 C 
HETATM   24  C   UNL     1      34.046  25.660   0.490  1.00  0.00     0.283 C 
HETATM   25  C   UNL     1      26.875  25.023   3.474  1.00  0.00     0.153 C 
HETATM   26  C   UNL     1      31.649  27.244  -2.021  1.00  0.00     0.153 C 
HETATM   27  C   UNL     1      31.321  24.013   0.339  1.00  0.00     0.153 C 
ENDROOT
BRANCH  16  28
HETATM   28  C   UNL     1      26.120  27.943   1.980  1.00  0.00     0.016 C 
HETATM   29  C   UNL     1      26.295  29.446   1.766  1.00  0.00     0.012 C 
HETATM   30  C   UNL     1      24.863  27.445   1.268  1.00  0.00     0.012 C 
ENDBRANCH  16  28
BRANCH  14  31
HETATM   31  C   UNL     1      29.161  28.673  -2.504  1.00  0.00     0.010 C 
HETATM   32  C   UNL     1      27.637  28.601  -2.545  1.00  0.00     0.012 C 
HETATM   33  C   UNL     1      29.651  30.000  -3.080  1.00  0.00     0.012 C 
ENDBRANCH  14  31
BRANCH  13  34
HETATM   34  C   UNL     1      28.187  25.429   6.048  1.00  0.00     0.010 C 
HETATM   35  C   UNL     1      28.003  26.667   6.925  1.00  0.00     0.012 C 
HETATM   36  C   UNL     1      28.946  24.344   6.808  1.00  0.00     0.012 C 
ENDBRANCH  13  34
BRANCH  18  37
HETATM   37  C   UNL     1      33.896  28.591   1.566  1.00  0.00     0.016 C 
HETATM   38  C   UNL     1      33.962  27.688   2.798  1.00  0.00     0.012 C 
HETATM   39  C   UNL     1      35.299  29.019   1.141  1.00  0.00     0.012 C 
ENDBRANCH  18  37
BRANCH  17  40
HETATM   40  C   UNL     1      30.730  21.904   4.047  1.00  0.00     0.016 C 
HETATM   41  C   UNL     1      31.533  20.696   3.568  1.00  0.00     0.012 C 
HETATM   42  C   UNL     1      29.298  21.496   4.387  1.00  0.00     0.012 C 
ENDBRANCH  17  40
BRANCH  15  43
HETATM   43  C   UNL     1      34.184  23.250  -0.201  1.00  0.00     0.010 C 
HETATM   44  C   UNL     1      35.704  23.223  -0.338  1.00  0.00     0.012 C 
HETATM   45  C   UNL     1      33.644  21.851   0.080  1.00  0.00     0.012 C 
ENDBRANCH  15  43
TORSDOF 6
ENDMDL
