MODEL 1
REMARK VINA RESULT:    -6.036      0.000      0.000
REMARK INTER + INTRA:          -7.215
REMARK INTER:                  -8.153
REMARK INTRA:                   0.938
REMARK UNBOUND:                 0.938
REMARK  6 active torsions:
REMARK  status: ('A' for Active; 'I' for Inactive)
REMARK    1  A    between atoms: C_13  and  C_16 
REMARK    2  A    between atoms: C_14  and  C_17 
REMARK    3  A    between atoms: C_15  and  C_18 
REMARK    4  A    between atoms: C_19  and  C_22 
REMARK    5  A    between atoms: C_20  and  C_23 
REMARK    6  A    between atoms: C_21  and  C_24 
ROOT
HETATM    1  O   UNL     1      47.059  42.302  43.114  1.00  0.00    -0.304 OA
HETATM    2  O   UNL     1      43.207  42.546  46.561  1.00  0.00    -0.304 OA
HETATM    3  O   UNL     1      42.083  43.504  42.069  1.00  0.00    -0.304 OA
HETATM    4  O   UNL     1      45.014  40.904  43.877  1.00  0.00    -0.270 OA
HETATM    5  O   UNL     1      44.375  41.519  41.069  1.00  0.00    -0.270 OA
HETATM    6  O   UNL     1      40.139  43.064  45.654  1.00  0.00    -0.270 OA
HETATM    7  O   UNL     1      46.041  44.334  43.503  1.00  0.00    -0.263 OA
HETATM    8  O   UNL     1      41.751  40.763  46.601  1.00  0.00    -0.263 OA
HETATM    9  O   UNL     1      40.322  44.609  41.094  1.00  0.00    -0.263 OA
HETATM   10  N   UNL     1      45.357  41.086  46.157  1.00  0.00    -0.340 N 
HETATM   11  N   UNL     1      44.876  43.782  40.970  1.00  0.00    -0.340 N 
HETATM   12  N   UNL     1      41.617  44.466  44.530  1.00  0.00    -0.340 N 
HETATM   13  C   UNL     1      44.117  40.328  46.424  1.00  0.00     0.190 C 
HETATM   14  C   UNL     1      46.304  43.505  41.230  1.00  0.00     0.190 C 
HETATM   15  C   UNL     1      40.630  44.801  43.483  1.00  0.00     0.190 C 
HETATM   16  C   UNL     1      47.054  41.977  44.521  1.00  0.00     0.227 C 
HETATM   17  C   UNL     1      42.200  43.547  46.788  1.00  0.00     0.227 C 
HETATM   18  C   UNL     1      42.503  42.983  40.794  1.00  0.00     0.227 C 
HETATM   19  C   UNL     1      45.722  41.282  44.817  1.00  0.00     0.250 C 
HETATM   20  C   UNL     1      43.993  42.688  40.953  1.00  0.00     0.250 C 
HETATM   21  C   UNL     1      41.222  43.655  45.609  1.00  0.00     0.250 C 
HETATM   22  C   UNL     1      46.448  43.466  42.742  1.00  0.00     0.283 C 
HETATM   23  C   UNL     1      42.885  41.225  46.522  1.00  0.00     0.283 C 
HETATM   24  C   UNL     1      40.989  44.315  42.080  1.00  0.00     0.283 C 
HETATM   25  C   UNL     1      46.099  41.612  47.306  1.00  0.00     0.153 C 
HETATM   26  C   UNL     1      44.473  45.180  40.783  1.00  0.00     0.153 C 
HETATM   27  C   UNL     1      42.913  45.146  44.482  1.00  0.00     0.153 C 
ENDROOT
BRANCH  16  28
HETATM   28  C   UNL     1      48.220  41.029  44.758  1.00  0.00     0.016 C 
HETATM   29  C   UNL     1      48.898  40.666  43.438  1.00  0.00     0.012 C 
HETATM   30  C   UNL     1      49.230  41.646  45.725  1.00  0.00     0.012 C 
ENDBRANCH  16  28
BRANCH  14  31
HETATM   31  C   UNL     1      47.296  44.494  40.631  1.00  0.00     0.010 C 
HETATM   32  C   UNL     1      48.645  44.396  41.340  1.00  0.00     0.012 C 
HETATM   33  C   UNL     1      47.459  44.251  39.133  1.00  0.00     0.012 C 
ENDBRANCH  14  31
BRANCH  13  34
HETATM   34  C   UNL     1      44.198  39.428  47.656  1.00  0.00     0.010 C 
HETATM   35  C   UNL     1      43.998  37.963  47.268  1.00  0.00     0.012 C 
HETATM   36  C   UNL     1      43.168  39.849  48.702  1.00  0.00     0.012 C 
ENDBRANCH  13  34
BRANCH  18  37
HETATM   37  C   UNL     1      41.706  41.715  40.498  1.00  0.00     0.016 C 
HETATM   38  C   UNL     1      41.198  41.083  41.794  1.00  0.00     0.012 C 
HETATM   39  C   UNL     1      40.541  42.017  39.557  1.00  0.00     0.012 C 
ENDBRANCH  18  37
BRANCH  17  40
HETATM   40  C   UNL     1      41.490  43.345  48.127  1.00  0.00     0.016 C 
HETATM   41  C   UNL     1      40.428  44.421  48.339  1.00  0.00     0.012 C 
HETATM   42  C   UNL     1      42.498  43.351  49.275  1.00  0.00     0.012 C 
ENDBRANCH  17  40
BRANCH  15  43
HETATM   43  C   UNL     1      40.322  46.298  43.468  1.00  0.00     0.010 C 
HETATM   44  C   UNL     1      41.054  46.983  42.317  1.00  0.00     0.012 C 
HETATM   45  C   UNL     1      38.818  46.533  43.365  1.00  0.00     0.012 C 
ENDBRANCH  15  43
TORSDOF 6
ENDMDL
MODEL 2
REMARK VINA RESULT:    -5.747      1.947      6.774
REMARK INTER + INTRA:          -6.825
REMARK INTER:                  -7.720
REMARK INTRA:                   0.895
REMARK UNBOUND:                 0.938
REMARK  6 active torsions:
REMARK  status: ('A' for Active; 'I' for Inactive)
REMARK    1  A    between atoms: C_13  and  C_16 
REMARK    2  A    between atoms: C_14  and  C_17 
REMARK    3  A    between atoms: C_15  and  C_18 
REMARK    4  A    between atoms: C_19  and  C_22 
REMARK    5  A    between atoms: C_20  and  C_23 
REMARK    6  A    between atoms: C_21  and  C_24 
ROOT
HETATM    1  O   UNL     1      47.435  44.317  43.004  1.00  0.00    -0.304 OA
HETATM    2  O   UNL     1      42.993  41.663  43.099  1.00  0.00    -0.304 OA
HETATM    3  O   UNL     1      45.398  41.898  47.163  1.00  0.00    -0.304 OA
HETATM    4  O   UNL     1      44.993  44.603  43.825  1.00  0.00    -0.270 OA
HETATM    5  O   UNL     1      46.545  44.757  46.323  1.00  0.00    -0.270 OA
HETATM    6  O   UNL     1      41.788  40.455  45.855  1.00  0.00    -0.270 OA
HETATM    7  O   UNL     1      47.502  42.051  43.427  1.00  0.00    -0.263 OA
HETATM    8  O   UNL     1      41.184  42.725  44.046  1.00  0.00    -0.263 OA
HETATM    9  O   UNL     1      45.359  40.641  49.084  1.00  0.00    -0.263 OA
HETATM   10  N   UNL     1      43.941  43.816  41.922  1.00  0.00    -0.340 N 
HETATM   11  N   UNL     1      47.998  42.965  46.072  1.00  0.00    -0.340 N 
HETATM   12  N   UNL     1      44.080  40.090  45.683  1.00  0.00    -0.340 N 
HETATM   13  C   UNL     1      42.619  43.974  42.564  1.00  0.00     0.190 C 
HETATM   14  C   UNL     1      48.637  43.612  44.908  1.00  0.00     0.190 C 
HETATM   15  C   UNL     1      44.223  39.799  47.125  1.00  0.00     0.190 C 
HETATM   16  C   UNL     1      46.438  44.143  41.974  1.00  0.00     0.227 C 
HETATM   17  C   UNL     1      42.676  40.363  43.625  1.00  0.00     0.227 C 
HETATM   18  C   UNL     1      46.186  42.917  47.808  1.00  0.00     0.227 C 
HETATM   19  C   UNL     1      45.069  44.204  42.657  1.00  0.00     0.250 C 
HETATM   20  C   UNL     1      46.918  43.634  46.676  1.00  0.00     0.250 C 
HETATM   21  C   UNL     1      42.797  40.318  45.156  1.00  0.00     0.250 C 
HETATM   22  C   UNL     1      47.810  43.203  43.701  1.00  0.00     0.283 C 
HETATM   23  C   UNL     1      42.184  42.730  43.337  1.00  0.00     0.283 C 
HETATM   24  C   UNL     1      45.064  40.806  47.905  1.00  0.00     0.283 C 
HETATM   25  C   UNL     1      43.984  43.231  40.579  1.00  0.00     0.153 C 
HETATM   26  C   UNL     1      48.507  41.656  46.493  1.00  0.00     0.153 C 
HETATM   27  C   UNL     1      45.270  39.948  44.843  1.00  0.00     0.153 C 
ENDROOT
BRANCH  16  28
HETATM   28  C   UNL     1      46.605  45.299  41.000  1.00  0.00     0.016 C 
HETATM   29  C   UNL     1      47.408  46.432  41.639  1.00  0.00     0.012 C 
HETATM   30  C   UNL     1      47.279  44.828  39.711  1.00  0.00     0.012 C 
ENDBRANCH  16  28
BRANCH  14  31
HETATM   31  C   UNL     1      50.105  43.274  44.679  1.00  0.00     0.010 C 
HETATM   32  C   UNL     1      50.497  43.536  43.226  1.00  0.00     0.012 C 
HETATM   33  C   UNL     1      50.995  44.074  45.627  1.00  0.00     0.012 C 
ENDBRANCH  14  31
BRANCH  13  34
HETATM   34  C   UNL     1      41.511  44.394  41.599  1.00  0.00     0.010 C 
HETATM   35  C   UNL     1      40.651  45.499  42.212  1.00  0.00     0.012 C 
HETATM   36  C   UNL     1      40.645  43.196  41.214  1.00  0.00     0.012 C 
ENDBRANCH  13  34
BRANCH  18  37
HETATM   37  C   UNL     1      45.247  43.859  48.558  1.00  0.00     0.016 C 
HETATM   38  C   UNL     1      43.794  43.598  48.163  1.00  0.00     0.012 C 
HETATM   39  C   UNL     1      45.427  43.711  50.068  1.00  0.00     0.012 C 
ENDBRANCH  18  37
BRANCH  17  40
HETATM   40  C   UNL     1      41.322  39.863  43.125  1.00  0.00     0.016 C 
HETATM   41  C   UNL     1      40.964  38.531  43.782  1.00  0.00     0.012 C 
HETATM   42  C   UNL     1      41.328  39.726  41.604  1.00  0.00     0.012 C 
ENDBRANCH  17  40
BRANCH  15  43
HETATM   43  C   UNL     1      44.738  38.378  47.357  1.00  0.00     0.010 C 
HETATM   44  C   UNL     1      44.128  37.789  48.626  1.00  0.00     0.012 C 
HETATM   45  C   UNL     1      44.430  37.495  46.151  1.00  0.00     0.012 C 
ENDBRANCH  15  43
TORSDOF 6
ENDMDL
MODEL 3
REMARK VINA RESULT:    -5.715      1.778      8.231
REMARK INTER + INTRA:          -6.782
REMARK INTER:                  -7.623
REMARK INTRA:                   0.841
REMARK UNBOUND:                 0.938
REMARK  6 active torsions:
REMARK  status: ('A' for Active; 'I' for Inactive)
REMARK    1  A    between atoms: C_13  and  C_16 
REMARK    2  A    between atoms: C_14  and  C_17 
REMARK    3  A    between atoms: C_15  and  C_18 
REMARK    4  A    between atoms: C_19  and  C_22 
REMARK    5  A    between atoms: C_20  and  C_23 
REMARK    6  A    between atoms: C_21  and  C_24 
ROOT
HETATM    1  O   UNL     1      40.341  43.730  46.916  1.00  0.00    -0.304 OA
HETATM    2  O   UNL     1      44.007  43.391  43.279  1.00  0.00    -0.304 OA
HETATM    3  O   UNL     1      44.580  40.681  47.111  1.00  0.00    -0.304 OA
HETATM    4  O   UNL     1      41.089  42.124  45.024  1.00  0.00    -0.270 OA
HETATM    5  O   UNL     1      41.411  40.478  47.445  1.00  0.00    -0.270 OA
HETATM    6  O   UNL     1      46.424  41.242  43.491  1.00  0.00    -0.270 OA
HETATM    7  O   UNL     1      42.484  44.412  47.428  1.00  0.00    -0.263 OA
HETATM    8  O   UNL     1      43.931  41.538  41.915  1.00  0.00    -0.263 OA
HETATM    9  O   UNL     1      46.402  39.629  48.031  1.00  0.00    -0.263 OA
HETATM   10  N   UNL     1      41.399  43.718  43.378  1.00  0.00    -0.340 N 
HETATM   11  N   UNL     1      42.490  41.960  48.867  1.00  0.00    -0.340 N 
HETATM   12  N   UNL     1      46.026  42.293  45.527  1.00  0.00    -0.340 N 
HETATM   13  C   UNL     1      41.873  42.682  42.436  1.00  0.00     0.190 C 
HETATM   14  C   UNL     1      41.310  42.850  48.879  1.00  0.00     0.190 C 
HETATM   15  C   UNL     1      46.765  41.268  46.294  1.00  0.00     0.190 C 
HETATM   16  C   UNL     1      40.409  44.342  45.609  1.00  0.00     0.227 C 
HETATM   17  C   UNL     1      45.441  43.430  43.372  1.00  0.00     0.227 C 
HETATM   18  C   UNL     1      43.684  39.945  47.965  1.00  0.00     0.227 C 
HETATM   19  C   UNL     1      40.997  43.300  44.654  1.00  0.00     0.250 C 
HETATM   20  C   UNL     1      42.427  40.806  48.065  1.00  0.00     0.250 C 
HETATM   21  C   UNL     1      46.002  42.214  44.124  1.00  0.00     0.250 C 
HETATM   22  C   UNL     1      41.473  43.769  47.680  1.00  0.00     0.283 C 
HETATM   23  C   UNL     1      43.381  42.452  42.519  1.00  0.00     0.283 C 
HETATM   24  C   UNL     1      45.913  40.442  47.254  1.00  0.00     0.283 C 
HETATM   25  C   UNL     1      41.419  45.113  42.928  1.00  0.00     0.153 C 
HETATM   26  C   UNL     1      43.656  42.359  49.661  1.00  0.00     0.153 C 
HETATM   27  C   UNL     1      45.504  43.445  46.266  1.00  0.00     0.153 C 
ENDROOT
BRANCH  16  28
HETATM   28  C   UNL     1      38.983  44.692  45.212  1.00  0.00     0.016 C 
HETATM   29  C   UNL     1      38.000  44.270  46.304  1.00  0.00     0.012 C 
HETATM   30  C   UNL     1      38.853  46.187  44.925  1.00  0.00     0.012 C 
ENDBRANCH  16  28
BRANCH  14  31
HETATM   31  C   UNL     1      41.104  43.669  50.146  1.00  0.00     0.010 C 
HETATM   32  C   UNL     1      40.204  44.871  49.868  1.00  0.00     0.012 C 
HETATM   33  C   UNL     1      40.513  42.803  51.256  1.00  0.00     0.012 C 
ENDBRANCH  14  31
BRANCH  13  34
HETATM   34  C   UNL     1      41.470  42.939  40.984  1.00  0.00     0.010 C 
HETATM   35  C   UNL     1      40.941  41.659  40.337  1.00  0.00     0.012 C 
HETATM   36  C   UNL     1      42.648  43.494  40.186  1.00  0.00     0.012 C 
ENDBRANCH  13  34
BRANCH  18  37
HETATM   37  C   UNL     1      43.391  38.594  47.318  1.00  0.00     0.016 C 
HETATM   38  C   UNL     1      43.824  38.594  45.852  1.00  0.00     0.012 C 
HETATM   39  C   UNL     1      44.085  37.468  48.081  1.00  0.00     0.012 C 
ENDBRANCH  18  37
BRANCH  17  40
HETATM   40  C   UNL     1      46.094  43.629  42.004  1.00  0.00     0.016 C 
HETATM   41  C   UNL     1      47.616  43.592  42.124  1.00  0.00     0.012 C 
HETATM   42  C   UNL     1      45.637  44.945  41.378  1.00  0.00     0.012 C 
ENDBRANCH  17  40
BRANCH  15  43
HETATM   43  C   UNL     1      47.960  41.878  47.028  1.00  0.00     0.010 C 
HETATM   44  C   UNL     1      47.647  42.041  48.513  1.00  0.00     0.012 C 
HETATM   45  C   UNL     1      49.204  41.016  46.831  1.00  0.00     0.012 C 
ENDBRANCH  15  43
TORSDOF 6
ENDMDL
MODEL 4
REMARK VINA RESULT:    -5.441      2.508      6.325
REMARK INTER + INTRA:          -6.411
REMARK INTER:                  -7.359
REMARK INTRA:                   0.948
REMARK UNBOUND:                 0.938
REMARK  6 active torsions:
REMARK  status: ('A' for Active; 'I' for Inactive)
REMARK    1  A    between atoms: C_13  and  C_16 
REMARK    2  A    between atoms: C_14  and  C_17 
REMARK    3  A    between atoms: C_15  and  C_18 
REMARK    4  A    between atoms: C_19  and  C_22 
REMARK    5  A    between atoms: C_20  and  C_23 
REMARK    6  A    between atoms: C_21  and  C_24 
ROOT
HETATM    1  O   UNL     1      42.457  40.961  43.229  1.00  0.00    -0.304 OA
HETATM    2  O   UNL     1      47.494  41.280  44.372  1.00  0.00    -0.304 OA
HETATM    3  O   UNL     1      45.492  45.161  42.560  1.00  0.00    -0.304 OA
HETATM    4  O   UNL     1      43.998  41.971  45.052  1.00  0.00    -0.270 OA
HETATM    5  O   UNL     1      42.707  44.351  43.894  1.00  0.00    -0.270 OA
HETATM    6  O   UNL     1      49.128  44.067  44.112  1.00  0.00    -0.270 OA
HETATM    7  O   UNL     1      43.968  41.287  41.518  1.00  0.00    -0.263 OA
HETATM    8  O   UNL     1      48.038  42.400  46.308  1.00  0.00    -0.263 OA
HETATM    9  O   UNL     1      46.341  47.028  41.527  1.00  0.00    -0.263 OA
HETATM   10  N   UNL     1      45.351  40.122  45.364  1.00  0.00    -0.340 N 
HETATM   11  N   UNL     1      42.908  43.922  41.623  1.00  0.00    -0.340 N 
HETATM   12  N   UNL     1      47.734  43.712  42.284  1.00  0.00    -0.340 N 
HETATM   13  C   UNL     1      46.178  40.866  46.337  1.00  0.00     0.190 C 
HETATM   14  C   UNL     1      42.029  42.741  41.741  1.00  0.00     0.190 C 
HETATM   15  C   UNL     1      47.794  45.127  41.860  1.00  0.00     0.190 C 
HETATM   16  C   UNL     1      43.323  40.001  43.873  1.00  0.00     0.227 C 
HETATM   17  C   UNL     1      48.609  41.777  43.612  1.00  0.00     0.227 C 
HETATM   18  C   UNL     1      44.202  45.785  42.699  1.00  0.00     0.227 C 
HETATM   19  C   UNL     1      44.249  40.786  44.807  1.00  0.00     0.250 C 
HETATM   20  C   UNL     1      43.207  44.631  42.800  1.00  0.00     0.250 C 
HETATM   21  C   UNL     1      48.514  43.291  43.375  1.00  0.00     0.250 C 
HETATM   22  C   UNL     1      42.940  41.583  42.113  1.00  0.00     0.283 C 
HETATM   23  C   UNL     1      47.332  41.619  45.679  1.00  0.00     0.283 C 
HETATM   24  C   UNL     1      46.470  45.882  41.944  1.00  0.00     0.283 C 
HETATM   25  C   UNL     1      45.761  38.757  45.020  1.00  0.00     0.153 C 
HETATM   26  C   UNL     1      43.437  44.253  40.296  1.00  0.00     0.153 C 
HETATM   27  C   UNL     1      46.996  42.781  41.428  1.00  0.00     0.153 C 
ENDROOT
BRANCH  16  28
HETATM   28  C   UNL     1      42.427  39.064  44.669  1.00  0.00     0.016 C 
HETATM   29  C   UNL     1      42.062  39.681  46.018  1.00  0.00     0.012 C 
HETATM   30  C   UNL     1      41.165  38.722  43.878  1.00  0.00     0.012 C 
ENDBRANCH  16  28
BRANCH  14  31
HETATM   31  C   UNL     1      41.212  42.390  40.504  1.00  0.00     0.010 C 
HETATM   32  C   UNL     1      41.002  40.881  40.408  1.00  0.00     0.012 C 
HETATM   33  C   UNL     1      39.869  43.118  40.523  1.00  0.00     0.012 C 
ENDBRANCH  14  31
BRANCH  13  34
HETATM   34  C   UNL     1      46.711  40.003  47.480  1.00  0.00     0.010 C 
HETATM   35  C   UNL     1      46.261  40.559  48.831  1.00  0.00     0.012 C 
HETATM   36  C   UNL     1      48.234  39.908  47.422  1.00  0.00     0.012 C 
ENDBRANCH  13  34
BRANCH  18  37
HETATM   37  C   UNL     1      44.206  46.639  43.964  1.00  0.00     0.016 C 
HETATM   38  C   UNL     1      45.451  46.352  44.803  1.00  0.00     0.012 C 
HETATM   39  C   UNL     1      44.128  48.124  43.614  1.00  0.00     0.012 C 
ENDBRANCH  18  37
BRANCH  17  40
HETATM   40  C   UNL     1      49.946  41.359  44.226  1.00  0.00     0.016 C 
HETATM   41  C   UNL     1      51.110  41.909  43.405  1.00  0.00     0.012 C 
HETATM   42  C   UNL     1      50.036  39.838  44.332  1.00  0.00     0.012 C 
ENDBRANCH  17  40
BRANCH  15  43
HETATM   43  C   UNL     1      48.401  45.263  40.463  1.00  0.00     0.010 C 
HETATM   44  C   UNL     1      47.308  45.521  39.429  1.00  0.00     0.012 C 
HETATM   45  C   UNL     1      49.439  46.381  40.439  1.00  0.00     0.012 C 
ENDBRANCH  15  43
TORSDOF 6
ENDMDL
MODEL 5
REMARK VINA RESULT:    -5.190      2.853      5.902
REMARK INTER + INTRA:          -6.073
REMARK INTER:                  -7.018
REMARK INTRA:                   0.945
REMARK UNBOUND:                 0.938
REMARK  6 active torsions:
REMARK  status: ('A' for Active; 'I' for Inactive)
REMARK    1  A    between atoms: C_13  and  C_16 
REMARK    2  A    between atoms: C_14  and  C_17 
REMARK    3  A    between atoms: C_15  and  C_18 
REMARK    4  A    between atoms: C_19  and  C_22 
REMARK    5  A    between atoms: C_20  and  C_23 
REMARK    6  A    between atoms: C_21  and  C_24 
ROOT
HETATM    1  O   UNL     1      41.543  41.701  43.441  1.00  0.00    -0.304 OA
HETATM    2  O   UNL     1      45.347  41.682  46.949  1.00  0.00    -0.304 OA
HETATM    3  O   UNL     1      42.359  45.344  47.096  1.00  0.00    -0.304 OA
HETATM    4  O   UNL     1      41.887  41.207  45.962  1.00  0.00    -0.270 OA
HETATM    5  O   UNL     1      40.014  43.479  45.991  1.00  0.00    -0.270 OA
HETATM    6  O   UNL     1      45.516  43.917  49.291  1.00  0.00    -0.270 OA
HETATM    7  O   UNL     1      43.133  43.369  43.366  1.00  0.00    -0.263 OA
HETATM    8  O   UNL     1      44.767  41.055  49.088  1.00  0.00    -0.263 OA
HETATM    9  O   UNL     1      42.497  47.446  48.009  1.00  0.00    -0.263 OA
HETATM   10  N   UNL     1      43.798  39.920  45.760  1.00  0.00    -0.340 N 
HETATM   11  N   UNL     1      40.996  44.902  44.443  1.00  0.00    -0.340 N 
HETATM   12  N   UNL     1      44.995  44.865  47.232  1.00  0.00    -0.340 N 
HETATM   13  C   UNL     1      43.891  39.792  47.229  1.00  0.00     0.190 C 
HETATM   14  C   UNL     1      40.765  43.927  43.358  1.00  0.00     0.190 C 
HETATM   15  C   UNL     1      44.510  46.121  47.842  1.00  0.00     0.190 C 
HETATM   16  C   UNL     1      42.542  40.696  43.718  1.00  0.00     0.227 C 
HETATM   17  C   UNL     1      46.267  42.710  47.356  1.00  0.00     0.227 C 
HETATM   18  C   UNL     1      40.943  45.495  46.882  1.00  0.00     0.227 C 
HETATM   19  C   UNL     1      42.712  40.637  45.239  1.00  0.00     0.250 C 
HETATM   20  C   UNL     1      40.604  44.536  45.743  1.00  0.00     0.250 C 
HETATM   21  C   UNL     1      45.554  43.874  48.058  1.00  0.00     0.250 C 
HETATM   22  C   UNL     1      41.967  42.998  43.374  1.00  0.00     0.283 C 
HETATM   23  C   UNL     1      44.699  40.919  47.871  1.00  0.00     0.283 C 
HETATM   24  C   UNL     1      43.020  46.396  47.653  1.00  0.00     0.283 C 
HETATM   25  C   UNL     1      44.865  39.323  44.951  1.00  0.00     0.153 C 
HETATM   26  C   UNL     1      41.651  46.168  44.098  1.00  0.00     0.153 C 
HETATM   27  C   UNL     1      45.031  44.793  45.770  1.00  0.00     0.153 C 
ENDROOT
BRANCH  16  28
HETATM   28  C   UNL     1      42.000  39.377  43.186  1.00  0.00     0.016 C 
HETATM   29  C   UNL     1      41.009  38.763  44.173  1.00  0.00     0.012 C 
HETATM   30  C   UNL     1      41.342  39.575  41.821  1.00  0.00     0.012 C 
ENDBRANCH  16  28
BRANCH  14  31
HETATM   31  C   UNL     1      40.569  44.511  41.965  1.00  0.00     0.010 C 
HETATM   32  C   UNL     1      40.760  43.434  40.899  1.00  0.00     0.012 C 
HETATM   33  C   UNL     1      39.188  45.150  41.839  1.00  0.00     0.012 C 
ENDBRANCH  14  31
BRANCH  13  34
HETATM   34  C   UNL     1      44.430  38.441  47.698  1.00  0.00     0.010 C 
HETATM   35  C   UNL     1      43.656  37.946  48.919  1.00  0.00     0.012 C 
HETATM   36  C   UNL     1      45.922  38.532  48.011  1.00  0.00     0.012 C 
ENDBRANCH  13  34
BRANCH  18  37
HETATM   37  C   UNL     1      40.211  45.124  48.169  1.00  0.00     0.016 C 
HETATM   38  C   UNL     1      41.167  44.459  49.159  1.00  0.00     0.012 C 
HETATM   39  C   UNL     1      39.562  46.355  48.796  1.00  0.00     0.012 C 
ENDBRANCH  18  37
BRANCH  17  40
HETATM   40  C   UNL     1      47.423  42.143  48.179  1.00  0.00     0.016 C 
HETATM   41  C   UNL     1      48.346  43.264  48.653  1.00  0.00     0.012 C 
HETATM   42  C   UNL     1      48.205  41.111  47.369  1.00  0.00     0.012 C 
ENDBRANCH  17  40
BRANCH  15  43
HETATM   43  C   UNL     1      45.339  47.320  47.378  1.00  0.00     0.010 C 
HETATM   44  C   UNL     1      44.564  48.138  46.348  1.00  0.00     0.012 C 
HETATM   45  C   UNL     1      45.734  48.188  48.569  1.00  0.00     0.012 C 
ENDBRANCH  15  43
TORSDOF 6
ENDMDL
MODEL 6
REMARK VINA RESULT:    -5.163      2.048      6.883
REMARK INTER + INTRA:          -6.036
REMARK INTER:                  -6.775
REMARK INTRA:                   0.740
REMARK UNBOUND:                 0.938
REMARK  6 active torsions:
REMARK  status: ('A' for Active; 'I' for Inactive)
REMARK    1  A    between atoms: C_13  and  C_16 
REMARK    2  A    between atoms: C_14  and  C_17 
REMARK    3  A    between atoms: C_15  and  C_18 
REMARK    4  A    between atoms: C_19  and  C_22 
REMARK    5  A    between atoms: C_20  and  C_23 
REMARK    6  A    between atoms: C_21  and  C_24 
ROOT
HETATM    1  O   UNL     1      42.569  46.996  42.895  1.00  0.00    -0.304 OA
HETATM    2  O   UNL     1      46.712  44.063  43.906  1.00  0.00    -0.304 OA
HETATM    3  O   UNL     1      42.613  41.786  43.297  1.00  0.00    -0.304 OA
HETATM    4  O   UNL     1      44.223  45.436  41.650  1.00  0.00    -0.270 OA
HETATM    5  O   UNL     1      41.639  44.070  41.290  1.00  0.00    -0.270 OA
HETATM    6  O   UNL     1      46.561  40.826  43.858  1.00  0.00    -0.270 OA
HETATM    7  O   UNL     1      42.623  45.784  44.857  1.00  0.00    -0.263 OA
HETATM    8  O   UNL     1      47.651  42.962  42.115  1.00  0.00    -0.263 OA
HETATM    9  O   UNL     1      41.877  39.693  43.889  1.00  0.00    -0.263 OA
HETATM   10  N   UNL     1      46.174  46.266  42.572  1.00  0.00    -0.340 N 
HETATM   11  N   UNL     1      40.766  44.165  43.438  1.00  0.00    -0.340 N 
HETATM   12  N   UNL     1      44.728  41.758  44.947  1.00  0.00    -0.340 N 
HETATM   13  C   UNL     1      46.972  45.259  41.840  1.00  0.00     0.190 C 
HETATM   14  C   UNL     1      40.699  45.640  43.374  1.00  0.00     0.190 C 
HETATM   15  C   UNL     1      43.936  40.513  44.852  1.00  0.00     0.190 C 
HETATM   16  C   UNL     1      43.957  47.370  43.033  1.00  0.00     0.227 C 
HETATM   17  C   UNL     1      46.908  42.989  44.841  1.00  0.00     0.227 C 
HETATM   18  C   UNL     1      41.475  41.977  42.434  1.00  0.00     0.227 C 
HETATM   19  C   UNL     1      44.788  46.273  42.363  1.00  0.00     0.250 C 
HETATM   20  C   UNL     1      41.302  43.490  42.327  1.00  0.00     0.250 C 
HETATM   21  C   UNL     1      46.058  41.759  44.491  1.00  0.00     0.250 C 
HETATM   22  C   UNL     1      42.061  46.136  43.828  1.00  0.00     0.283 C 
HETATM   23  C   UNL     1      47.140  43.956  42.619  1.00  0.00     0.283 C 
HETATM   24  C   UNL     1      42.688  40.609  43.978  1.00  0.00     0.283 C 
HETATM   25  C   UNL     1      46.881  47.160  43.494  1.00  0.00     0.153 C 
HETATM   26  C   UNL     1      40.306  43.511  44.666  1.00  0.00     0.153 C 
HETATM   27  C   UNL     1      44.139  42.880  45.680  1.00  0.00     0.153 C 
ENDROOT
BRANCH  16  28
HETATM   28  C   UNL     1      44.130  48.695  42.308  1.00  0.00     0.016 C 
HETATM   29  C   UNL     1      42.946  48.961  41.379  1.00  0.00     0.012 C 
HETATM   30  C   UNL     1      44.294  49.841  43.306  1.00  0.00     0.012 C 
ENDBRANCH  16  28
BRANCH  14  31
HETATM   31  C   UNL     1      39.598  46.294  44.200  1.00  0.00     0.010 C 
HETATM   32  C   UNL     1      39.914  47.768  44.444  1.00  0.00     0.012 C 
HETATM   33  C   UNL     1      38.245  46.144  43.507  1.00  0.00     0.012 C 
ENDBRANCH  14  31
BRANCH  13  34
HETATM   34  C   UNL     1      48.340  45.768  41.386  1.00  0.00     0.010 C 
HETATM   35  C   UNL     1      48.512  45.581  39.879  1.00  0.00     0.012 C 
HETATM   36  C   UNL     1      49.460  45.059  42.144  1.00  0.00     0.012 C 
ENDBRANCH  13  34
BRANCH  18  37
HETATM   37  C   UNL     1      41.780  41.346  41.078  1.00  0.00     0.016 C 
HETATM   38  C   UNL     1      43.284  41.131  40.909  1.00  0.00     0.012 C 
HETATM   39  C   UNL     1      41.029  40.026  40.914  1.00  0.00     0.012 C 
ENDBRANCH  18  37
BRANCH  17  40
HETATM   40  C   UNL     1      48.388  42.652  45.018  1.00  0.00     0.016 C 
HETATM   41  C   UNL     1      48.565  41.509  46.014  1.00  0.00     0.012 C 
HETATM   42  C   UNL     1      49.170  43.884  45.470  1.00  0.00     0.012 C 
ENDBRANCH  17  40
BRANCH  15  43
HETATM   43  C   UNL     1      43.579  39.974  46.238  1.00  0.00     0.010 C 
HETATM   44  C   UNL     1      42.100  40.204  46.535  1.00  0.00     0.012 C 
HETATM   45  C   UNL     1      43.925  38.492  46.339  1.00  0.00     0.012 C 
ENDBRANCH  15  43
TORSDOF 6
ENDMDL
MODEL 7
REMARK VINA RESULT:    -5.147      2.285      6.399
REMARK INTER + INTRA:          -6.014
REMARK INTER:                  -7.079
REMARK INTRA:                   1.065
REMARK UNBOUND:                 0.938
REMARK  6 active torsions:
REMARK  status: ('A' for Active; 'I' for Inactive)
REMARK    1  A    between atoms: C_13  and  C_16 
REMARK    2  A    between atoms: C_14  and  C_17 
REMARK    3  A    between atoms: C_15  and  C_18 
REMARK    4  A    between atoms: C_19  and  C_22 
REMARK    5  A    between atoms: C_20  and  C_23 
REMARK    6  A    between atoms: C_21  and  C_24 
ROOT
HETATM    1  O   UNL     1      42.348  41.143  48.224  1.00  0.00    -0.304 OA
HETATM    2  O   UNL     1      42.763  45.826  46.062  1.00  0.00    -0.304 OA
HETATM    3  O   UNL     1      43.379  42.117  43.195  1.00  0.00    -0.304 OA
HETATM    4  O   UNL     1      40.969  42.741  46.720  1.00  0.00    -0.270 OA
HETATM    5  O   UNL     1      41.372  40.396  44.985  1.00  0.00    -0.270 OA
HETATM    6  O   UNL     1      43.156  46.199  42.866  1.00  0.00    -0.270 OA
HETATM    7  O   UNL     1      44.383  41.791  47.354  1.00  0.00    -0.263 OA
HETATM    8  O   UNL     1      40.959  46.549  44.826  1.00  0.00    -0.263 OA
HETATM    9  O   UNL     1      44.378  41.868  41.143  1.00  0.00    -0.263 OA
HETATM   10  N   UNL     1      41.318  44.677  47.936  1.00  0.00    -0.340 N 
HETATM   11  N   UNL     1      43.631  39.975  45.301  1.00  0.00    -0.340 N 
HETATM   12  N   UNL     1      44.503  44.499  43.707  1.00  0.00    -0.340 N 
HETATM   13  C   UNL     1      40.558  45.463  46.941  1.00  0.00     0.190 C 
HETATM   14  C   UNL     1      43.400  39.655  46.725  1.00  0.00     0.190 C 
HETATM   15  C   UNL     1      44.744  43.918  42.370  1.00  0.00     0.190 C 
HETATM   16  C   UNL     1      42.123  42.450  48.795  1.00  0.00     0.227 C 
HETATM   17  C   UNL     1      43.757  46.381  45.184  1.00  0.00     0.227 C 
HETATM   18  C   UNL     1      42.776  40.813  43.095  1.00  0.00     0.227 C 
HETATM   19  C   UNL     1      41.426  43.295  47.726  1.00  0.00     0.250 C 
HETATM   20  C   UNL     1      42.522  40.376  44.536  1.00  0.00     0.250 C 
HETATM   21  C   UNL     1      43.763  45.689  43.813  1.00  0.00     0.250 C 
HETATM   22  C   UNL     1      43.472  40.982  47.463  1.00  0.00     0.283 C 
HETATM   23  C   UNL     1      41.436  45.996  45.811  1.00  0.00     0.283 C 
HETATM   24  C   UNL     1      44.167  42.519  42.161  1.00  0.00     0.283 C 
HETATM   25  C   UNL     1      41.938  45.400  49.050  1.00  0.00     0.153 C 
HETATM   26  C   UNL     1      45.004  39.886  44.793  1.00  0.00     0.153 C 
HETATM   27  C   UNL     1      45.202  43.895  44.843  1.00  0.00     0.153 C 
ENDROOT
BRANCH  16  28
HETATM   28  C   UNL     1      41.217  42.253  50.002  1.00  0.00     0.016 C 
HETATM   29  C   UNL     1      40.471  40.923  49.905  1.00  0.00     0.012 C 
HETATM   30  C   UNL     1      42.021  42.321  51.299  1.00  0.00     0.012 C 
ENDBRANCH  16  28
BRANCH  14  31
HETATM   31  C   UNL     1      44.363  38.653  47.350  1.00  0.00     0.010 C 
HETATM   32  C   UNL     1      44.007  38.407  48.814  1.00  0.00     0.012 C 
HETATM   33  C   UNL     1      44.355  37.342  46.568  1.00  0.00     0.012 C 
ENDBRANCH  14  31
BRANCH  13  34
HETATM   34  C   UNL     1      39.749  46.608  47.549  1.00  0.00     0.010 C 
HETATM   35  C   UNL     1      38.306  46.576  47.045  1.00  0.00     0.012 C 
HETATM   36  C   UNL     1      40.395  47.955  47.231  1.00  0.00     0.012 C 
ENDBRANCH  13  34
BRANCH  18  37
HETATM   37  C   UNL     1      41.476  40.934  42.305  1.00  0.00     0.016 C 
HETATM   38  C   UNL     1      41.182  42.397  41.973  1.00  0.00     0.012 C 
HETATM   39  C   UNL     1      41.540  40.098  41.028  1.00  0.00     0.012 C 
ENDBRANCH  18  37
BRANCH  17  40
HETATM   40  C   UNL     1      43.637  47.901  45.078  1.00  0.00     0.016 C 
HETATM   41  C   UNL     1      44.661  48.453  44.088  1.00  0.00     0.012 C 
HETATM   42  C   UNL     1      43.811  48.551  46.449  1.00  0.00     0.012 C 
ENDBRANCH  17  40
BRANCH  15  43
HETATM   43  C   UNL     1      46.231  43.943  42.013  1.00  0.00     0.010 C 
HETATM   44  C   UNL     1      46.428  43.648  40.528  1.00  0.00     0.012 C 
HETATM   45  C   UNL     1      46.846  45.290  42.381  1.00  0.00     0.012 C 
ENDBRANCH  15  43
TORSDOF 6
ENDMDL
MODEL 8
REMARK VINA RESULT:    -5.041      2.209      7.880
REMARK INTER + INTRA:          -5.870
REMARK INTER:                  -6.673
REMARK INTRA:                   0.803
REMARK UNBOUND:                 0.938
REMARK  6 active torsions:
REMARK  status: ('A' for Active; 'I' for Inactive)
REMARK    1  A    between atoms: C_13  and  C_16 
REMARK    2  A    between atoms: C_14  and  C_17 
REMARK    3  A    between atoms: C_15  and  C_18 
REMARK    4  A    between atoms: C_19  and  C_22 
REMARK    5  A    between atoms: C_20  and  C_23 
REMARK    6  A    between atoms: C_21  and  C_24 
ROOT
HETATM    1  O   UNL     1      41.346  46.814  43.293  1.00  0.00    -0.304 OA
HETATM    2  O   UNL     1      46.193  45.423  42.131  1.00  0.00    -0.304 OA
HETATM    3  O   UNL     1      43.219  41.936  43.293  1.00  0.00    -0.304 OA
HETATM    4  O   UNL     1      42.667  45.742  41.337  1.00  0.00    -0.270 OA
HETATM    5  O   UNL     1      40.780  43.612  42.095  1.00  0.00    -0.270 OA
HETATM    6  O   UNL     1      47.075  42.309  41.947  1.00  0.00    -0.270 OA
HETATM    7  O   UNL     1      42.654  45.859  44.935  1.00  0.00    -0.263 OA
HETATM    8  O   UNL     1      46.527  44.513  40.042  1.00  0.00    -0.263 OA
HETATM    9  O   UNL     1      43.535  39.779  44.016  1.00  0.00    -0.263 OA
HETATM   10  N   UNL     1      44.447  47.219  41.330  1.00  0.00    -0.340 N 
HETATM   11  N   UNL     1      40.982  43.622  44.407  1.00  0.00    -0.340 N 
HETATM   12  N   UNL     1      45.734  42.716  43.804  1.00  0.00    -0.340 N 
HETATM   13  C   UNL     1      45.106  46.450  40.253  1.00  0.00     0.190 C 
HETATM   14  C   UNL     1      40.428  44.990  44.476  1.00  0.00     0.190 C 
HETATM   15  C   UNL     1      45.426  41.284  43.996  1.00  0.00     0.190 C 
HETATM   16  C   UNL     1      42.449  47.613  42.813  1.00  0.00     0.227 C 
HETATM   17  C   UNL     1      47.117  44.552  42.805  1.00  0.00     0.227 C 
HETATM   18  C   UNL     1      41.822  41.684  43.051  1.00  0.00     0.227 C 
HETATM   19  C   UNL     1      43.192  46.774  41.770  1.00  0.00     0.250 C 
HETATM   20  C   UNL     1      41.147  43.051  43.132  1.00  0.00     0.250 C 
HETATM   21  C   UNL     1      46.641  43.092  42.797  1.00  0.00     0.250 C 
HETATM   22  C   UNL     1      41.612  45.926  44.297  1.00  0.00     0.283 C 
HETATM   23  C   UNL     1      46.009  45.340  40.785  1.00  0.00     0.283 C 
HETATM   24  C   UNL     1      43.960  40.907  43.789  1.00  0.00     0.283 C 
HETATM   25  C   UNL     1      45.165  48.368  41.889  1.00  0.00     0.153 C 
HETATM   26  C   UNL     1      41.355  42.970  45.666  1.00  0.00     0.153 C 
HETATM   27  C   UNL     1      45.213  43.660  44.795  1.00  0.00     0.153 C 
ENDROOT
BRANCH  16  28
HETATM   28  C   UNL     1      41.847  48.856  42.175  1.00  0.00     0.016 C 
HETATM   29  C   UNL     1      40.389  48.612  41.790  1.00  0.00     0.012 C 
HETATM   30  C   UNL     1      41.959  50.055  43.117  1.00  0.00     0.012 C 
ENDBRANCH  16  28
BRANCH  14  31
HETATM   31  C   UNL     1      39.669  45.339  45.751  1.00  0.00     0.010 C 
HETATM   32  C   UNL     1      39.564  46.854  45.915  1.00  0.00     0.012 C 
HETATM   33  C   UNL     1      38.281  44.703  45.741  1.00  0.00     0.012 C 
ENDBRANCH  14  31
BRANCH  13  34
HETATM   34  C   UNL     1      45.884  47.318  39.264  1.00  0.00     0.010 C 
HETATM   35  C   UNL     1      45.431  47.042  37.831  1.00  0.00     0.012 C 
HETATM   36  C   UNL     1      47.387  47.082  39.404  1.00  0.00     0.012 C 
ENDBRANCH  13  34
BRANCH  18  37
HETATM   37  C   UNL     1      41.670  41.061  41.666  1.00  0.00     0.016 C 
HETATM   38  C   UNL     1      42.966  41.201  40.867  1.00  0.00     0.012 C 
HETATM   39  C   UNL     1      41.265  39.592  41.775  1.00  0.00     0.012 C 
ENDBRANCH  18  37
BRANCH  17  40
HETATM   40  C   UNL     1      48.541  44.711  42.271  1.00  0.00     0.016 C 
HETATM   41  C   UNL     1      49.489  43.739  42.970  1.00  0.00     0.012 C 
HETATM   42  C   UNL     1      49.022  46.150  42.446  1.00  0.00     0.012 C 
ENDBRANCH  17  40
BRANCH  15  43
HETATM   43  C   UNL     1      45.919  40.786  45.356  1.00  0.00     0.010 C 
HETATM   44  C   UNL     1      45.971  39.261  45.379  1.00  0.00     0.012 C 
HETATM   45  C   UNL     1      47.289  41.377  45.675  1.00  0.00     0.012 C 
ENDBRANCH  15  43
TORSDOF 6
ENDMDL
MODEL 9
REMARK VINA RESULT:    -4.900      2.556      7.171
REMARK INTER + INTRA:          -5.680
REMARK INTER:                  -6.810
REMARK INTRA:                   1.130
REMARK UNBOUND:                 0.938
REMARK  6 active torsions:
REMARK  status: ('A' for Active; 'I' for Inactive)
REMARK    1  A    between atoms: C_13  and  C_16 
REMARK    2  A    between atoms: C_14  and  C_17 
REMARK    3  A    between atoms: C_15  and  C_18 
REMARK    4  A    between atoms: C_19  and  C_22 
REMARK    5  A    between atoms: C_20  and  C_23 
REMARK    6  A    between atoms: C_21  and  C_24 
ROOT
HETATM    1  O   UNL     1      41.071  43.780  43.882  1.00  0.00    -0.304 OA
HETATM    2  O   UNL     1      40.768  42.971  48.984  1.00  0.00    -0.304 OA
HETATM    3  O   UNL     1      44.479  41.062  46.763  1.00  0.00    -0.304 OA
HETATM    4  O   UNL     1      42.158  44.635  46.075  1.00  0.00    -0.270 OA
HETATM    5  O   UNL     1      44.436  43.444  44.637  1.00  0.00    -0.270 OA
HETATM    6  O   UNL     1      43.131  41.467  50.615  1.00  0.00    -0.270 OA
HETATM    7  O   UNL     1      40.786  41.625  44.652  1.00  0.00    -0.263 OA
HETATM    8  O   UNL     1      42.151  44.248  50.310  1.00  0.00    -0.263 OA
HETATM    9  O   UNL     1      45.929  39.366  47.303  1.00  0.00    -0.263 OA
HETATM   10  N   UNL     1      40.211  44.906  47.292  1.00  0.00    -0.340 N 
HETATM   11  N   UNL     1      43.527  41.431  43.926  1.00  0.00    -0.340 N 
HETATM   12  N   UNL     1      42.651  40.393  48.608  1.00  0.00    -0.340 N 
HETATM   13  C   UNL     1      40.988  45.309  48.483  1.00  0.00     0.190 C 
HETATM   14  C   UNL     1      42.558  42.140  43.066  1.00  0.00     0.190 C 
HETATM   15  C   UNL     1      43.919  39.635  48.617  1.00  0.00     0.190 C 
HETATM   16  C   UNL     1      40.132  44.300  44.848  1.00  0.00     0.227 C 
HETATM   17  C   UNL     1      40.906  41.771  49.764  1.00  0.00     0.227 C 
HETATM   18  C   UNL     1      45.326  41.482  45.676  1.00  0.00     0.227 C 
HETATM   19  C   UNL     1      40.923  44.622  46.118  1.00  0.00     0.250 C 
HETATM   20  C   UNL     1      44.400  42.211  44.705  1.00  0.00     0.250 C 
HETATM   21  C   UNL     1      42.335  41.210  49.707  1.00  0.00     0.250 C 
HETATM   22  C   UNL     1      41.364  42.448  43.954  1.00  0.00     0.283 C 
HETATM   23  C   UNL     1      41.388  44.123  49.358  1.00  0.00     0.283 C 
HETATM   24  C   UNL     1      44.886  39.984  47.488  1.00  0.00     0.283 C 
HETATM   25  C   UNL     1      38.756  44.795  47.430  1.00  0.00     0.153 C 
HETATM   26  C   UNL     1      43.488  39.965  43.937  1.00  0.00     0.153 C 
HETATM   27  C   UNL     1      41.702  40.112  47.529  1.00  0.00     0.153 C 
ENDROOT
BRANCH  16  28
HETATM   28  C   UNL     1      39.538  45.566  44.248  1.00  0.00     0.016 C 
HETATM   29  C   UNL     1      40.299  45.974  42.987  1.00  0.00     0.012 C 
HETATM   30  C   UNL     1      38.054  45.374  43.938  1.00  0.00     0.012 C 
ENDBRANCH  16  28
BRANCH  14  31
HETATM   31  C   UNL     1      42.106  41.397  41.815  1.00  0.00     0.010 C 
HETATM   32  C   UNL     1      40.953  42.136  41.139  1.00  0.00     0.012 C 
HETATM   33  C   UNL     1      43.271  41.221  40.844  1.00  0.00     0.012 C 
ENDBRANCH  14  31
BRANCH  13  34
HETATM   34  C   UNL     1      40.298  46.371  49.338  1.00  0.00     0.010 C 
HETATM   35  C   UNL     1      41.239  47.547  49.601  1.00  0.00     0.012 C 
HETATM   36  C   UNL     1      39.812  45.772  50.656  1.00  0.00     0.012 C 
ENDBRANCH  13  34
BRANCH  18  37
HETATM   37  C   UNL     1      46.406  42.409  46.228  1.00  0.00     0.016 C 
HETATM   38  C   UNL     1      46.087  42.810  47.669  1.00  0.00     0.012 C 
HETATM   39  C   UNL     1      47.779  41.746  46.149  1.00  0.00     0.012 C 
ENDBRANCH  18  37
BRANCH  17  40
HETATM   40  C   UNL     1      40.404  41.962  51.195  1.00  0.00     0.016 C 
HETATM   41  C   UNL     1      40.626  40.694  52.017  1.00  0.00     0.012 C 
HETATM   42  C   UNL     1      38.927  42.352  51.198  1.00  0.00     0.012 C 
ENDBRANCH  17  40
BRANCH  15  43
HETATM   43  C   UNL     1      43.666  38.127  48.657  1.00  0.00     0.010 C 
HETATM   44  C   UNL     1      44.536  37.412  47.627  1.00  0.00     0.012 C 
HETATM   45  C   UNL     1      43.927  37.580  50.057  1.00  0.00     0.012 C 
ENDBRANCH  15  43
TORSDOF 6
ENDMDL
MODEL 10
REMARK VINA RESULT:    -4.888      2.234      3.438
REMARK INTER + INTRA:          -5.664
REMARK INTER:                  -6.640
REMARK INTRA:                   0.976
REMARK UNBOUND:                 0.938
REMARK  6 active torsions:
REMARK  status: ('A' for Active; 'I' for Inactive)
REMARK    1  A    between atoms: C_13  and  C_16 
REMARK    2  A    between atoms: C_14  and  C_17 
REMARK    3  A    between atoms: C_15  and  C_18 
REMARK    4  A    between atoms: C_19  and  C_22 
REMARK    5  A    between atoms: C_20  and  C_23 
REMARK    6  A    between atoms: C_21  and  C_24 
ROOT
HETATM    1  O   UNL     1      46.640  41.307  47.082  1.00  0.00    -0.304 OA
HETATM    2  O   UNL     1      42.152  43.565  48.324  1.00  0.00    -0.304 OA
HETATM    3  O   UNL     1      42.589  42.049  43.867  1.00  0.00    -0.304 OA
HETATM    4  O   UNL     1      44.192  40.647  47.620  1.00  0.00    -0.270 OA
HETATM    5  O   UNL     1      44.527  39.709  44.849  1.00  0.00    -0.270 OA
HETATM    6  O   UNL     1      39.674  43.693  46.238  1.00  0.00    -0.270 OA
HETATM    7  O   UNL     1      46.068  43.288  46.050  1.00  0.00    -0.263 OA
HETATM    8  O   UNL     1      40.362  42.162  48.682  1.00  0.00    -0.263 OA
HETATM    9  O   UNL     1      41.486  42.563  41.919  1.00  0.00    -0.263 OA
HETATM   10  N   UNL     1      43.917  41.994  49.480  1.00  0.00    -0.340 N 
HETATM   11  N   UNL     1      45.560  41.540  43.867  1.00  0.00    -0.340 N 
HETATM   12  N   UNL     1      41.697  44.196  45.205  1.00  0.00    -0.340 N 
HETATM   13  C   UNL     1      42.508  41.566  49.607  1.00  0.00     0.190 C 
HETATM   14  C   UNL     1      46.749  41.364  44.726  1.00  0.00     0.190 C 
HETATM   15  C   UNL     1      41.151  43.978  43.849  1.00  0.00     0.190 C 
HETATM   16  C   UNL     1      46.164  41.781  48.360  1.00  0.00     0.227 C 
HETATM   17  C   UNL     1      41.390  44.588  47.661  1.00  0.00     0.227 C 
HETATM   18  C   UNL     1      43.211  40.906  43.250  1.00  0.00     0.227 C 
HETATM   19  C   UNL     1      44.677  41.427  48.447  1.00  0.00     0.250 C 
HETATM   20  C   UNL     1      44.483  40.657  44.058  1.00  0.00     0.250 C 
HETATM   21  C   UNL     1      40.835  44.108  46.312  1.00  0.00     0.250 C 
HETATM   22  C   UNL     1      46.453  42.127  46.005  1.00  0.00     0.283 C 
HETATM   23  C   UNL     1      41.548  42.446  48.809  1.00  0.00     0.283 C 
HETATM   24  C   UNL     1      41.761  42.801  43.090  1.00  0.00     0.283 C 
HETATM   25  C   UNL     1      44.412  43.008  50.416  1.00  0.00     0.153 C 
HETATM   26  C   UNL     1      45.570  42.645  42.903  1.00  0.00     0.153 C 
HETATM   27  C   UNL     1      43.078  44.672  45.310  1.00  0.00     0.153 C 
ENDROOT
BRANCH  16  28
HETATM   28  C   UNL     1      46.957  41.040  49.427  1.00  0.00     0.016 C 
HETATM   29  C   UNL     1      47.545  39.748  48.863  1.00  0.00     0.012 C 
HETATM   30  C   UNL     1      48.064  41.929  49.993  1.00  0.00     0.012 C 
ENDBRANCH  16  28
BRANCH  14  31
HETATM   31  C   UNL     1      48.075  41.825  44.133  1.00  0.00     0.010 C 
HETATM   32  C   UNL     1      48.931  42.506  45.199  1.00  0.00     0.012 C 
HETATM   33  C   UNL     1      48.826  40.648  43.515  1.00  0.00     0.012 C 
ENDBRANCH  14  31
BRANCH  13  34
HETATM   34  C   UNL     1      42.025  41.457  51.052  1.00  0.00     0.010 C 
HETATM   35  C   UNL     1      41.395  40.088  51.308  1.00  0.00     0.012 C 
HETATM   36  C   UNL     1      41.032  42.571  51.377  1.00  0.00     0.012 C 
ENDBRANCH  13  34
BRANCH  18  37
HETATM   37  C   UNL     1      42.251  39.723  43.331  1.00  0.00     0.016 C 
HETATM   38  C   UNL     1      41.279  39.897  44.498  1.00  0.00     0.012 C 
HETATM   39  C   UNL     1      41.487  39.555  42.019  1.00  0.00     0.012 C 
ENDBRANCH  18  37
BRANCH  17  40
HETATM   40  C   UNL     1      40.308  45.170  48.570  1.00  0.00     0.016 C 
HETATM   41  C   UNL     1      39.485  46.218  47.825  1.00  0.00     0.012 C 
HETATM   42  C   UNL     1      40.931  45.771  49.829  1.00  0.00     0.012 C 
ENDBRANCH  17  40
BRANCH  15  43
HETATM   43  C   UNL     1      41.225  45.253  43.008  1.00  0.00     0.010 C 
HETATM   44  C   UNL     1      42.420  45.198  42.059  1.00  0.00     0.012 C 
HETATM   45  C   UNL     1      39.928  45.456  42.230  1.00  0.00     0.012 C 
ENDBRANCH  15  43
TORSDOF 6
ENDMDL
MODEL 11
REMARK VINA RESULT:    -4.689      2.634      6.597
REMARK INTER + INTRA:          -5.395
REMARK INTER:                  -6.918
REMARK INTRA:                   1.524
REMARK UNBOUND:                 0.938
REMARK  6 active torsions:
REMARK  status: ('A' for Active; 'I' for Inactive)
REMARK    1  A    between atoms: C_13  and  C_16 
REMARK    2  A    between atoms: C_14  and  C_17 
REMARK    3  A    between atoms: C_15  and  C_18 
REMARK    4  A    between atoms: C_19  and  C_22 
REMARK    5  A    between atoms: C_20  and  C_23 
REMARK    6  A    between atoms: C_21  and  C_24 
ROOT
HETATM    1  O   UNL     1      41.927  42.925  49.129  1.00  0.00    -0.304 OA
HETATM    2  O   UNL     1      42.225  41.517  44.158  1.00  0.00    -0.304 OA
HETATM    3  O   UNL     1      42.100  46.162  45.031  1.00  0.00    -0.304 OA
HETATM    4  O   UNL     1      43.681  42.800  47.225  1.00  0.00    -0.270 OA
HETATM    5  O   UNL     1      43.571  45.681  47.823  1.00  0.00    -0.270 OA
HETATM    6  O   UNL     1      42.578  43.699  41.787  1.00  0.00    -0.270 OA
HETATM    7  O   UNL     1      40.171  43.432  47.721  1.00  0.00    -0.263 OA
HETATM    8  O   UNL     1      44.292  41.707  43.160  1.00  0.00    -0.263 OA
HETATM    9  O   UNL     1      41.577  47.989  43.740  1.00  0.00    -0.263 OA
HETATM   10  N   UNL     1      43.157  40.677  46.470  1.00  0.00    -0.340 N 
HETATM   11  N   UNL     1      41.281  46.040  47.930  1.00  0.00    -0.340 N 
HETATM   12  N   UNL     1      41.000  44.379  43.355  1.00  0.00    -0.340 N 
HETATM   13  C   UNL     1      44.157  40.794  45.388  1.00  0.00     0.190 C 
HETATM   14  C   UNL     1      41.171  45.160  49.112  1.00  0.00     0.190 C 
HETATM   15  C   UNL     1      41.039  45.786  42.904  1.00  0.00     0.190 C 
HETATM   16  C   UNL     1      42.077  41.613  48.545  1.00  0.00     0.227 C 
HETATM   17  C   UNL     1      41.480  41.945  43.005  1.00  0.00     0.227 C 
HETATM   18  C   UNL     1      42.648  47.007  46.060  1.00  0.00     0.227 C 
HETATM   19  C   UNL     1      43.035  41.754  47.359  1.00  0.00     0.250 C 
HETATM   20  C   UNL     1      42.552  46.189  47.345  1.00  0.00     0.250 C 
HETATM   21  C   UNL     1      41.751  43.416  42.658  1.00  0.00     0.250 C 
HETATM   22  C   UNL     1      40.997  43.753  48.565  1.00  0.00     0.283 C 
HETATM   23  C   UNL     1      43.581  41.406  44.113  1.00  0.00     0.283 C 
HETATM   24  C   UNL     1      41.583  46.777  43.931  1.00  0.00     0.283 C 
HETATM   25  C   UNL     1      42.336  39.464  46.516  1.00  0.00     0.153 C 
HETATM   26  C   UNL     1      40.055  46.667  47.427  1.00  0.00     0.153 C 
HETATM   27  C   UNL     1      40.036  44.030  44.400  1.00  0.00     0.153 C 
ENDROOT
BRANCH  16  28
HETATM   28  C   UNL     1      42.679  40.719  49.620  1.00  0.00     0.016 C 
HETATM   29  C   UNL     1      43.709  41.488  50.446  1.00  0.00     0.012 C 
HETATM   30  C   UNL     1      41.587  40.150  50.524  1.00  0.00     0.012 C 
ENDBRANCH  16  28
BRANCH  14  31
HETATM   31  C   UNL     1      40.047  45.489  50.087  1.00  0.00     0.010 C 
HETATM   32  C   UNL     1      39.701  44.269  50.937  1.00  0.00     0.012 C 
HETATM   33  C   UNL     1      40.434  46.669  50.975  1.00  0.00     0.012 C 
ENDBRANCH  14  31
BRANCH  13  34
HETATM   34  C   UNL     1      44.860  39.478  45.055  1.00  0.00     0.010 C 
HETATM   35  C   UNL     1      44.777  38.509  46.233  1.00  0.00     0.012 C 
HETATM   36  C   UNL     1      46.317  39.726  44.669  1.00  0.00     0.012 C 
ENDBRANCH  13  34
BRANCH  18  37
HETATM   37  C   UNL     1      44.097  47.332  45.705  1.00  0.00     0.016 C 
HETATM   38  C   UNL     1      44.574  46.462  44.542  1.00  0.00     0.012 C 
HETATM   39  C   UNL     1      44.252  48.812  45.365  1.00  0.00     0.012 C 
ENDBRANCH  18  37
BRANCH  17  40
HETATM   40  C   UNL     1      41.691  41.010  41.814  1.00  0.00     0.016 C 
HETATM   41  C   UNL     1      40.865  41.472  40.615  1.00  0.00     0.012 C 
HETATM   42  C   UNL     1      41.335  39.573  42.189  1.00  0.00     0.012 C 
ENDBRANCH  17  40
BRANCH  15  43
HETATM   43  C   UNL     1      39.673  46.243  42.390  1.00  0.00     0.010 C 
HETATM   44  C   UNL     1      39.817  47.507  41.547  1.00  0.00     0.012 C 
HETATM   45  C   UNL     1      39.007  45.131  41.586  1.00  0.00     0.012 C 
ENDBRANCH  15  43
TORSDOF 6
ENDMDL
MODEL 12
REMARK VINA RESULT:    -4.638      2.688      5.816
REMARK INTER + INTRA:          -5.327
REMARK INTER:                  -6.053
REMARK INTRA:                   0.726
REMARK UNBOUND:                 0.938
REMARK  6 active torsions:
REMARK  status: ('A' for Active; 'I' for Inactive)
REMARK    1  A    between atoms: C_13  and  C_16 
REMARK    2  A    between atoms: C_14  and  C_17 
REMARK    3  A    between atoms: C_15  and  C_18 
REMARK    4  A    between atoms: C_19  and  C_22 
REMARK    5  A    between atoms: C_20  and  C_23 
REMARK    6  A    between atoms: C_21  and  C_24 
ROOT
HETATM    1  O   UNL     1      45.209  46.330  41.686  1.00  0.00    -0.304 OA
HETATM    2  O   UNL     1      43.240  42.122  43.965  1.00  0.00    -0.304 OA
HETATM    3  O   UNL     1      42.436  46.256  46.113  1.00  0.00    -0.304 OA
HETATM    4  O   UNL     1      42.925  45.140  41.974  1.00  0.00    -0.270 OA
HETATM    5  O   UNL     1      42.478  47.738  43.286  1.00  0.00    -0.270 OA
HETATM    6  O   UNL     1      41.332  42.333  46.577  1.00  0.00    -0.270 OA
HETATM    7  O   UNL     1      45.990  45.724  43.770  1.00  0.00    -0.263 OA
HETATM    8  O   UNL     1      40.982  41.767  43.688  1.00  0.00    -0.263 OA
HETATM    9  O   UNL     1      41.838  46.821  48.258  1.00  0.00    -0.263 OA
HETATM   10  N   UNL     1      43.644  42.990  41.515  1.00  0.00    -0.340 N 
HETATM   11  N   UNL     1      44.401  47.941  44.568  1.00  0.00    -0.340 N 
HETATM   12  N   UNL     1      43.169  43.752  46.735  1.00  0.00    -0.340 N 
HETATM   13  C   UNL     1      42.292  42.459  41.784  1.00  0.00     0.190 C 
HETATM   14  C   UNL     1      45.238  48.001  43.352  1.00  0.00     0.190 C 
HETATM   15  C   UNL     1      42.557  44.557  47.812  1.00  0.00     0.190 C 
HETATM   16  C   UNL     1      45.195  44.957  41.240  1.00  0.00     0.227 C 
HETATM   17  C   UNL     1      43.278  41.679  45.332  1.00  0.00     0.227 C 
HETATM   18  C   UNL     1      42.164  47.593  45.652  1.00  0.00     0.227 C 
HETATM   19  C   UNL     1      43.828  44.376  41.612  1.00  0.00     0.250 C 
HETATM   20  C   UNL     1      43.016  47.766  44.397  1.00  0.00     0.250 C 
HETATM   21  C   UNL     1      42.492  42.614  46.262  1.00  0.00     0.250 C 
HETATM   22  C   UNL     1      45.546  46.557  42.991  1.00  0.00     0.283 C 
HETATM   23  C   UNL     1      42.082  42.091  43.252  1.00  0.00     0.283 C 
HETATM   24  C   UNL     1      42.248  46.005  47.438  1.00  0.00     0.283 C 
HETATM   25  C   UNL     1      44.707  42.030  41.203  1.00  0.00     0.153 C 
HETATM   26  C   UNL     1      45.073  48.033  45.868  1.00  0.00     0.153 C 
HETATM   27  C   UNL     1      44.539  44.082  46.339  1.00  0.00     0.153 C 
ENDROOT
BRANCH  16  28
HETATM   28  C   UNL     1      45.376  44.982  39.730  1.00  0.00     0.016 C 
HETATM   29  C   UNL     1      45.125  46.385  39.180  1.00  0.00     0.012 C 
HETATM   30  C   UNL     1      46.774  44.499  39.344  1.00  0.00     0.012 C 
ENDBRANCH  16  28
BRANCH  14  31
HETATM   31  C   UNL     1      46.529  48.801  43.469  1.00  0.00     0.010 C 
HETATM   32  C   UNL     1      47.522  48.379  42.387  1.00  0.00     0.012 C 
HETATM   33  C   UNL     1      46.244  50.298  43.380  1.00  0.00     0.012 C 
ENDBRANCH  14  31
BRANCH  13  34
HETATM   34  C   UNL     1      41.907  41.275  40.897  1.00  0.00     0.010 C 
HETATM   35  C   UNL     1      40.669  41.606  40.064  1.00  0.00     0.012 C 
HETATM   36  C   UNL     1      41.665  40.024  41.739  1.00  0.00     0.012 C 
ENDBRANCH  13  34
BRANCH  18  37
HETATM   37  C   UNL     1      40.674  47.710  45.342  1.00  0.00     0.016 C 
HETATM   38  C   UNL     1      40.013  46.331  45.349  1.00  0.00     0.012 C 
HETATM   39  C   UNL     1      39.985  48.638  46.340  1.00  0.00     0.012 C 
ENDBRANCH  18  37
BRANCH  17  40
HETATM   40  C   UNL     1      42.851  40.217  45.467  1.00  0.00     0.016 C 
HETATM   41  C   UNL     1      42.850  39.790  46.934  1.00  0.00     0.012 C 
HETATM   42  C   UNL     1      43.767  39.312  44.645  1.00  0.00     0.012 C 
ENDBRANCH  17  40
BRANCH  15  43
HETATM   43  C   UNL     1      43.393  44.501  49.092  1.00  0.00     0.010 C 
HETATM   44  C   UNL     1      44.187  45.793  49.267  1.00  0.00     0.012 C 
HETATM   45  C   UNL     1      42.499  44.250  50.303  1.00  0.00     0.012 C 
ENDBRANCH  15  43
TORSDOF 6
ENDMDL
MODEL 13
REMARK VINA RESULT:    -4.621      2.709      6.436
REMARK INTER + INTRA:          -5.304
REMARK INTER:                  -6.227
REMARK INTRA:                   0.923
REMARK UNBOUND:                 0.938
REMARK  6 active torsions:
REMARK  status: ('A' for Active; 'I' for Inactive)
REMARK    1  A    between atoms: C_13  and  C_16 
REMARK    2  A    between atoms: C_14  and  C_17 
REMARK    3  A    between atoms: C_15  and  C_18 
REMARK    4  A    between atoms: C_19  and  C_22 
REMARK    5  A    between atoms: C_20  and  C_23 
REMARK    6  A    between atoms: C_21  and  C_24 
ROOT
HETATM    1  O   UNL     1      44.216  46.066  44.008  1.00  0.00    -0.304 OA
HETATM    2  O   UNL     1      43.210  41.203  45.464  1.00  0.00    -0.304 OA
HETATM    3  O   UNL     1      41.534  44.630  48.256  1.00  0.00    -0.304 OA
HETATM    4  O   UNL     1      42.245  44.383  44.007  1.00  0.00    -0.270 OA
HETATM    5  O   UNL     1      41.248  46.556  45.726  1.00  0.00    -0.270 OA
HETATM    6  O   UNL     1      41.307  40.543  48.004  1.00  0.00    -0.270 OA
HETATM    7  O   UNL     1      45.114  45.287  45.985  1.00  0.00    -0.263 OA
HETATM    8  O   UNL     1      41.082  40.427  45.050  1.00  0.00    -0.263 OA
HETATM    9  O   UNL     1      40.832  44.672  50.443  1.00  0.00    -0.263 OA
HETATM   10  N   UNL     1      43.412  42.550  43.214  1.00  0.00    -0.340 N 
HETATM   11  N   UNL     1      43.084  46.939  47.092  1.00  0.00    -0.340 N 
HETATM   12  N   UNL     1      42.793  42.271  48.468  1.00  0.00    -0.340 N 
HETATM   13  C   UNL     1      42.207  41.704  43.341  1.00  0.00     0.190 C 
HETATM   14  C   UNL     1      43.885  47.387  45.935  1.00  0.00     0.190 C 
HETATM   15  C   UNL     1      42.023  42.727  49.644  1.00  0.00     0.190 C 
HETATM   16  C   UNL     1      44.499  44.820  43.335  1.00  0.00     0.227 C 
HETATM   17  C   UNL     1      43.346  40.546  46.736  1.00  0.00     0.227 C 
HETATM   18  C   UNL     1      40.977  45.938  48.020  1.00  0.00     0.227 C 
HETATM   19  C   UNL     1      43.291  43.905  43.553  1.00  0.00     0.250 C 
HETATM   20  C   UNL     1      41.769  46.505  46.844  1.00  0.00     0.250 C 
HETATM   21  C   UNL     1      42.378  41.116  47.783  1.00  0.00     0.250 C 
HETATM   22  C   UNL     1      44.498  46.129  45.344  1.00  0.00     0.283 C 
HETATM   23  C   UNL     1      42.084  41.050  44.716  1.00  0.00     0.283 C 
HETATM   24  C   UNL     1      41.407  44.118  49.511  1.00  0.00     0.283 C 
HETATM   25  C   UNL     1      44.657  41.909  42.781  1.00  0.00     0.153 C 
HETATM   26  C   UNL     1      43.723  46.945  48.411  1.00  0.00     0.153 C 
HETATM   27  C   UNL     1      44.059  42.951  48.183  1.00  0.00     0.153 C 
ENDROOT
BRANCH  16  28
HETATM   28  C   UNL     1      44.667  45.146  41.858  1.00  0.00     0.016 C 
HETATM   29  C   UNL     1      44.054  46.508  41.533  1.00  0.00     0.012 C 
HETATM   30  C   UNL     1      46.143  45.116  41.462  1.00  0.00     0.012 C 
ENDBRANCH  16  28
BRANCH  14  31
HETATM   31  C   UNL     1      44.973  48.412  46.232  1.00  0.00     0.010 C 
HETATM   32  C   UNL     1      46.030  48.408  45.130  1.00  0.00     0.012 C 
HETATM   33  C   UNL     1      44.370  49.805  46.391  1.00  0.00     0.012 C 
ENDBRANCH  14  31
BRANCH  13  34
HETATM   34  C   UNL     1      42.085  40.638  42.251  1.00  0.00     0.010 C 
HETATM   35  C   UNL     1      41.244  41.154  41.084  1.00  0.00     0.012 C 
HETATM   36  C   UNL     1      41.484  39.353  42.816  1.00  0.00     0.012 C 
ENDBRANCH  13  34
BRANCH  18  37
HETATM   37  C   UNL     1      39.497  45.785  47.682  1.00  0.00     0.016 C 
HETATM   38  C   UNL     1      39.146  44.315  47.452  1.00  0.00     0.012 C 
HETATM   39  C   UNL     1      38.626  46.377  48.788  1.00  0.00     0.012 C 
ENDBRANCH  18  37
BRANCH  17  40
HETATM   40  C   UNL     1      43.246  39.026  46.605  1.00  0.00     0.016 C 
HETATM   41  C   UNL     1      43.706  38.344  47.891  1.00  0.00     0.012 C 
HETATM   42  C   UNL     1      44.067  38.535  45.414  1.00  0.00     0.012 C 
ENDBRANCH  17  40
BRANCH  15  43
HETATM   43  C   UNL     1      42.854  42.629  50.924  1.00  0.00     0.010 C 
HETATM   44  C   UNL     1      43.329  44.013  51.359  1.00  0.00     0.012 C 
HETATM   45  C   UNL     1      42.047  41.962  52.034  1.00  0.00     0.012 C 
ENDBRANCH  15  43
TORSDOF 6
ENDMDL
MODEL 14
REMARK VINA RESULT:    -4.605      2.694      4.593
REMARK INTER + INTRA:          -5.282
REMARK INTER:                  -5.995
REMARK INTRA:                   0.713
REMARK UNBOUND:                 0.938
REMARK  6 active torsions:
REMARK  status: ('A' for Active; 'I' for Inactive)
REMARK    1  A    between atoms: C_13  and  C_16 
REMARK    2  A    between atoms: C_14  and  C_17 
REMARK    3  A    between atoms: C_15  and  C_18 
REMARK    4  A    between atoms: C_19  and  C_22 
REMARK    5  A    between atoms: C_20  and  C_23 
REMARK    6  A    between atoms: C_21  and  C_24 
ROOT
HETATM    1  O   UNL     1      46.127  46.346  46.528  1.00  0.00    -0.304 OA
HETATM    2  O   UNL     1      44.334  41.531  45.910  1.00  0.00    -0.304 OA
HETATM    3  O   UNL     1      44.257  44.317  42.091  1.00  0.00    -0.304 OA
HETATM    4  O   UNL     1      46.880  44.085  45.509  1.00  0.00    -0.270 OA
HETATM    5  O   UNL     1      46.829  45.872  43.169  1.00  0.00    -0.270 OA
HETATM    6  O   UNL     1      43.456  40.400  43.002  1.00  0.00    -0.270 OA
HETATM    7  O   UNL     1      43.901  46.046  46.002  1.00  0.00    -0.263 OA
HETATM    8  O   UNL     1      45.739  40.040  44.859  1.00  0.00    -0.263 OA
HETATM    9  O   UNL     1      43.091  44.240  40.114  1.00  0.00    -0.263 OA
HETATM   10  N   UNL     1      46.238  42.731  47.271  1.00  0.00    -0.340 N 
HETATM   11  N   UNL     1      44.795  46.949  43.459  1.00  0.00    -0.340 N 
HETATM   12  N   UNL     1      42.673  42.561  43.357  1.00  0.00    -0.340 N 
HETATM   13  C   UNL     1      46.656  41.526  46.522  1.00  0.00     0.190 C 
HETATM   14  C   UNL     1      45.276  47.580  44.706  1.00  0.00     0.190 C 
HETATM   15  C   UNL     1      42.408  42.788  41.921  1.00  0.00     0.190 C 
HETATM   16  C   UNL     1      46.105  45.240  47.456  1.00  0.00     0.227 C 
HETATM   17  C   UNL     1      43.131  41.039  45.294  1.00  0.00     0.227 C 
HETATM   18  C   UNL     1      45.135  45.333  41.569  1.00  0.00     0.227 C 
HETATM   19  C   UNL     1      46.437  43.976  46.658  1.00  0.00     0.250 C 
HETATM   20  C   UNL     1      45.669  46.070  42.795  1.00  0.00     0.250 C 
HETATM   21  C   UNL     1      43.115  41.295  43.780  1.00  0.00     0.250 C 
HETATM   22  C   UNL     1      44.986  46.581  45.813  1.00  0.00     0.283 C 
HETATM   23  C   UNL     1      45.538  40.952  45.654  1.00  0.00     0.283 C 
HETATM   24  C   UNL     1      43.269  43.867  41.269  1.00  0.00     0.283 C 
HETATM   25  C   UNL     1      45.612  42.539  48.582  1.00  0.00     0.153 C 
HETATM   26  C   UNL     1      43.429  47.254  43.021  1.00  0.00     0.153 C 
HETATM   27  C   UNL     1      42.289  43.621  44.292  1.00  0.00     0.153 C 
ENDROOT
BRANCH  16  28
HETATM   28  C   UNL     1      47.179  45.517  48.497  1.00  0.00     0.016 C 
HETATM   29  C   UNL     1      48.182  46.545  47.977  1.00  0.00     0.012 C 
HETATM   30  C   UNL     1      46.552  45.997  49.806  1.00  0.00     0.012 C 
ENDBRANCH  16  28
BRANCH  14  31
HETATM   31  C   UNL     1      44.668  48.935  45.047  1.00  0.00     0.010 C 
HETATM   32  C   UNL     1      44.825  49.234  46.536  1.00  0.00     0.012 C 
HETATM   33  C   UNL     1      45.309  50.038  44.208  1.00  0.00     0.012 C 
ENDBRANCH  14  31
BRANCH  13  34
HETATM   34  C   UNL     1      47.239  40.424  47.405  1.00  0.00     0.010 C 
HETATM   35  C   UNL     1      48.653  40.061  46.952  1.00  0.00     0.012 C 
HETATM   36  C   UNL     1      46.341  39.188  47.393  1.00  0.00     0.012 C 
ENDBRANCH  13  34
BRANCH  18  37
HETATM   37  C   UNL     1      46.256  44.655  40.787  1.00  0.00     0.016 C 
HETATM   38  C   UNL     1      46.224  43.142  41.001  1.00  0.00     0.012 C 
HETATM   39  C   UNL     1      46.155  44.987  39.299  1.00  0.00     0.012 C 
ENDBRANCH  18  37
BRANCH  17  40
HETATM   40  C   UNL     1      42.871  39.574  45.647  1.00  0.00     0.016 C 
HETATM   41  C   UNL     1      41.561  39.096  45.025  1.00  0.00     0.012 C 
HETATM   42  C   UNL     1      42.847  39.383  47.162  1.00  0.00     0.012 C 
ENDBRANCH  17  40
BRANCH  15  43
HETATM   43  C   UNL     1      40.925  43.061  41.666  1.00  0.00     0.010 C 
HETATM   44  C   UNL     1      40.663  44.563  41.594  1.00  0.00     0.012 C 
HETATM   45  C   UNL     1      40.468  42.372  40.384  1.00  0.00     0.012 C 
ENDBRANCH  15  43
TORSDOF 6
ENDMDL
MODEL 15
REMARK VINA RESULT:    -4.590      2.979      7.745
REMARK INTER + INTRA:          -5.262
REMARK INTER:                  -6.289
REMARK INTRA:                   1.027
REMARK UNBOUND:                 0.938
REMARK  6 active torsions:
REMARK  status: ('A' for Active; 'I' for Inactive)
REMARK    1  A    between atoms: C_13  and  C_16 
REMARK    2  A    between atoms: C_14  and  C_17 
REMARK    3  A    between atoms: C_15  and  C_18 
REMARK    4  A    between atoms: C_19  and  C_22 
REMARK    5  A    between atoms: C_20  and  C_23 
REMARK    6  A    between atoms: C_21  and  C_24 
ROOT
HETATM    1  O   UNL     1      45.096  45.868  47.677  1.00  0.00    -0.304 OA
HETATM    2  O   UNL     1      42.527  42.686  44.506  1.00  0.00    -0.304 OA
HETATM    3  O   UNL     1      43.248  41.140  48.915  1.00  0.00    -0.304 OA
HETATM    4  O   UNL     1      42.669  45.072  47.236  1.00  0.00    -0.270 OA
HETATM    5  O   UNL     1      43.170  44.146  49.986  1.00  0.00    -0.270 OA
HETATM    6  O   UNL     1      41.247  39.900  45.557  1.00  0.00    -0.270 OA
HETATM    7  O   UNL     1      46.051  43.845  47.116  1.00  0.00    -0.263 OA
HETATM    8  O   UNL     1      40.244  42.581  44.786  1.00  0.00    -0.263 OA
HETATM    9  O   UNL     1      43.219  39.052  49.871  1.00  0.00    -0.263 OA
HETATM   10  N   UNL     1      42.698  45.276  44.932  1.00  0.00    -0.340 N 
HETATM   11  N   UNL     1      45.277  43.198  49.773  1.00  0.00    -0.340 N 
HETATM   12  N   UNL     1      43.391  40.232  46.394  1.00  0.00    -0.340 N 
HETATM   13  C   UNL     1      41.324  44.736  44.848  1.00  0.00     0.190 C 
HETATM   14  C   UNL     1      45.866  44.513  49.449  1.00  0.00     0.190 C 
HETATM   15  C   UNL     1      43.219  39.223  47.460  1.00  0.00     0.190 C 
HETATM   16  C   UNL     1      44.638  46.080  46.324  1.00  0.00     0.227 C 
HETATM   17  C   UNL     1      42.692  41.285  44.230  1.00  0.00     0.227 C 
HETATM   18  C   UNL     1      43.262  41.767  50.211  1.00  0.00     0.227 C 
HETATM   19  C   UNL     1      43.256  45.430  46.209  1.00  0.00     0.250 C 
HETATM   20  C   UNL     1      43.888  43.141  49.985  1.00  0.00     0.250 C 
HETATM   21  C   UNL     1      42.363  40.416  45.453  1.00  0.00     0.250 C 
HETATM   22  C   UNL     1      45.710  44.677  47.947  1.00  0.00     0.283 C 
HETATM   23  C   UNL     1      41.293  43.214  44.728  1.00  0.00     0.283 C 
HETATM   24  C   UNL     1      43.243  39.778  48.883  1.00  0.00     0.283 C 
HETATM   25  C   UNL     1      43.394  45.576  43.678  1.00  0.00     0.153 C 
HETATM   26  C   UNL     1      46.173  42.038  49.816  1.00  0.00     0.153 C 
HETATM   27  C   UNL     1      44.706  40.866  46.268  1.00  0.00     0.153 C 
ENDROOT
BRANCH  16  28
HETATM   28  C   UNL     1      44.543  47.585  46.122  1.00  0.00     0.016 C 
HETATM   29  C   UNL     1      44.485  48.307  47.467  1.00  0.00     0.012 C 
HETATM   30  C   UNL     1      45.722  48.094  45.293  1.00  0.00     0.012 C 
ENDBRANCH  16  28
BRANCH  14  31
HETATM   31  C   UNL     1      47.322  44.710  49.851  1.00  0.00     0.010 C 
HETATM   32  C   UNL     1      47.958  45.832  49.033  1.00  0.00     0.012 C 
HETATM   33  C   UNL     1      47.432  45.008  51.344  1.00  0.00     0.012 C 
ENDBRANCH  14  31
BRANCH  13  34
HETATM   34  C   UNL     1      40.486  45.358  43.731  1.00  0.00     0.010 C 
HETATM   35  C   UNL     1      39.069  45.656  44.223  1.00  0.00     0.012 C 
HETATM   36  C   UNL     1      40.446  44.442  42.510  1.00  0.00     0.012 C 
ENDBRANCH  13  34
BRANCH  18  37
HETATM   37  C   UNL     1      41.825  41.878  50.715  1.00  0.00     0.016 C 
HETATM   38  C   UNL     1      40.836  41.528  49.604  1.00  0.00     0.012 C 
HETATM   39  C   UNL     1      41.607  40.977  51.929  1.00  0.00     0.012 C 
ENDBRANCH  18  37
BRANCH  17  40
HETATM   40  C   UNL     1      41.925  40.857  42.979  1.00  0.00     0.016 C 
HETATM   41  C   UNL     1      41.839  39.335  42.895  1.00  0.00     0.012 C 
HETATM   42  C   UNL     1      42.582  41.428  41.724  1.00  0.00     0.012 C 
ENDBRANCH  17  40
BRANCH  15  43
HETATM   43  C   UNL     1      44.227  38.083  47.314  1.00  0.00     0.010 C 
HETATM   44  C   UNL     1      44.354  37.667  45.851  1.00  0.00     0.012 C 
HETATM   45  C   UNL     1      45.584  38.494  47.877  1.00  0.00     0.012 C 
ENDBRANCH  15  43
TORSDOF 6
ENDMDL
MODEL 16
REMARK VINA RESULT:    -4.578      2.514      6.216
REMARK INTER + INTRA:          -5.246
REMARK INTER:                  -6.216
REMARK INTRA:                   0.970
REMARK UNBOUND:                 0.938
REMARK  6 active torsions:
REMARK  status: ('A' for Active; 'I' for Inactive)
REMARK    1  A    between atoms: C_13  and  C_16 
REMARK    2  A    between atoms: C_14  and  C_17 
REMARK    3  A    between atoms: C_15  and  C_18 
REMARK    4  A    between atoms: C_19  and  C_22 
REMARK    5  A    between atoms: C_20  and  C_23 
REMARK    6  A    between atoms: C_21  and  C_24 
ROOT
HETATM    1  O   UNL     1      43.561  44.125  49.208  1.00  0.00    -0.304 OA
HETATM    2  O   UNL     1      42.929  40.886  45.221  1.00  0.00    -0.304 OA
HETATM    3  O   UNL     1      45.614  44.698  44.437  1.00  0.00    -0.304 OA
HETATM    4  O   UNL     1      44.880  42.288  47.941  1.00  0.00    -0.270 OA
HETATM    5  O   UNL     1      46.520  44.693  47.498  1.00  0.00    -0.270 OA
HETATM    6  O   UNL     1      44.504  41.304  42.419  1.00  0.00    -0.270 OA
HETATM    7  O   UNL     1      42.450  44.874  47.331  1.00  0.00    -0.263 OA
HETATM    8  O   UNL     1      44.692  39.482  44.750  1.00  0.00    -0.263 OA
HETATM    9  O   UNL     1      46.281  45.782  42.526  1.00  0.00    -0.263 OA
HETATM   10  N   UNL     1      43.185  40.718  47.834  1.00  0.00    -0.340 N 
HETATM   11  N   UNL     1      44.901  46.252  46.920  1.00  0.00    -0.340 N 
HETATM   12  N   UNL     1      43.656  43.310  43.238  1.00  0.00    -0.340 N 
HETATM   13  C   UNL     1      44.050  39.809  47.052  1.00  0.00     0.190 C 
HETATM   14  C   UNL     1      44.293  46.159  48.263  1.00  0.00     0.190 C 
HETATM   15  C   UNL     1      44.527  44.127  42.368  1.00  0.00     0.190 C 
HETATM   16  C   UNL     1      42.892  42.846  49.150  1.00  0.00     0.227 C 
HETATM   17  C   UNL     1      42.581  41.129  43.848  1.00  0.00     0.227 C 
HETATM   18  C   UNL     1      46.565  45.438  45.226  1.00  0.00     0.227 C 
HETATM   19  C   UNL     1      43.737  41.935  48.255  1.00  0.00     0.250 C 
HETATM   20  C   UNL     1      46.005  45.424  46.647  1.00  0.00     0.250 C 
HETATM   21  C   UNL     1      43.677  41.910  43.107  1.00  0.00     0.250 C 
HETATM   22  C   UNL     1      43.309  45.004  48.193  1.00  0.00     0.283 C 
HETATM   23  C   UNL     1      43.947  40.044  45.546  1.00  0.00     0.283 C 
HETATM   24  C   UNL     1      45.561  44.974  43.105  1.00  0.00     0.283 C 
HETATM   25  C   UNL     1      41.801  40.302  48.081  1.00  0.00     0.153 C 
HETATM   26  C   UNL     1      44.292  47.172  45.955  1.00  0.00     0.153 C 
HETATM   27  C   UNL     1      42.680  44.014  44.073  1.00  0.00     0.153 C 
ENDROOT
BRANCH  16  28
HETATM   28  C   UNL     1      42.846  42.309  50.573  1.00  0.00     0.016 C 
HETATM   29  C   UNL     1      43.887  43.007  51.447  1.00  0.00     0.012 C 
HETATM   30  C   UNL     1      41.449  42.477  51.169  1.00  0.00     0.012 C 
ENDBRANCH  16  28
BRANCH  14  31
HETATM   31  C   UNL     1      43.595  47.415  48.769  1.00  0.00     0.010 C 
HETATM   32  C   UNL     1      42.598  47.069  49.873  1.00  0.00     0.012 C 
HETATM   33  C   UNL     1      44.617  48.433  49.271  1.00  0.00     0.012 C 
ENDBRANCH  14  31
BRANCH  13  34
HETATM   34  C   UNL     1      43.824  38.329  47.358  1.00  0.00     0.010 C 
HETATM   35  C   UNL     1      44.325  37.986  48.760  1.00  0.00     0.012 C 
HETATM   36  C   UNL     1      44.511  37.450  46.315  1.00  0.00     0.012 C 
ENDBRANCH  13  34
BRANCH  18  37
HETATM   37  C   UNL     1      47.917  44.735  45.146  1.00  0.00     0.016 C 
HETATM   38  C   UNL     1      47.768  43.350  44.516  1.00  0.00     0.012 C 
HETATM   39  C   UNL     1      48.918  45.576  44.358  1.00  0.00     0.012 C 
ENDBRANCH  18  37
BRANCH  17  40
HETATM   40  C   UNL     1      42.183  39.842  43.125  1.00  0.00     0.016 C 
HETATM   41  C   UNL     1      41.501  40.160  41.797  1.00  0.00     0.012 C 
HETATM   42  C   UNL     1      41.272  38.991  44.007  1.00  0.00     0.012 C 
ENDBRANCH  17  40
BRANCH  15  43
HETATM   43  C   UNL     1      43.703  44.995  41.416  1.00  0.00     0.010 C 
HETATM   44  C   UNL     1      43.624  46.429  41.935  1.00  0.00     0.012 C 
HETATM   45  C   UNL     1      44.301  44.963  40.012  1.00  0.00     0.012 C 
ENDBRANCH  15  43
TORSDOF 6
ENDMDL
MODEL 17
REMARK VINA RESULT:    -4.534      2.101      6.696
REMARK INTER + INTRA:          -5.186
REMARK INTER:                  -6.140
REMARK INTRA:                   0.954
REMARK UNBOUND:                 0.938
REMARK  6 active torsions:
REMARK  status: ('A' for Active; 'I' for Inactive)
REMARK    1  A    between atoms: C_13  and  C_16 
REMARK    2  A    between atoms: C_14  and  C_17 
REMARK    3  A    between atoms: C_15  and  C_18 
REMARK    4  A    between atoms: C_19  and  C_22 
REMARK    5  A    between atoms: C_20  and  C_23 
REMARK    6  A    between atoms: C_21  and  C_24 
ROOT
HETATM    1  O   UNL     1      46.206  40.658  48.066  1.00  0.00    -0.304 OA
HETATM    2  O   UNL     1      47.356  43.100  43.650  1.00  0.00    -0.304 OA
HETATM    3  O   UNL     1      42.773  42.840  44.787  1.00  0.00    -0.304 OA
HETATM    4  O   UNL     1      46.379  43.075  47.145  1.00  0.00    -0.270 OA
HETATM    5  O   UNL     1      43.537  42.859  47.887  1.00  0.00    -0.270 OA
HETATM    6  O   UNL     1      45.084  44.604  41.894  1.00  0.00    -0.270 OA
HETATM    7  O   UNL     1      45.470  39.760  46.074  1.00  0.00    -0.263 OA
HETATM    8  O   UNL     1      47.293  45.401  43.704  1.00  0.00    -0.263 OA
HETATM    9  O   UNL     1      40.839  43.056  43.568  1.00  0.00    -0.263 OA
HETATM   10  N   UNL     1      48.402  42.837  46.049  1.00  0.00    -0.340 N 
HETATM   11  N   UNL     1      42.985  40.792  46.989  1.00  0.00    -0.340 N 
HETATM   12  N   UNL     1      44.357  42.525  42.644  1.00  0.00    -0.340 N 
HETATM   13  C   UNL     1      48.314  44.223  45.544  1.00  0.00     0.190 C 
HETATM   14  C   UNL     1      43.916  40.112  47.913  1.00  0.00     0.190 C 
HETATM   15  C   UNL     1      42.936  42.839  42.386  1.00  0.00     0.190 C 
HETATM   16  C   UNL     1      47.492  40.986  47.497  1.00  0.00     0.227 C 
HETATM   17  C   UNL     1      46.800  42.982  42.329  1.00  0.00     0.227 C 
HETATM   18  C   UNL     1      42.039  42.907  46.024  1.00  0.00     0.227 C 
HETATM   19  C   UNL     1      47.370  42.383  46.883  1.00  0.00     0.250 C 
HETATM   20  C   UNL     1      42.916  42.195  47.051  1.00  0.00     0.250 C 
HETATM   21  C   UNL     1      45.342  43.458  42.274  1.00  0.00     0.250 C 
HETATM   22  C   UNL     1      45.270  40.130  47.223  1.00  0.00     0.283 C 
HETATM   23  C   UNL     1      47.583  44.320  44.207  1.00  0.00     0.283 C 
HETATM   24  C   UNL     1      42.055  42.911  43.632  1.00  0.00     0.283 C 
HETATM   25  C   UNL     1      49.539  42.021  45.614  1.00  0.00     0.153 C 
HETATM   26  C   UNL     1      42.225  39.962  46.049  1.00  0.00     0.153 C 
HETATM   27  C   UNL     1      44.677  41.175  43.111  1.00  0.00     0.153 C 
ENDROOT
BRANCH  16  28
HETATM   28  C   UNL     1      48.494  40.988  48.642  1.00  0.00     0.016 C 
HETATM   29  C   UNL     1      47.777  41.128  49.985  1.00  0.00     0.012 C 
HETATM   30  C   UNL     1      49.343  39.717  48.620  1.00  0.00     0.012 C 
ENDBRANCH  16  28
BRANCH  14  31
HETATM   31  C   UNL     1      43.545  38.688  48.307  1.00  0.00     0.010 C 
HETATM   32  C   UNL     1      44.665  37.719  47.937  1.00  0.00     0.012 C 
HETATM   33  C   UNL     1      43.237  38.606  49.800  1.00  0.00     0.012 C 
ENDBRANCH  14  31
BRANCH  13  34
HETATM   34  C   UNL     1      49.665  44.930  45.445  1.00  0.00     0.010 C 
HETATM   35  C   UNL     1      49.620  46.282  46.157  1.00  0.00     0.012 C 
HETATM   36  C   UNL     1      50.077  45.109  43.985  1.00  0.00     0.012 C 
ENDBRANCH  13  34
BRANCH  18  37
HETATM   37  C   UNL     1      41.824  44.374  46.385  1.00  0.00     0.016 C 
HETATM   38  C   UNL     1      42.667  45.279  45.487  1.00  0.00     0.012 C 
HETATM   39  C   UNL     1      40.346  44.746  46.283  1.00  0.00     0.012 C 
ENDBRANCH  18  37
BRANCH  17  40
HETATM   40  C   UNL     1      47.682  43.658  41.280  1.00  0.00     0.016 C 
HETATM   41  C   UNL     1      47.042  43.563  39.897  1.00  0.00     0.012 C 
HETATM   42  C   UNL     1      49.078  43.038  41.270  1.00  0.00     0.012 C 
ENDBRANCH  17  40
BRANCH  15  43
HETATM   43  C   UNL     1      42.332  41.881  41.359  1.00  0.00     0.010 C 
HETATM   44  C   UNL     1      41.486  40.817  42.053  1.00  0.00     0.012 C 
HETATM   45  C   UNL     1      41.500  42.649  40.337  1.00  0.00     0.012 C 
ENDBRANCH  15  43
TORSDOF 6
ENDMDL
MODEL 18
REMARK VINA RESULT:    -4.521      2.663      6.345
REMARK INTER + INTRA:          -5.169
REMARK INTER:                  -5.946
REMARK INTRA:                   0.777
REMARK UNBOUND:                 0.938
REMARK  6 active torsions:
REMARK  status: ('A' for Active; 'I' for Inactive)
REMARK    1  A    between atoms: C_13  and  C_16 
REMARK    2  A    between atoms: C_14  and  C_17 
REMARK    3  A    between atoms: C_15  and  C_18 
REMARK    4  A    between atoms: C_19  and  C_22 
REMARK    5  A    between atoms: C_20  and  C_23 
REMARK    6  A    between atoms: C_21  and  C_24 
ROOT
HETATM    1  O   UNL     1      44.451  42.751  42.501  1.00  0.00    -0.304 OA
HETATM    2  O   UNL     1      45.984  44.683  47.051  1.00  0.00    -0.304 OA
HETATM    3  O   UNL     1      43.872  40.453  47.158  1.00  0.00    -0.304 OA
HETATM    4  O   UNL     1      46.354  42.428  44.232  1.00  0.00    -0.270 OA
HETATM    5  O   UNL     1      45.008  39.809  44.244  1.00  0.00    -0.270 OA
HETATM    6  O   UNL     1      45.753  42.971  49.794  1.00  0.00    -0.270 OA
HETATM    7  O   UNL     1      42.856  43.270  44.084  1.00  0.00    -0.263 OA
HETATM    8  O   UNL     1      47.915  43.800  47.943  1.00  0.00    -0.263 OA
HETATM    9  O   UNL     1      42.843  39.255  48.824  1.00  0.00    -0.263 OA
HETATM   10  N   UNL     1      46.842  44.664  44.565  1.00  0.00    -0.340 N 
HETATM   11  N   UNL     1      42.777  40.441  44.349  1.00  0.00    -0.340 N 
HETATM   12  N   UNL     1      43.833  42.779  48.495  1.00  0.00    -0.340 N 
HETATM   13  C   UNL     1      47.851  44.312  45.587  1.00  0.00     0.190 C 
HETATM   14  C   UNL     1      42.868  41.081  43.021  1.00  0.00     0.190 C 
HETATM   15  C   UNL     1      43.363  41.581  49.221  1.00  0.00     0.190 C 
HETATM   16  C   UNL     1      45.199  43.952  42.793  1.00  0.00     0.227 C 
HETATM   17  C   UNL     1      45.299  44.803  48.309  1.00  0.00     0.227 C 
HETATM   18  C   UNL     1      43.883  39.302  46.293  1.00  0.00     0.227 C 
HETATM   19  C   UNL     1      46.174  43.612  43.924  1.00  0.00     0.250 C 
HETATM   20  C   UNL     1      43.947  39.865  44.876  1.00  0.00     0.250 C 
HETATM   21  C   UNL     1      44.998  43.432  48.933  1.00  0.00     0.250 C 
HETATM   22  C   UNL     1      43.355  42.497  43.276  1.00  0.00     0.283 C 
HETATM   23  C   UNL     1      47.261  44.216  46.992  1.00  0.00     0.283 C 
HETATM   24  C   UNL     1      43.311  40.302  48.389  1.00  0.00     0.283 C 
HETATM   25  C   UNL     1      46.584  46.086  44.320  1.00  0.00     0.153 C 
HETATM   26  C   UNL     1      41.486  40.482  45.042  1.00  0.00     0.153 C 
HETATM   27  C   UNL     1      42.956  43.330  47.459  1.00  0.00     0.153 C 
ENDROOT
BRANCH  16  28
HETATM   28  C   UNL     1      45.954  44.320  41.525  1.00  0.00     0.016 C 
HETATM   29  C   UNL     1      46.507  43.069  40.844  1.00  0.00     0.012 C 
HETATM   30  C   UNL     1      45.053  45.096  40.565  1.00  0.00     0.012 C 
ENDBRANCH  16  28
BRANCH  14  31
HETATM   31  C   UNL     1      41.583  41.106  42.203  1.00  0.00     0.010 C 
HETATM   32  C   UNL     1      41.671  42.157  41.098  1.00  0.00     0.012 C 
HETATM   33  C   UNL     1      41.296  39.728  41.610  1.00  0.00     0.012 C 
ENDBRANCH  14  31
BRANCH  13  34
HETATM   34  C   UNL     1      49.065  45.240  45.600  1.00  0.00     0.010 C 
HETATM   35  C   UNL     1      50.359  44.437  45.479  1.00  0.00     0.012 C 
HETATM   36  C   UNL     1      49.081  46.091  46.869  1.00  0.00     0.012 C 
ENDBRANCH  13  34
BRANCH  18  37
HETATM   37  C   UNL     1      45.112  38.457  46.621  1.00  0.00     0.016 C 
HETATM   38  C   UNL     1      46.094  39.247  47.485  1.00  0.00     0.012 C 
HETATM   39  C   UNL     1      44.706  37.161  47.320  1.00  0.00     0.012 C 
ENDBRANCH  18  37
BRANCH  17  40
HETATM   40  C   UNL     1      46.033  45.740  49.269  1.00  0.00     0.016 C 
HETATM   41  C   UNL     1      45.299  45.823  50.606  1.00  0.00     0.012 C 
HETATM   42  C   UNL     1      46.185  47.129  48.652  1.00  0.00     0.012 C 
ENDBRANCH  17  40
BRANCH  15  43
HETATM   43  C   UNL     1      42.015  41.835  49.898  1.00  0.00     0.010 C 
HETATM   44  C   UNL     1      40.922  40.994  49.243  1.00  0.00     0.012 C 
HETATM   45  C   UNL     1      42.103  41.535  51.392  1.00  0.00     0.012 C 
ENDBRANCH  15  43
TORSDOF 6
ENDMDL
MODEL 19
REMARK VINA RESULT:    -4.493     10.043     14.095
REMARK INTER + INTRA:          -5.131
REMARK INTER:                  -6.060
REMARK INTRA:                   0.930
REMARK UNBOUND:                 0.938
REMARK  6 active torsions:
REMARK  status: ('A' for Active; 'I' for Inactive)
REMARK    1  A    between atoms: C_13  and  C_16 
REMARK    2  A    between atoms: C_14  and  C_17 
REMARK    3  A    between atoms: C_15  and  C_18 
REMARK    4  A    between atoms: C_19  and  C_22 
REMARK    5  A    between atoms: C_20  and  C_23 
REMARK    6  A    between atoms: C_21  and  C_24 
ROOT
HETATM    1  O   UNL     1      50.056  31.935  44.176  1.00  0.00    -0.304 OA
HETATM    2  O   UNL     1      51.342  36.208  41.555  1.00  0.00    -0.304 OA
HETATM    3  O   UNL     1      54.590  34.506  44.540  1.00  0.00    -0.304 OA
HETATM    4  O   UNL     1      51.521  32.633  42.155  1.00  0.00    -0.270 OA
HETATM    5  O   UNL     1      53.496  31.547  44.049  1.00  0.00    -0.270 OA
HETATM    6  O   UNL     1      54.311  37.496  41.746  1.00  0.00    -0.270 OA
HETATM    7  O   UNL     1      50.421  33.890  45.344  1.00  0.00    -0.263 OA
HETATM    8  O   UNL     1      52.763  35.925  39.765  1.00  0.00    -0.263 OA
HETATM    9  O   UNL     1      56.435  35.432  45.547  1.00  0.00    -0.263 OA
HETATM   10  N   UNL     1      49.973  34.005  41.120  1.00  0.00    -0.340 N 
HETATM   11  N   UNL     1      52.837  32.558  46.030  1.00  0.00    -0.340 N 
HETATM   12  N   UNL     1      53.512  36.860  43.837  1.00  0.00    -0.340 N 
HETATM   13  C   UNL     1      50.956  34.358  40.074  1.00  0.00     0.190 C 
HETATM   14  C   UNL     1      51.548  31.836  46.001  1.00  0.00     0.190 C 
HETATM   15  C   UNL     1      54.855  36.896  44.451  1.00  0.00     0.190 C 
HETATM   16  C   UNL     1      49.339  32.635  43.137  1.00  0.00     0.227 C 
HETATM   17  C   UNL     1      51.922  37.449  41.991  1.00  0.00     0.227 C 
HETATM   18  C   UNL     1      55.004  33.182  44.928  1.00  0.00     0.227 C 
HETATM   19  C   UNL     1      50.373  33.090  42.103  1.00  0.00     0.250 C 
HETATM   20  C   UNL     1      53.722  32.353  44.957  1.00  0.00     0.250 C 
HETATM   21  C   UNL     1      53.360  37.265  42.499  1.00  0.00     0.250 C 
HETATM   22  C   UNL     1      50.611  32.694  45.168  1.00  0.00     0.283 C 
HETATM   23  C   UNL     1      51.805  35.571  40.445  1.00  0.00     0.283 C 
HETATM   24  C   UNL     1      55.384  35.544  44.924  1.00  0.00     0.283 C 
HETATM   25  C   UNL     1      48.663  34.663  41.079  1.00  0.00     0.153 C 
HETATM   26  C   UNL     1      53.088  33.465  47.154  1.00  0.00     0.153 C 
HETATM   27  C   UNL     1      52.375  36.571  44.713  1.00  0.00     0.153 C 
ENDROOT
BRANCH  16  28
HETATM   28  C   UNL     1      48.368  31.637  42.523  1.00  0.00     0.016 C 
HETATM   29  C   UNL     1      49.088  30.723  41.533  1.00  0.00     0.012 C 
HETATM   30  C   UNL     1      47.681  30.812  43.611  1.00  0.00     0.012 C 
ENDBRANCH  16  28
BRANCH  14  31
HETATM   31  C   UNL     1      50.921  31.535  47.357  1.00  0.00     0.010 C 
HETATM   32  C   UNL     1      49.406  31.395  47.228  1.00  0.00     0.012 C 
HETATM   33  C   UNL     1      51.526  30.270  47.961  1.00  0.00     0.012 C 
ENDBRANCH  14  31
BRANCH  13  34
HETATM   34  C   UNL     1      50.337  34.566  38.692  1.00  0.00     0.010 C 
HETATM   35  C   UNL     1      51.112  33.786  37.631  1.00  0.00     0.012 C 
HETATM   36  C   UNL     1      50.292  36.051  38.337  1.00  0.00     0.012 C 
ENDBRANCH  13  34
BRANCH  18  37
HETATM   37  C   UNL     1      55.993  32.656  43.892  1.00  0.00     0.016 C 
HETATM   38  C   UNL     1      56.015  33.561  42.660  1.00  0.00     0.012 C 
HETATM   39  C   UNL     1      57.392  32.535  44.492  1.00  0.00     0.012 C 
ENDBRANCH  18  37
BRANCH  17  40
HETATM   40  C   UNL     1      51.809  38.536  40.922  1.00  0.00     0.016 C 
HETATM   41  C   UNL     1      52.339  39.867  41.450  1.00  0.00     0.012 C 
HETATM   42  C   UNL     1      50.362  38.681  40.454  1.00  0.00     0.012 C 
ENDBRANCH  17  40
BRANCH  15  43
HETATM   43  C   UNL     1      54.921  37.922  45.583  1.00  0.00     0.010 C 
HETATM   44  C   UNL     1      54.886  37.223  46.940  1.00  0.00     0.012 C 
HETATM   45  C   UNL     1      56.176  38.781  45.452  1.00  0.00     0.012 C 
ENDBRANCH  15  43
TORSDOF 6
ENDMDL
MODEL 20
REMARK VINA RESULT:    -4.372      2.935      5.015
REMARK INTER + INTRA:          -4.967
REMARK INTER:                  -5.774
REMARK INTRA:                   0.807
REMARK UNBOUND:                 0.938
REMARK  6 active torsions:
REMARK  status: ('A' for Active; 'I' for Inactive)
REMARK    1  A    between atoms: C_13  and  C_16 
REMARK    2  A    between atoms: C_14  and  C_17 
REMARK    3  A    between atoms: C_15  and  C_18 
REMARK    4  A    between atoms: C_19  and  C_22 
REMARK    5  A    between atoms: C_20  and  C_23 
REMARK    6  A    between atoms: C_21  and  C_24 
ROOT
HETATM    1  O   UNL     1      42.035  41.225  44.085  1.00  0.00    -0.304 OA
HETATM    2  O   UNL     1      44.305  44.117  47.727  1.00  0.00    -0.304 OA
HETATM    3  O   UNL     1      41.623  46.410  44.579  1.00  0.00    -0.304 OA
HETATM    4  O   UNL     1      41.421  42.451  46.284  1.00  0.00    -0.270 OA
HETATM    5  O   UNL     1      39.763  43.832  44.281  1.00  0.00    -0.270 OA
HETATM    6  O   UNL     1      43.707  47.292  47.999  1.00  0.00    -0.270 OA
HETATM    7  O   UNL     1      43.613  42.781  43.447  1.00  0.00    -0.263 OA
HETATM    8  O   UNL     1      42.964  44.822  49.461  1.00  0.00    -0.263 OA
HETATM    9  O   UNL     1      41.509  48.606  43.918  1.00  0.00    -0.263 OA
HETATM   10  N   UNL     1      43.220  41.728  47.546  1.00  0.00    -0.340 N 
HETATM   11  N   UNL     1      41.297  44.180  42.576  1.00  0.00    -0.340 N 
HETATM   12  N   UNL     1      44.009  46.659  45.781  1.00  0.00    -0.340 N 
HETATM   13  C   UNL     1      42.769  42.544  48.693  1.00  0.00     0.190 C 
HETATM   14  C   UNL     1      41.434  42.724  42.365  1.00  0.00     0.190 C 
HETATM   15  C   UNL     1      43.389  47.896  45.260  1.00  0.00     0.190 C 
HETATM   16  C   UNL     1      42.823  40.825  45.227  1.00  0.00     0.227 C 
HETATM   17  C   UNL     1      45.057  45.339  47.635  1.00  0.00     0.227 C 
HETATM   18  C   UNL     1      40.389  46.109  43.900  1.00  0.00     0.227 C 
HETATM   19  C   UNL     1      42.427  41.740  46.390  1.00  0.00     0.250 C 
HETATM   20  C   UNL     1      40.446  44.611  43.609  1.00  0.00     0.250 C 
HETATM   21  C   UNL     1      44.188  46.516  47.168  1.00  0.00     0.250 C 
HETATM   22  C   UNL     1      42.509  42.265  43.336  1.00  0.00     0.283 C 
HETATM   23  C   UNL     1      43.336  43.962  48.669  1.00  0.00     0.283 C 
HETATM   24  C   UNL     1      42.082  47.690  44.498  1.00  0.00     0.283 C 
HETATM   25  C   UNL     1      44.481  40.994  47.682  1.00  0.00     0.153 C 
HETATM   26  C   UNL     1      42.085  45.073  41.720  1.00  0.00     0.153 C 
HETATM   27  C   UNL     1      44.569  45.721  44.807  1.00  0.00     0.153 C 
ENDROOT
BRANCH  16  28
HETATM   28  C   UNL     1      42.456  39.380  45.532  1.00  0.00     0.016 C 
HETATM   29  C   UNL     1      41.368  38.887  44.578  1.00  0.00     0.012 C 
HETATM   30  C   UNL     1      43.688  38.480  45.448  1.00  0.00     0.012 C 
ENDBRANCH  16  28
BRANCH  14  31
HETATM   31  C   UNL     1      41.781  42.284  40.949  1.00  0.00     0.010 C 
HETATM   32  C   UNL     1      42.570  40.977  40.971  1.00  0.00     0.012 C 
HETATM   33  C   UNL     1      40.516  42.132  40.108  1.00  0.00     0.012 C 
ENDBRANCH  14  31
BRANCH  13  34
HETATM   34  C   UNL     1      43.044  41.902  50.052  1.00  0.00     0.010 C 
HETATM   35  C   UNL     1      41.775  41.879  50.904  1.00  0.00     0.012 C 
HETATM   36  C   UNL     1      44.165  42.639  50.782  1.00  0.00     0.012 C 
ENDBRANCH  13  34
BRANCH  18  37
HETATM   37  C   UNL     1      39.226  46.460  44.825  1.00  0.00     0.016 C 
HETATM   38  C   UNL     1      39.730  46.758  46.236  1.00  0.00     0.012 C 
HETATM   39  C   UNL     1      38.438  47.648  44.276  1.00  0.00     0.012 C 
ENDBRANCH  18  37
BRANCH  17  40
HETATM   40  C   UNL     1      45.812  45.640  48.930  1.00  0.00     0.016 C 
HETATM   41  C   UNL     1      46.562  46.966  48.819  1.00  0.00     0.012 C 
HETATM   42  C   UNL     1      46.775  44.504  49.267  1.00  0.00     0.012 C 
ENDBRANCH  17  40
BRANCH  15  43
HETATM   43  C   UNL     1      44.379  48.701  44.416  1.00  0.00     0.010 C 
HETATM   44  C   UNL     1      44.079  48.526  42.930  1.00  0.00     0.012 C 
HETATM   45  C   UNL     1      44.335  50.175  44.805  1.00  0.00     0.012 C 
ENDBRANCH  15  43
TORSDOF 6
ENDMDL
