MODEL 1
REMARK VINA RESULT:    -5.720      0.000      0.000
REMARK INTER + INTRA:          -6.512
REMARK INTER:                  -7.727
REMARK INTRA:                   1.215
REMARK UNBOUND:                 1.215
REMARK  6 active torsions:
REMARK  status: ('A' for Active; 'I' for Inactive)
REMARK    1  A    between atoms: C_13  and  C_16 
REMARK    2  A    between atoms: C_14  and  C_17 
REMARK    3  A    between atoms: C_15  and  C_18 
REMARK    4  A    between atoms: C_19  and  C_22 
REMARK    5  A    between atoms: C_20  and  C_23 
REMARK    6  A    between atoms: C_21  and  C_24 
ROOT
HETATM    1  O   UNL     1       6.353  11.126   1.406  1.00  0.00    -0.304 OA
HETATM    2  O   UNL     1       9.382   8.823  -2.101  1.00  0.00    -0.304 OA
HETATM    3  O   UNL     1       7.723  13.104  -3.232  1.00  0.00    -0.304 OA
HETATM    4  O   UNL     1       8.786  11.259   0.522  1.00  0.00    -0.270 OA
HETATM    5  O   UNL     1       7.702  13.915  -0.144  1.00  0.00    -0.270 OA
HETATM    6  O   UNL     1      10.312  10.342  -4.810  1.00  0.00    -0.270 OA
HETATM    7  O   UNL     1       5.451  10.551  -0.637  1.00  0.00    -0.263 OA
HETATM    8  O   UNL     1      11.555   9.573  -2.231  1.00  0.00    -0.263 OA
HETATM    9  O   UNL     1       7.476  14.215  -5.226  1.00  0.00    -0.263 OA
HETATM   10  N   UNL     1       9.231   8.989   0.519  1.00  0.00    -0.340 N 
HETATM   11  N   UNL     1       5.646  13.354  -1.061  1.00  0.00    -0.340 N 
HETATM   12  N   UNL     1       8.057  10.691  -4.357  1.00  0.00    -0.340 N 
HETATM   13  C   UNL     1      10.571   9.233  -0.056  1.00  0.00     0.190 C 
HETATM   14  C   UNL     1       5.187  12.808   0.232  1.00  0.00     0.190 C 
HETATM   15  C   UNL     1       7.970  11.850  -5.270  1.00  0.00     0.190 C 
HETATM   16  C   UNL     1       7.083   9.882   1.486  1.00  0.00     0.227 C 
HETATM   17  C   UNL     1       9.220   8.637  -3.518  1.00  0.00     0.227 C 
HETATM   18  C   UNL     1       7.473  14.313  -2.491  1.00  0.00     0.227 C 
HETATM   19  C   UNL     1       8.432  10.107   0.799  1.00  0.00     0.250 C 
HETATM   20  C   UNL     1       6.960  13.851  -1.129  1.00  0.00     0.250 C 
HETATM   21  C   UNL     1       9.260   9.969  -4.281  1.00  0.00     0.250 C 
HETATM   22  C   UNL     1       5.650  11.361   0.258  1.00  0.00     0.283 C 
HETATM   23  C   UNL     1      10.566   9.249  -1.583  1.00  0.00     0.283 C 
HETATM   24  C   UNL     1       7.681  13.186  -4.590  1.00  0.00     0.283 C 
HETATM   25  C   UNL     1       8.816   7.598   0.722  1.00  0.00     0.153 C 
HETATM   26  C   UNL     1       4.714  13.309  -2.193  1.00  0.00     0.153 C 
HETATM   27  C   UNL     1       6.821  10.247  -3.709  1.00  0.00     0.153 C 
ENDROOT
BRANCH  16  28
HETATM   28  C   UNL     1       7.276   9.580   2.965  1.00  0.00     0.016 C 
HETATM   29  C   UNL     1       8.587  10.180   3.472  1.00  0.00     0.012 C 
HETATM   30  C   UNL     1       6.097  10.105   3.783  1.00  0.00     0.012 C 
ENDBRANCH  16  28
BRANCH  14  31
HETATM   31  C   UNL     1       3.689  12.885   0.497  1.00  0.00     0.010 C 
HETATM   32  C   UNL     1       3.275  11.858   1.548  1.00  0.00     0.012 C 
HETATM   33  C   UNL     1       3.293  14.293   0.937  1.00  0.00     0.012 C 
ENDBRANCH  14  31
BRANCH  13  34
HETATM   34  C   UNL     1      11.642   8.265   0.446  1.00  0.00     0.010 C 
HETATM   35  C   UNL     1      11.948   8.516   1.922  1.00  0.00     0.012 C 
HETATM   36  C   UNL     1      12.914   8.384  -0.391  1.00  0.00     0.012 C 
ENDBRANCH  13  34
BRANCH  18  37
HETATM   37  C   UNL     1       8.781  15.090  -2.367  1.00  0.00     0.016 C 
HETATM   38  C   UNL     1       9.961  14.233  -2.824  1.00  0.00     0.012 C 
HETATM   39  C   UNL     1       8.718  16.387  -3.171  1.00  0.00     0.012 C 
ENDBRANCH  18  37
BRANCH  17  40
HETATM   40  C   UNL     1      10.207   7.609  -4.072  1.00  0.00     0.016 C 
HETATM   41  C   UNL     1       9.827   7.213  -5.497  1.00  0.00     0.012 C 
HETATM   42  C   UNL     1      10.265   6.379  -3.170  1.00  0.00     0.012 C 
ENDBRANCH  17  40
BRANCH  15  43
HETATM   43  C   UNL     1       6.968  11.595  -6.397  1.00  0.00     0.010 C 
HETATM   44  C   UNL     1       5.676  12.369  -6.148  1.00  0.00     0.012 C 
HETATM   45  C   UNL     1       7.572  11.976  -7.745  1.00  0.00     0.012 C 
ENDBRANCH  15  43
TORSDOF 6
ENDMDL
MODEL 2
REMARK VINA RESULT:    -5.555      2.898      8.745
REMARK INTER + INTRA:          -6.289
REMARK INTER:                  -7.110
REMARK INTRA:                   0.822
REMARK UNBOUND:                 1.215
REMARK  6 active torsions:
REMARK  status: ('A' for Active; 'I' for Inactive)
REMARK    1  A    between atoms: C_13  and  C_16 
REMARK    2  A    between atoms: C_14  and  C_17 
REMARK    3  A    between atoms: C_15  and  C_18 
REMARK    4  A    between atoms: C_19  and  C_22 
REMARK    5  A    between atoms: C_20  and  C_23 
REMARK    6  A    between atoms: C_21  and  C_24 
ROOT
HETATM    1  O   UNL     1       3.808  13.601  -6.496  1.00  0.00    -0.304 OA
HETATM    2  O   UNL     1       3.303  14.548  -1.433  1.00  0.00    -0.304 OA
HETATM    3  O   UNL     1       7.653  13.496  -2.959  1.00  0.00    -0.304 OA
HETATM    4  O   UNL     1       4.296  15.493  -4.793  1.00  0.00    -0.270 OA
HETATM    5  O   UNL     1       6.979  14.806  -5.792  1.00  0.00    -0.270 OA
HETATM    6  O   UNL     1       5.871  14.678   0.541  1.00  0.00    -0.270 OA
HETATM    7  O   UNL     1       4.231  11.899  -4.998  1.00  0.00    -0.263 OA
HETATM    8  O   UNL     1       4.002  16.616  -0.701  1.00  0.00    -0.263 OA
HETATM    9  O   UNL     1       9.549  12.749  -1.902  1.00  0.00    -0.263 OA
HETATM   10  N   UNL     1       2.267  15.432  -3.684  1.00  0.00    -0.340 N 
HETATM   11  N   UNL     1       6.921  12.488  -5.704  1.00  0.00    -0.340 N 
HETATM   12  N   UNL     1       6.007  12.882  -0.932  1.00  0.00    -0.340 N 
HETATM   13  C   UNL     1       2.728  16.476  -2.744  1.00  0.00     0.190 C 
HETATM   14  C   UNL     1       5.854  12.449  -6.726  1.00  0.00     0.190 C 
HETATM   15  C   UNL     1       7.454  12.696  -0.699  1.00  0.00     0.190 C 
HETATM   16  C   UNL     1       2.654  14.037  -5.746  1.00  0.00     0.227 C 
HETATM   17  C   UNL     1       3.780  13.830  -0.282  1.00  0.00     0.227 C 
HETATM   18  C   UNL     1       8.399  13.796  -4.154  1.00  0.00     0.227 C 
HETATM   19  C   UNL     1       3.148  15.043  -4.703  1.00  0.00     0.250 C 
HETATM   20  C   UNL     1       7.377  13.751  -5.288  1.00  0.00     0.250 C 
HETATM   21  C   UNL     1       5.313  13.851  -0.187  1.00  0.00     0.250 C 
HETATM   22  C   UNL     1       4.547  12.582  -5.964  1.00  0.00     0.283 C 
HETATM   23  C   UNL     1       3.433  15.899  -1.518  1.00  0.00     0.283 C 
HETATM   24  C   UNL     1       8.342  12.964  -1.912  1.00  0.00     0.283 C 
HETATM   25  C   UNL     1       0.941  14.849  -3.463  1.00  0.00     0.153 C 
HETATM   26  C   UNL     1       7.404  11.211  -5.170  1.00  0.00     0.153 C 
HETATM   27  C   UNL     1       5.333  11.919  -1.805  1.00  0.00     0.153 C 
ENDROOT
BRANCH  16  28
HETATM   28  C   UNL     1       1.712  14.707  -6.736  1.00  0.00     0.016 C 
HETATM   29  C   UNL     1       2.498  15.342  -7.882  1.00  0.00     0.012 C 
HETATM   30  C   UNL     1       0.695  13.703  -7.278  1.00  0.00     0.012 C 
ENDBRANCH  16  28
BRANCH  14  31
HETATM   31  C   UNL     1       5.823  11.210  -7.612  1.00  0.00     0.010 C 
HETATM   32  C   UNL     1       4.446  11.041  -8.251  1.00  0.00     0.012 C 
HETATM   33  C   UNL     1       6.905  11.290  -8.686  1.00  0.00     0.012 C 
ENDBRANCH  14  31
BRANCH  13  34
HETATM   34  C   UNL     1       1.624  17.435  -2.299  1.00  0.00     0.010 C 
HETATM   35  C   UNL     1       2.088  18.886  -2.422  1.00  0.00     0.012 C 
HETATM   36  C   UNL     1       1.189  17.132  -0.867  1.00  0.00     0.012 C 
ENDBRANCH  13  34
BRANCH  18  37
HETATM   37  C   UNL     1       9.019  15.183  -4.008  1.00  0.00     0.016 C 
HETATM   38  C   UNL     1       8.368  15.945  -2.853  1.00  0.00     0.012 C 
HETATM   39  C   UNL     1      10.528  15.082  -3.799  1.00  0.00     0.012 C 
ENDBRANCH  18  37
BRANCH  17  40
HETATM   40  C   UNL     1       3.102  14.304   1.003  1.00  0.00     0.016 C 
HETATM   41  C   UNL     1       3.673  13.569   2.214  1.00  0.00     0.012 C 
HETATM   42  C   UNL     1       1.590  14.104   0.918  1.00  0.00     0.012 C 
ENDBRANCH  17  40
BRANCH  15  43
HETATM   43  C   UNL     1       7.750  11.314  -0.114  1.00  0.00     0.010 C 
HETATM   44  C   UNL     1       9.165  11.268   0.456  1.00  0.00     0.012 C 
HETATM   45  C   UNL     1       6.725  10.958   0.958  1.00  0.00     0.012 C 
ENDBRANCH  15  43
TORSDOF 6
ENDMDL
MODEL 3
REMARK VINA RESULT:    -5.503      1.871      8.178
REMARK INTER + INTRA:          -6.218
REMARK INTER:                  -6.968
REMARK INTRA:                   0.749
REMARK UNBOUND:                 1.215
REMARK  6 active torsions:
REMARK  status: ('A' for Active; 'I' for Inactive)
REMARK    1  A    between atoms: C_13  and  C_16 
REMARK    2  A    between atoms: C_14  and  C_17 
REMARK    3  A    between atoms: C_15  and  C_18 
REMARK    4  A    between atoms: C_19  and  C_22 
REMARK    5  A    between atoms: C_20  and  C_23 
REMARK    6  A    between atoms: C_21  and  C_24 
ROOT
HETATM    1  O   UNL     1       9.816   9.332  -6.240  1.00  0.00    -0.304 OA
HETATM    2  O   UNL     1       7.802  12.414  -2.604  1.00  0.00    -0.304 OA
HETATM    3  O   UNL     1       9.678   8.338  -1.112  1.00  0.00    -0.304 OA
HETATM    4  O   UNL     1      10.608  10.975  -4.399  1.00  0.00    -0.270 OA
HETATM    5  O   UNL     1      11.765   8.411  -3.528  1.00  0.00    -0.270 OA
HETATM    6  O   UNL     1       8.051  11.715   0.552  1.00  0.00    -0.270 OA
HETATM    7  O   UNL     1       7.985   8.596  -5.047  1.00  0.00    -0.263 OA
HETATM    8  O   UNL     1       9.299  13.626  -1.341  1.00  0.00    -0.263 OA
HETATM    9  O   UNL     1       9.427   7.105   0.808  1.00  0.00    -0.263 OA
HETATM   10  N   UNL     1       9.123  12.687  -4.862  1.00  0.00    -0.340 N 
HETATM   11  N   UNL     1       9.957   6.980  -3.790  1.00  0.00    -0.340 N 
HETATM   12  N   UNL     1       7.492   9.839  -0.704  1.00  0.00    -0.340 N 
HETATM   13  C   UNL     1       9.644  13.473  -3.723  1.00  0.00     0.190 C 
HETATM   14  C   UNL     1       9.964   7.195  -5.251  1.00  0.00     0.190 C 
HETATM   15  C   UNL     1       7.873   8.903   0.374  1.00  0.00     0.190 C 
HETATM   16  C   UNL     1       9.266  10.662  -6.354  1.00  0.00     0.227 C 
HETATM   17  C   UNL     1       6.904  12.136  -1.516  1.00  0.00     0.227 C 
HETATM   18  C   UNL     1      10.821   7.554  -1.504  1.00  0.00     0.227 C 
HETATM   19  C   UNL     1       9.722  11.446  -5.121  1.00  0.00     0.250 C 
HETATM   20  C   UNL     1      10.899   7.689  -3.023  1.00  0.00     0.250 C 
HETATM   21  C   UNL     1       7.545  11.222  -0.461  1.00  0.00     0.250 C 
HETATM   22  C   UNL     1       9.113   8.430  -5.492  1.00  0.00     0.283 C 
HETATM   23  C   UNL     1       8.915  13.174  -2.415  1.00  0.00     0.283 C 
HETATM   24  C   UNL     1       9.063   8.002   0.055  1.00  0.00     0.283 C 
HETATM   25  C   UNL     1       7.994  13.239  -5.616  1.00  0.00     0.153 C 
HETATM   26  C   UNL     1       8.947   6.073  -3.236  1.00  0.00     0.153 C 
HETATM   27  C   UNL     1       6.905   9.269  -1.919  1.00  0.00     0.153 C 
ENDROOT
BRANCH  16  28
HETATM   28  C   UNL     1       9.844  11.271  -7.623  1.00  0.00     0.016 C 
HETATM   29  C   UNL     1      10.960  10.390  -8.184  1.00  0.00     0.012 C 
HETATM   30  C   UNL     1       8.751  11.479  -8.670  1.00  0.00     0.012 C 
ENDBRANCH  16  28
BRANCH  14  31
HETATM   31  C   UNL     1       9.459   6.034  -6.099  1.00  0.00     0.010 C 
HETATM   32  C   UNL     1       9.006   6.529  -7.471  1.00  0.00     0.012 C 
HETATM   33  C   UNL     1      10.540   4.965  -6.245  1.00  0.00     0.012 C 
ENDBRANCH  14  31
BRANCH  13  34
HETATM   34  C   UNL     1       9.658  14.981  -3.971  1.00  0.00     0.010 C 
HETATM   35  C   UNL     1      11.046  15.559  -3.697  1.00  0.00     0.012 C 
HETATM   36  C   UNL     1       8.608  15.681  -3.112  1.00  0.00     0.012 C 
ENDBRANCH  13  34
BRANCH  18  37
HETATM   37  C   UNL     1      12.062   8.126  -0.823  1.00  0.00     0.016 C 
HETATM   38  C   UNL     1      11.721   9.417  -0.079  1.00  0.00     0.012 C 
HETATM   39  C   UNL     1      12.673   7.103   0.133  1.00  0.00     0.012 C 
ENDBRANCH  18  37
BRANCH  17  40
HETATM   40  C   UNL     1       6.326  13.417  -0.914  1.00  0.00     0.016 C 
HETATM   41  C   UNL     1       5.325  13.087   0.191  1.00  0.00     0.012 C 
HETATM   42  C   UNL     1       5.668  14.269  -1.997  1.00  0.00     0.012 C 
ENDBRANCH  17  40
BRANCH  15  43
HETATM   43  C   UNL     1       6.677   8.068   0.834  1.00  0.00     0.010 C 
HETATM   44  C   UNL     1       6.772   6.649   0.278  1.00  0.00     0.012 C 
HETATM   45  C   UNL     1       6.595   8.046   2.357  1.00  0.00     0.012 C 
ENDBRANCH  15  43
TORSDOF 6
ENDMDL
MODEL 4
REMARK VINA RESULT:    -5.335      1.999      6.620
REMARK INTER + INTRA:          -5.991
REMARK INTER:                  -6.794
REMARK INTRA:                   0.803
REMARK UNBOUND:                 1.215
REMARK  6 active torsions:
REMARK  status: ('A' for Active; 'I' for Inactive)
REMARK    1  A    between atoms: C_13  and  C_16 
REMARK    2  A    between atoms: C_14  and  C_17 
REMARK    3  A    between atoms: C_15  and  C_18 
REMARK    4  A    between atoms: C_19  and  C_22 
REMARK    5  A    between atoms: C_20  and  C_23 
REMARK    6  A    between atoms: C_21  and  C_24 
ROOT
HETATM    1  O   UNL     1       7.648   8.880   2.763  1.00  0.00    -0.304 OA
HETATM    2  O   UNL     1       5.317  12.602   0.025  1.00  0.00    -0.304 OA
HETATM    3  O   UNL     1       8.799  10.253  -2.146  1.00  0.00    -0.304 OA
HETATM    4  O   UNL     1       5.911   9.119   0.854  1.00  0.00    -0.270 OA
HETATM    5  O   UNL     1       8.106   7.644  -0.441  1.00  0.00    -0.270 OA
HETATM    6  O   UNL     1       6.021  13.116  -3.097  1.00  0.00    -0.270 OA
HETATM    7  O   UNL     1       8.875  10.723   2.119  1.00  0.00    -0.263 OA
HETATM    8  O   UNL     1       3.793  11.911  -1.557  1.00  0.00    -0.263 OA
HETATM    9  O   UNL     1      10.113  10.726  -3.968  1.00  0.00    -0.263 OA
HETATM   10  N   UNL     1       4.637  10.795   1.812  1.00  0.00    -0.340 N 
HETATM   11  N   UNL     1       9.953   8.858   0.265  1.00  0.00    -0.340 N 
HETATM   12  N   UNL     1       7.939  12.774  -1.826  1.00  0.00    -0.340 N 
HETATM   13  C   UNL     1       3.777  10.855   0.611  1.00  0.00     0.190 C 
HETATM   14  C   UNL     1       9.700   8.478   1.670  1.00  0.00     0.190 C 
HETATM   15  C   UNL     1       8.774  12.497  -3.014  1.00  0.00     0.190 C 
HETATM   16  C   UNL     1       6.506   9.699   3.097  1.00  0.00     0.227 C 
HETATM   17  C   UNL     1       5.854  13.674  -0.767  1.00  0.00     0.227 C 
HETATM   18  C   UNL     1       9.242   8.882  -2.142  1.00  0.00     0.227 C 
HETATM   19  C   UNL     1       5.668   9.845   1.824  1.00  0.00     0.250 C 
HETATM   20  C   UNL     1       9.045   8.400  -0.707  1.00  0.00     0.250 C 
HETATM   21  C   UNL     1       6.599  13.156  -2.007  1.00  0.00     0.250 C 
HETATM   22  C   UNL     1       8.725   9.512   2.208  1.00  0.00     0.283 C 
HETATM   23  C   UNL     1       4.297  11.831  -0.442  1.00  0.00     0.283 C 
HETATM   24  C   UNL     1       9.320  11.073  -3.099  1.00  0.00     0.283 C 
HETATM   25  C   UNL     1       4.378  11.756   2.888  1.00  0.00     0.153 C 
HETATM   26  C   UNL     1      11.111   9.713  -0.015  1.00  0.00     0.153 C 
HETATM   27  C   UNL     1       8.606  12.809  -0.523  1.00  0.00     0.153 C 
ENDROOT
BRANCH  16  28
HETATM   28  C   UNL     1       5.728   8.953   4.171  1.00  0.00     0.016 C 
HETATM   29  C   UNL     1       6.147   7.484   4.218  1.00  0.00     0.012 C 
HETATM   30  C   UNL     1       5.927   9.609   5.537  1.00  0.00     0.012 C 
ENDBRANCH  16  28
BRANCH  14  31
HETATM   31  C   UNL     1      10.926   8.392   2.570  1.00  0.00     0.010 C 
HETATM   32  C   UNL     1      10.516   8.430   4.041  1.00  0.00     0.012 C 
HETATM   33  C   UNL     1      11.725   7.126   2.269  1.00  0.00     0.012 C 
ENDBRANCH  14  31
BRANCH  13  34
HETATM   34  C   UNL     1       2.311  11.161   0.918  1.00  0.00     0.010 C 
HETATM   35  C   UNL     1       1.395  10.137   0.248  1.00  0.00     0.012 C 
HETATM   36  C   UNL     1       1.949  12.575   0.471  1.00  0.00     0.012 C 
ENDBRANCH  13  34
BRANCH  18  37
HETATM   37  C   UNL     1       8.385   8.090  -3.126  1.00  0.00     0.016 C 
HETATM   38  C   UNL     1       7.182   8.916  -3.580  1.00  0.00     0.012 C 
HETATM   39  C   UNL     1       9.215   7.646  -4.329  1.00  0.00     0.012 C 
ENDBRANCH  18  37
BRANCH  17  40
HETATM   40  C   UNL     1       4.789  14.716  -1.111  1.00  0.00     0.016 C 
HETATM   41  C   UNL     1       5.368  15.796  -2.023  1.00  0.00     0.012 C 
HETATM   42  C   UNL     1       4.216  15.337   0.161  1.00  0.00     0.012 C 
ENDBRANCH  17  40
BRANCH  15  43
HETATM   43  C   UNL     1       9.908  13.514  -3.146  1.00  0.00     0.010 C 
HETATM   44  C   UNL     1      10.442  13.536  -4.576  1.00  0.00     0.012 C 
HETATM   45  C   UNL     1       9.432  14.902  -2.727  1.00  0.00     0.012 C 
ENDBRANCH  15  43
TORSDOF 6
ENDMDL
MODEL 5
REMARK VINA RESULT:    -5.240      2.386      4.020
REMARK INTER + INTRA:          -5.863
REMARK INTER:                  -6.669
REMARK INTRA:                   0.806
REMARK UNBOUND:                 1.215
REMARK  6 active torsions:
REMARK  status: ('A' for Active; 'I' for Inactive)
REMARK    1  A    between atoms: C_13  and  C_16 
REMARK    2  A    between atoms: C_14  and  C_17 
REMARK    3  A    between atoms: C_15  and  C_18 
REMARK    4  A    between atoms: C_19  and  C_22 
REMARK    5  A    between atoms: C_20  and  C_23 
REMARK    6  A    between atoms: C_21  and  C_24 
ROOT
HETATM    1  O   UNL     1       9.303   8.644  -1.058  1.00  0.00    -0.304 OA
HETATM    2  O   UNL     1      10.740   8.771  -6.028  1.00  0.00    -0.304 OA
HETATM    3  O   UNL     1       8.473  12.583  -4.389  1.00  0.00    -0.304 OA
HETATM    4  O   UNL     1      11.129   9.723  -2.548  1.00  0.00    -0.270 OA
HETATM    5  O   UNL     1       9.688  12.060  -1.483  1.00  0.00    -0.270 OA
HETATM    6  O   UNL     1      10.349  11.424  -7.848  1.00  0.00    -0.270 OA
HETATM    7  O   UNL     1       7.672   8.726  -2.686  1.00  0.00    -0.263 OA
HETATM    8  O   UNL     1      12.604  10.027  -6.525  1.00  0.00    -0.263 OA
HETATM    9  O   UNL     1       7.341  14.297  -5.415  1.00  0.00    -0.263 OA
HETATM   10  N   UNL     1      11.686   7.834  -3.759  1.00  0.00    -0.340 N 
HETATM   11  N   UNL     1       7.480  11.418  -1.792  1.00  0.00    -0.340 N 
HETATM   12  N   UNL     1       8.470  10.987  -6.546  1.00  0.00    -0.340 N 
HETATM   13  C   UNL     1      12.644   8.613  -4.572  1.00  0.00     0.190 C 
HETATM   14  C   UNL     1       7.642  10.304  -0.834  1.00  0.00     0.190 C 
HETATM   15  C   UNL     1       7.931  12.352  -6.722  1.00  0.00     0.190 C 
HETATM   16  C   UNL     1      10.083   7.698  -1.821  1.00  0.00     0.227 C 
HETATM   17  C   UNL     1      10.015   9.131  -7.215  1.00  0.00     0.227 C 
HETATM   18  C   UNL     1       8.473  13.291  -3.135  1.00  0.00     0.227 C 
HETATM   19  C   UNL     1      11.003   8.508  -2.738  1.00  0.00     0.250 C 
HETATM   20  C   UNL     1       8.609  12.211  -2.064  1.00  0.00     0.250 C 
HETATM   21  C   UNL     1       9.642  10.621  -7.231  1.00  0.00     0.250 C 
HETATM   22  C   UNL     1       8.171   9.134  -1.646  1.00  0.00     0.283 C 
HETATM   23  C   UNL     1      12.000   9.235  -5.809  1.00  0.00     0.283 C 
HETATM   24  C   UNL     1       7.863  13.187  -5.446  1.00  0.00     0.283 C 
HETATM   25  C   UNL     1      11.489   6.422  -4.101  1.00  0.00     0.153 C 
HETATM   26  C   UNL     1       6.167  11.596  -2.419  1.00  0.00     0.153 C 
HETATM   27  C   UNL     1       7.652  10.027  -5.803  1.00  0.00     0.153 C 
ENDROOT
BRANCH  16  28
HETATM   28  C   UNL     1      10.896   6.889  -0.821  1.00  0.00     0.016 C 
HETATM   29  C   UNL     1      11.249   7.738   0.400  1.00  0.00     0.012 C 
HETATM   30  C   UNL     1      10.136   5.633  -0.396  1.00  0.00     0.012 C 
ENDBRANCH  16  28
BRANCH  14  31
HETATM   31  C   UNL     1       6.389   9.892  -0.071  1.00  0.00     0.010 C 
HETATM   32  C   UNL     1       6.549   8.487   0.505  1.00  0.00     0.012 C 
HETATM   33  C   UNL     1       6.081  10.895   1.038  1.00  0.00     0.012 C 
ENDBRANCH  14  31
BRANCH  13  34
HETATM   34  C   UNL     1      13.889   7.827  -4.979  1.00  0.00     0.010 C 
HETATM   35  C   UNL     1      15.157   8.573  -4.566  1.00  0.00     0.012 C 
HETATM   36  C   UNL     1      13.893   7.560  -6.483  1.00  0.00     0.012 C 
ENDBRANCH  13  34
BRANCH  18  37
HETATM   37  C   UNL     1       9.658  14.254  -3.118  1.00  0.00     0.016 C 
HETATM   38  C   UNL     1      10.594  13.977  -4.294  1.00  0.00     0.012 C 
HETATM   39  C   UNL     1       9.176  15.703  -3.148  1.00  0.00     0.012 C 
ENDBRANCH  18  37
BRANCH  17  40
HETATM   40  C   UNL     1      10.748   8.693  -8.484  1.00  0.00     0.016 C 
HETATM   41  C   UNL     1       9.960   9.099  -9.727  1.00  0.00     0.012 C 
HETATM   42  C   UNL     1      10.991   7.185  -8.470  1.00  0.00     0.012 C 
ENDBRANCH  17  40
BRANCH  15  43
HETATM   43  C   UNL     1       6.570  12.326  -7.419  1.00  0.00     0.010 C 
HETATM   44  C   UNL     1       6.201  13.721  -7.919  1.00  0.00     0.012 C 
HETATM   45  C   UNL     1       6.579  11.326  -8.571  1.00  0.00     0.012 C 
ENDBRANCH  15  43
TORSDOF 6
ENDMDL
MODEL 6
REMARK VINA RESULT:    -5.173      2.028      4.044
REMARK INTER + INTRA:          -5.773
REMARK INTER:                  -7.133
REMARK INTRA:                   1.360
REMARK UNBOUND:                 1.215
REMARK  6 active torsions:
REMARK  status: ('A' for Active; 'I' for Inactive)
REMARK    1  A    between atoms: C_13  and  C_16 
REMARK    2  A    between atoms: C_14  and  C_17 
REMARK    3  A    between atoms: C_15  and  C_18 
REMARK    4  A    between atoms: C_19  and  C_22 
REMARK    5  A    between atoms: C_20  and  C_23 
REMARK    6  A    between atoms: C_21  and  C_24 
ROOT
HETATM    1  O   UNL     1       4.293  13.562  -1.675  1.00  0.00    -0.304 OA
HETATM    2  O   UNL     1       7.483   9.555  -0.929  1.00  0.00    -0.304 OA
HETATM    3  O   UNL     1       9.106  13.065  -3.650  1.00  0.00    -0.304 OA
HETATM    4  O   UNL     1       6.400  12.959  -0.290  1.00  0.00    -0.270 OA
HETATM    5  O   UNL     1       7.350  15.160  -2.000  1.00  0.00    -0.270 OA
HETATM    6  O   UNL     1      10.527   9.570  -2.043  1.00  0.00    -0.270 OA
HETATM    7  O   UNL     1       4.893  12.264  -3.485  1.00  0.00    -0.263 OA
HETATM    8  O   UNL     1       9.189   9.870   0.586  1.00  0.00    -0.263 OA
HETATM    9  O   UNL     1      10.789  13.195  -5.206  1.00  0.00    -0.263 OA
HETATM   10  N   UNL     1       5.689  10.889   0.457  1.00  0.00    -0.340 N 
HETATM   11  N   UNL     1       6.505  14.532  -4.068  1.00  0.00    -0.340 N 
HETATM   12  N   UNL     1       9.027  10.384  -3.624  1.00  0.00    -0.340 N 
HETATM   13  C   UNL     1       6.982  10.669   1.139  1.00  0.00     0.190 C 
HETATM   14  C   UNL     1       5.119  14.685  -3.578  1.00  0.00     0.190 C 
HETATM   15  C   UNL     1      10.094  11.015  -4.429  1.00  0.00     0.190 C 
HETATM   16  C   UNL     1       4.138  12.398  -0.833  1.00  0.00     0.227 C 
HETATM   17  C   UNL     1       8.267   8.782  -1.854  1.00  0.00     0.227 C 
HETATM   18  C   UNL     1       8.975  14.499  -3.625  1.00  0.00     0.227 C 
HETATM   19  C   UNL     1       5.505  12.110  -0.206  1.00  0.00     0.250 C 
HETATM   20  C   UNL     1       7.548  14.765  -3.153  1.00  0.00     0.250 C 
HETATM   21  C   UNL     1       9.382   9.616  -2.501  1.00  0.00     0.250 C 
HETATM   22  C   UNL     1       4.755  13.354  -2.945  1.00  0.00     0.283 C 
HETATM   23  C   UNL     1       8.020  10.004   0.238  1.00  0.00     0.283 C 
HETATM   24  C   UNL     1      10.037  12.539  -4.493  1.00  0.00     0.283 C 
HETATM   25  C   UNL     1       4.705   9.803   0.489  1.00  0.00     0.153 C 
HETATM   26  C   UNL     1       6.697  14.113  -5.459  1.00  0.00     0.153 C 
HETATM   27  C   UNL     1       7.660  10.444  -4.145  1.00  0.00     0.153 C 
ENDROOT
BRANCH  16  28
HETATM   28  C   UNL     1       3.121  12.763   0.238  1.00  0.00     0.016 C 
HETATM   29  C   UNL     1       3.674  13.848   1.160  1.00  0.00     0.012 C 
HETATM   30  C   UNL     1       1.808  13.219  -0.396  1.00  0.00     0.012 C 
ENDBRANCH  16  28
BRANCH  14  31
HETATM   31  C   UNL     1       4.081  15.073  -4.624  1.00  0.00     0.010 C 
HETATM   32  C   UNL     1       2.677  14.708  -4.147  1.00  0.00     0.012 C 
HETATM   33  C   UNL     1       4.169  16.563  -4.942  1.00  0.00     0.012 C 
ENDBRANCH  14  31
BRANCH  13  34
HETATM   34  C   UNL     1       6.863   9.891   2.449  1.00  0.00     0.010 C 
HETATM   35  C   UNL     1       5.710  10.431   3.294  1.00  0.00     0.012 C 
HETATM   36  C   UNL     1       8.172   9.947   3.232  1.00  0.00     0.012 C 
ENDBRANCH  13  34
BRANCH  18  37
HETATM   37  C   UNL     1      10.006  15.067  -2.652  1.00  0.00     0.016 C 
HETATM   38  C   UNL     1      10.447  13.998  -1.651  1.00  0.00     0.012 C 
HETATM   39  C   UNL     1      11.211  15.625  -3.405  1.00  0.00     0.012 C 
ENDBRANCH  18  37
BRANCH  17  40
HETATM   40  C   UNL     1       8.788   7.493  -1.218  1.00  0.00     0.016 C 
HETATM   41  C   UNL     1       9.371   6.566  -2.282  1.00  0.00     0.012 C 
HETATM   42  C   UNL     1       7.675   6.788  -0.443  1.00  0.00     0.012 C 
ENDBRANCH  17  40
BRANCH  15  43
HETATM   43  C   UNL     1      10.151  10.422  -5.838  1.00  0.00     0.010 C 
HETATM   44  C   UNL     1      11.515  10.682  -6.471  1.00  0.00     0.012 C 
HETATM   45  C   UNL     1       9.850   8.927  -5.801  1.00  0.00     0.012 C 
ENDBRANCH  15  43
TORSDOF 6
ENDMDL
MODEL 7
REMARK VINA RESULT:    -5.054      2.515      8.201
REMARK INTER + INTRA:          -5.612
REMARK INTER:                  -6.973
REMARK INTRA:                   1.362
REMARK UNBOUND:                 1.215
REMARK  6 active torsions:
REMARK  status: ('A' for Active; 'I' for Inactive)
REMARK    1  A    between atoms: C_13  and  C_16 
REMARK    2  A    between atoms: C_14  and  C_17 
REMARK    3  A    between atoms: C_15  and  C_18 
REMARK    4  A    between atoms: C_19  and  C_22 
REMARK    5  A    between atoms: C_20  and  C_23 
REMARK    6  A    between atoms: C_21  and  C_24 
ROOT
HETATM    1  O   UNL     1       9.024  10.333  -5.994  1.00  0.00    -0.304 OA
HETATM    2  O   UNL     1       4.692  13.163  -5.962  1.00  0.00    -0.304 OA
HETATM    3  O   UNL     1       7.593  13.707  -2.269  1.00  0.00    -0.304 OA
HETATM    4  O   UNL     1       8.269  12.775  -6.428  1.00  0.00    -0.270 OA
HETATM    5  O   UNL     1      10.099  13.054  -4.137  1.00  0.00    -0.270 OA
HETATM    6  O   UNL     1       4.124  15.386  -3.672  1.00  0.00    -0.270 OA
HETATM    7  O   UNL     1       7.458   9.953  -4.344  1.00  0.00    -0.263 OA
HETATM    8  O   UNL     1       4.912  15.384  -6.530  1.00  0.00    -0.263 OA
HETATM    9  O   UNL     1       7.295  14.529  -0.146  1.00  0.00    -0.263 OA
HETATM   10  N   UNL     1       6.426  12.293  -7.738  1.00  0.00    -0.340 N 
HETATM   11  N   UNL     1       9.379  11.328  -2.763  1.00  0.00    -0.340 N 
HETATM   12  N   UNL     1       4.974  13.417  -2.770  1.00  0.00    -0.340 N 
HETATM   13  C   UNL     1       6.091  13.730  -7.830  1.00  0.00     0.190 C 
HETATM   14  C   UNL     1       9.792  10.323  -3.763  1.00  0.00     0.190 C 
HETATM   15  C   UNL     1       5.344  14.065  -1.495  1.00  0.00     0.190 C 
HETATM   16  C   UNL     1       7.998  10.468  -7.001  1.00  0.00     0.227 C 
HETATM   17  C   UNL     1       3.711  13.385  -4.934  1.00  0.00     0.227 C 
HETATM   18  C   UNL     1       9.025  13.726  -2.109  1.00  0.00     0.227 C 
HETATM   19  C   UNL     1       7.579  11.940  -7.024  1.00  0.00     0.250 C 
HETATM   20  C   UNL     1       9.552  12.684  -3.093  1.00  0.00     0.250 C 
HETATM   21  C   UNL     1       4.291  14.165  -3.745  1.00  0.00     0.250 C 
HETATM   22  C   UNL     1       8.609  10.163  -4.703  1.00  0.00     0.283 C 
HETATM   23  C   UNL     1       5.182  14.199  -6.696  1.00  0.00     0.283 C 
HETATM   24  C   UNL     1       6.843  14.118  -1.210  1.00  0.00     0.283 C 
HETATM   25  C   UNL     1       5.511  11.335  -8.366  1.00  0.00     0.153 C 
HETATM   26  C   UNL     1       8.784  10.846  -1.513  1.00  0.00     0.153 C 
HETATM   27  C   UNL     1       5.181  11.971  -2.879  1.00  0.00     0.153 C 
ENDROOT
BRANCH  16  28
HETATM   28  C   UNL     1       8.628  10.067  -8.327  1.00  0.00     0.016 C 
HETATM   29  C   UNL     1      10.152  10.144  -8.246  1.00  0.00     0.012 C 
HETATM   30  C   UNL     1       8.185   8.662  -8.733  1.00  0.00     0.012 C 
ENDBRANCH  16  28
BRANCH  14  31
HETATM   31  C   UNL     1      10.213   8.966  -3.212  1.00  0.00     0.010 C 
HETATM   32  C   UNL     1      10.344   7.945  -4.340  1.00  0.00     0.012 C 
HETATM   33  C   UNL     1      11.525   9.083  -2.440  1.00  0.00     0.012 C 
ENDBRANCH  14  31
BRANCH  13  34
HETATM   34  C   UNL     1       5.490  14.138  -9.175  1.00  0.00     0.010 C 
HETATM   35  C   UNL     1       6.236  15.337  -9.757  1.00  0.00     0.012 C 
HETATM   36  C   UNL     1       4.003  14.452  -9.030  1.00  0.00     0.012 C 
ENDBRANCH  13  34
BRANCH  18  37
HETATM   37  C   UNL     1       9.535  15.125  -2.441  1.00  0.00     0.016 C 
HETATM   38  C   UNL     1      11.029  15.091  -2.765  1.00  0.00     0.012 C 
HETATM   39  C   UNL     1       8.749  15.725  -3.605  1.00  0.00     0.012 C 
ENDBRANCH  18  37
BRANCH  17  40
HETATM   40  C   UNL     1       2.437  14.021  -5.491  1.00  0.00     0.016 C 
HETATM   41  C   UNL     1       1.431  14.277  -4.372  1.00  0.00     0.012 C 
HETATM   42  C   UNL     1       1.823  13.134  -6.573  1.00  0.00     0.012 C 
ENDBRANCH  17  40
BRANCH  15  43
HETATM   43  C   UNL     1       4.597  13.440  -0.316  1.00  0.00     0.010 C 
HETATM   44  C   UNL     1       5.447  12.354   0.339  1.00  0.00     0.012 C 
HETATM   45  C   UNL     1       4.213  14.511   0.701  1.00  0.00     0.012 C 
ENDBRANCH  15  43
TORSDOF 6
ENDMDL
MODEL 8
REMARK VINA RESULT:    -5.047      2.522      7.124
REMARK INTER + INTRA:          -5.602
REMARK INTER:                  -6.608
REMARK INTRA:                   1.006
REMARK UNBOUND:                 1.215
REMARK  6 active torsions:
REMARK  status: ('A' for Active; 'I' for Inactive)
REMARK    1  A    between atoms: C_13  and  C_16 
REMARK    2  A    between atoms: C_14  and  C_17 
REMARK    3  A    between atoms: C_15  and  C_18 
REMARK    4  A    between atoms: C_19  and  C_22 
REMARK    5  A    between atoms: C_20  and  C_23 
REMARK    6  A    between atoms: C_21  and  C_24 
ROOT
HETATM    1  O   UNL     1       2.542  13.161   0.214  1.00  0.00    -0.304 OA
HETATM    2  O   UNL     1       6.726  14.400  -2.569  1.00  0.00    -0.304 OA
HETATM    3  O   UNL     1       6.559   9.995  -0.858  1.00  0.00    -0.304 OA
HETATM    4  O   UNL     1       3.514  12.763  -2.157  1.00  0.00    -0.270 OA
HETATM    5  O   UNL     1       3.372  10.040  -1.043  1.00  0.00    -0.270 OA
HETATM    6  O   UNL     1       8.983  12.200  -3.326  1.00  0.00    -0.270 OA
HETATM    7  O   UNL     1       4.603  13.180   1.250  1.00  0.00    -0.263 OA
HETATM    8  O   UNL     1       6.789  13.614  -4.733  1.00  0.00    -0.263 OA
HETATM    9  O   UNL     1       8.163   8.394  -0.486  1.00  0.00    -0.263 OA
HETATM   10  N   UNL     1       4.152  14.943  -2.591  1.00  0.00    -0.340 N 
HETATM   11  N   UNL     1       4.272  10.363   1.071  1.00  0.00    -0.340 N 
HETATM   12  N   UNL     1       8.309  12.014  -1.107  1.00  0.00    -0.340 N 
HETATM   13  C   UNL     1       4.726  14.536  -3.892  1.00  0.00     0.190 C 
HETATM   14  C   UNL     1       3.145  11.241   1.446  1.00  0.00     0.190 C 
HETATM   15  C   UNL     1       8.871  10.655  -0.965  1.00  0.00     0.190 C 
HETATM   16  C   UNL     1       2.845  14.370  -0.515  1.00  0.00     0.227 C 
HETATM   17  C   UNL     1       8.127  14.202  -2.314  1.00  0.00     0.227 C 
HETATM   18  C   UNL     1       5.507   9.032  -0.662  1.00  0.00     0.227 C 
HETATM   19  C   UNL     1       3.533  13.952  -1.817  1.00  0.00     0.250 C 
HETATM   20  C   UNL     1       4.289   9.849  -0.238  1.00  0.00     0.250 C 
HETATM   21  C   UNL     1       8.506  12.714  -2.310  1.00  0.00     0.250 C 
HETATM   22  C   UNL     1       3.538  12.636   0.989  1.00  0.00     0.283 C 
HETATM   23  C   UNL     1       6.189  14.112  -3.786  1.00  0.00     0.283 C 
HETATM   24  C   UNL     1       7.840   9.553  -0.728  1.00  0.00     0.283 C 
HETATM   25  C   UNL     1       4.304  16.343  -2.184  1.00  0.00     0.153 C 
HETATM   26  C   UNL     1       5.312  10.116   2.075  1.00  0.00     0.153 C 
HETATM   27  C   UNL     1       7.725  12.633   0.085  1.00  0.00     0.153 C 
ENDROOT
BRANCH  16  28
HETATM   28  C   UNL     1       1.518  15.055  -0.803  1.00  0.00     0.016 C 
HETATM   29  C   UNL     1       0.359  14.068  -0.659  1.00  0.00     0.012 C 
HETATM   30  C   UNL     1       1.316  16.255   0.121  1.00  0.00     0.012 C 
ENDBRANCH  16  28
BRANCH  14  31
HETATM   31  C   UNL     1       2.774  11.257   2.924  1.00  0.00     0.010 C 
HETATM   32  C   UNL     1       1.932  12.488   3.253  1.00  0.00     0.012 C 
HETATM   33  C   UNL     1       2.029   9.980   3.305  1.00  0.00     0.012 C 
ENDBRANCH  14  31
BRANCH  13  34
HETATM   34  C   UNL     1       4.572  15.589  -4.989  1.00  0.00     0.010 C 
HETATM   35  C   UNL     1       3.096  15.838  -5.295  1.00  0.00     0.012 C 
HETATM   36  C   UNL     1       5.316  15.165  -6.253  1.00  0.00     0.012 C 
ENDBRANCH  13  34
BRANCH  18  37
HETATM   37  C   UNL     1       5.264   8.299  -1.979  1.00  0.00     0.016 C 
HETATM   38  C   UNL     1       6.004   8.990  -3.124  1.00  0.00     0.012 C 
HETATM   39  C   UNL     1       5.691   6.837  -1.871  1.00  0.00     0.012 C 
ENDBRANCH  18  37
BRANCH  17  40
HETATM   40  C   UNL     1       8.999  15.031  -3.258  1.00  0.00     0.016 C 
HETATM   41  C   UNL     1      10.463  14.969  -2.831  1.00  0.00     0.012 C 
HETATM   42  C   UNL     1       8.514  16.478  -3.306  1.00  0.00     0.012 C 
ENDBRANCH  17  40
BRANCH  15  43
HETATM   43  C   UNL     1       9.958  10.612   0.109  1.00  0.00     0.010 C 
HETATM   44  C   UNL     1       9.379  10.124   1.435  1.00  0.00     0.012 C 
HETATM   45  C   UNL     1      11.113   9.719  -0.335  1.00  0.00     0.012 C 
ENDBRANCH  15  43
TORSDOF 6
ENDMDL
MODEL 9
REMARK VINA RESULT:    -5.010      2.463      6.893
REMARK INTER + INTRA:          -5.553
REMARK INTER:                  -6.266
REMARK INTRA:                   0.713
REMARK UNBOUND:                 1.215
REMARK  6 active torsions:
REMARK  status: ('A' for Active; 'I' for Inactive)
REMARK    1  A    between atoms: C_13  and  C_16 
REMARK    2  A    between atoms: C_14  and  C_17 
REMARK    3  A    between atoms: C_15  and  C_18 
REMARK    4  A    between atoms: C_19  and  C_22 
REMARK    5  A    between atoms: C_20  and  C_23 
REMARK    6  A    between atoms: C_21  and  C_24 
ROOT
HETATM    1  O   UNL     1       3.442  14.408  -5.183  1.00  0.00    -0.304 OA
HETATM    2  O   UNL     1       4.588  11.275  -1.226  1.00  0.00    -0.304 OA
HETATM    3  O   UNL     1       8.240  12.933  -3.730  1.00  0.00    -0.304 OA
HETATM    4  O   UNL     1       4.360  14.555  -2.763  1.00  0.00    -0.270 OA
HETATM    5  O   UNL     1       6.596  15.593  -4.373  1.00  0.00    -0.270 OA
HETATM    6  O   UNL     1       7.652  10.694  -0.344  1.00  0.00    -0.270 OA
HETATM    7  O   UNL     1       4.431  12.372  -5.625  1.00  0.00    -0.263 OA
HETATM    8  O   UNL     1       5.373  12.284   0.688  1.00  0.00    -0.263 OA
HETATM    9  O   UNL     1      10.418  12.246  -3.972  1.00  0.00    -0.263 OA
HETATM   10  N   UNL     1       2.819  13.144  -1.769  1.00  0.00    -0.340 N 
HETATM   11  N   UNL     1       6.699  14.025  -6.080  1.00  0.00    -0.340 N 
HETATM   12  N   UNL     1       7.393  10.625  -2.655  1.00  0.00    -0.340 N 
HETATM   13  C   UNL     1       3.505  13.280  -0.467  1.00  0.00     0.190 C 
HETATM   14  C   UNL     1       5.358  14.419  -6.560  1.00  0.00     0.190 C 
HETATM   15  C   UNL     1       8.844  10.756  -2.903  1.00  0.00     0.190 C 
HETATM   16  C   UNL     1       2.579  13.824  -4.183  1.00  0.00     0.227 C 
HETATM   17  C   UNL     1       5.457  10.133  -1.142  1.00  0.00     0.227 C 
HETATM   18  C   UNL     1       8.531  14.189  -4.372  1.00  0.00     0.227 C 
HETATM   19  C   UNL     1       3.333  13.872  -2.852  1.00  0.00     0.250 C 
HETATM   20  C   UNL     1       7.196  14.671  -4.934  1.00  0.00     0.250 C 
HETATM   21  C   UNL     1       6.932  10.519  -1.332  1.00  0.00     0.250 C 
HETATM   22  C   UNL     1       4.371  13.588  -5.759  1.00  0.00     0.283 C 
HETATM   23  C   UNL     1       4.607  12.241  -0.268  1.00  0.00     0.283 C 
HETATM   24  C   UNL     1       9.264  12.045  -3.606  1.00  0.00     0.283 C 
HETATM   25  C   UNL     1       1.674  12.232  -1.849  1.00  0.00     0.153 C 
HETATM   26  C   UNL     1       7.402  12.963  -6.807  1.00  0.00     0.153 C 
HETATM   27  C   UNL     1       6.523  10.433  -3.817  1.00  0.00     0.153 C 
ENDROOT
BRANCH  16  28
HETATM   28  C   UNL     1       1.327  14.688  -4.124  1.00  0.00     0.016 C 
HETATM   29  C   UNL     1       1.602  16.076  -4.701  1.00  0.00     0.012 C 
HETATM   30  C   UNL     1       0.173  14.018  -4.869  1.00  0.00     0.012 C 
ENDBRANCH  16  28
BRANCH  14  31
HETATM   31  C   UNL     1       5.105  14.244  -8.052  1.00  0.00     0.010 C 
HETATM   32  C   UNL     1       3.617  14.386  -8.364  1.00  0.00     0.012 C 
HETATM   33  C   UNL     1       5.920  15.253  -8.857  1.00  0.00     0.012 C 
ENDBRANCH  14  31
BRANCH  13  34
HETATM   34  C   UNL     1       2.559  13.263   0.733  1.00  0.00     0.010 C 
HETATM   35  C   UNL     1       2.765  14.504   1.600  1.00  0.00     0.012 C 
HETATM   36  C   UNL     1       2.756  11.994   1.560  1.00  0.00     0.012 C 
ENDBRANCH  13  34
BRANCH  18  37
HETATM   37  C   UNL     1       9.086  15.154  -3.329  1.00  0.00     0.016 C 
HETATM   38  C   UNL     1       8.893  14.593  -1.920  1.00  0.00     0.012 C 
HETATM   39  C   UNL     1      10.562  15.444  -3.591  1.00  0.00     0.012 C 
ENDBRANCH  18  37
BRANCH  17  40
HETATM   40  C   UNL     1       5.217   9.329   0.136  1.00  0.00     0.016 C 
HETATM   41  C   UNL     1       6.170   8.138   0.209  1.00  0.00     0.012 C 
HETATM   42  C   UNL     1       3.765   8.861   0.211  1.00  0.00     0.012 C 
ENDBRANCH  17  40
BRANCH  15  43
HETATM   43  C   UNL     1       9.393   9.537  -3.647  1.00  0.00     0.010 C 
HETATM   44  C   UNL     1       9.585   9.858  -5.127  1.00  0.00     0.012 C 
HETATM   45  C   UNL     1      10.705   9.076  -3.020  1.00  0.00     0.012 C 
ENDBRANCH  15  43
TORSDOF 6
ENDMDL
MODEL 10
REMARK VINA RESULT:    -4.966      9.881     15.613
REMARK INTER + INTRA:          -5.494
REMARK INTER:                  -6.821
REMARK INTRA:                   1.328
REMARK UNBOUND:                 1.215
REMARK  6 active torsions:
REMARK  status: ('A' for Active; 'I' for Inactive)
REMARK    1  A    between atoms: C_13  and  C_16 
REMARK    2  A    between atoms: C_14  and  C_17 
REMARK    3  A    between atoms: C_15  and  C_18 
REMARK    4  A    between atoms: C_19  and  C_22 
REMARK    5  A    between atoms: C_20  and  C_23 
REMARK    6  A    between atoms: C_21  and  C_24 
ROOT
HETATM    1  O   UNL     1      19.955   5.544   4.740  1.00  0.00    -0.304 OA
HETATM    2  O   UNL     1      15.393   6.596   6.944  1.00  0.00    -0.304 OA
HETATM    3  O   UNL     1      19.135   8.959   8.608  1.00  0.00    -0.304 OA
HETATM    4  O   UNL     1      18.140   7.394   4.711  1.00  0.00    -0.270 OA
HETATM    5  O   UNL     1      20.508   8.818   5.729  1.00  0.00    -0.270 OA
HETATM    6  O   UNL     1      15.070   8.940   9.159  1.00  0.00    -0.270 OA
HETATM    7  O   UNL     1      19.650   5.028   6.967  1.00  0.00    -0.263 OA
HETATM    8  O   UNL     1      14.372   8.557   6.304  1.00  0.00    -0.263 OA
HETATM    9  O   UNL     1      19.533  10.089  10.567  1.00  0.00    -0.263 OA
HETATM   10  N   UNL     1      16.297   6.007   4.545  1.00  0.00    -0.340 N 
HETATM   11  N   UNL     1      21.303   7.315   7.309  1.00  0.00    -0.340 N 
HETATM   12  N   UNL     1      16.977   7.660   9.531  1.00  0.00    -0.340 N 
HETATM   13  C   UNL     1      15.389   7.171   4.613  1.00  0.00     0.190 C 
HETATM   14  C   UNL     1      21.588   6.318   6.257  1.00  0.00     0.190 C 
HETATM   15  C   UNL     1      17.581   8.672  10.422  1.00  0.00     0.190 C 
HETATM   16  C   UNL     1      18.633   5.073   4.401  1.00  0.00     0.227 C 
HETATM   17  C   UNL     1      15.006   6.689   8.326  1.00  0.00     0.227 C 
HETATM   18  C   UNL     1      20.320   9.517   8.008  1.00  0.00     0.227 C 
HETATM   19  C   UNL     1      17.676   6.257   4.570  1.00  0.00     0.250 C 
HETATM   20  C   UNL     1      20.717   8.531   6.912  1.00  0.00     0.250 C 
HETATM   21  C   UNL     1      15.680   7.874   9.033  1.00  0.00     0.250 C 
HETATM   22  C   UNL     1      20.297   5.541   6.063  1.00  0.00     0.283 C 
HETATM   23  C   UNL     1      15.003   7.539   6.044  1.00  0.00     0.283 C 
HETATM   24  C   UNL     1      18.863   9.313   9.894  1.00  0.00     0.283 C 
HETATM   25  C   UNL     1      15.694   4.671   4.495  1.00  0.00     0.153 C 
HETATM   26  C   UNL     1      21.615   6.956   8.696  1.00  0.00     0.153 C 
HETATM   27  C   UNL     1      17.696   6.396   9.357  1.00  0.00     0.153 C 
ENDROOT
BRANCH  16  28
HETATM   28  C   UNL     1      18.683   4.626   2.948  1.00  0.00     0.016 C 
HETATM   29  C   UNL     1      18.331   5.783   2.015  1.00  0.00     0.012 C 
HETATM   30  C   UNL     1      20.061   4.062   2.603  1.00  0.00     0.012 C 
ENDBRANCH  16  28
BRANCH  14  31
HETATM   31  C   UNL     1      22.740   5.362   6.538  1.00  0.00     0.010 C 
HETATM   32  C   UNL     1      22.632   4.117   5.660  1.00  0.00     0.012 C 
HETATM   33  C   UNL     1      24.081   6.058   6.318  1.00  0.00     0.012 C 
ENDBRANCH  14  31
BRANCH  13  34
HETATM   34  C   UNL     1      14.129   7.020   3.762  1.00  0.00     0.010 C 
HETATM   35  C   UNL     1      14.399   7.444   2.318  1.00  0.00     0.012 C 
HETATM   36  C   UNL     1      12.978   7.833   4.351  1.00  0.00     0.012 C 
ENDBRANCH  13  34
BRANCH  18  37
HETATM   37  C   UNL     1      19.978  10.890   7.435  1.00  0.00     0.016 C 
HETATM   38  C   UNL     1      18.471  11.140   7.498  1.00  0.00     0.012 C 
HETATM   39  C   UNL     1      20.735  11.989   8.178  1.00  0.00     0.012 C 
ENDBRANCH  18  37
BRANCH  17  40
HETATM   40  C   UNL     1      13.487   6.689   8.492  1.00  0.00     0.016 C 
HETATM   41  C   UNL     1      13.106   6.504   9.959  1.00  0.00     0.012 C 
HETATM   42  C   UNL     1      12.852   5.599   7.630  1.00  0.00     0.012 C 
ENDBRANCH  17  40
BRANCH  15  43
HETATM   43  C   UNL     1      17.802   8.113  11.829  1.00  0.00     0.010 C 
HETATM   44  C   UNL     1      17.919   9.249  12.842  1.00  0.00     0.012 C 
HETATM   45  C   UNL     1      16.670   7.165  12.211  1.00  0.00     0.012 C 
ENDBRANCH  15  43
TORSDOF 6
ENDMDL
MODEL 11
REMARK VINA RESULT:    -4.915      7.835     11.721
REMARK INTER + INTRA:          -5.424
REMARK INTER:                  -6.163
REMARK INTRA:                   0.740
REMARK UNBOUND:                 1.215
REMARK  6 active torsions:
REMARK  status: ('A' for Active; 'I' for Inactive)
REMARK    1  A    between atoms: C_13  and  C_16 
REMARK    2  A    between atoms: C_14  and  C_17 
REMARK    3  A    between atoms: C_15  and  C_18 
REMARK    4  A    between atoms: C_19  and  C_22 
REMARK    5  A    between atoms: C_20  and  C_23 
REMARK    6  A    between atoms: C_21  and  C_24 
ROOT
HETATM    1  O   UNL     1      17.397   7.324   5.638  1.00  0.00    -0.304 OA
HETATM    2  O   UNL     1      16.395   3.282   2.566  1.00  0.00    -0.304 OA
HETATM    3  O   UNL     1      12.699   5.960   3.802  1.00  0.00    -0.304 OA
HETATM    4  O   UNL     1      16.875   6.832   3.147  1.00  0.00    -0.270 OA
HETATM    5  O   UNL     1      14.604   8.517   3.971  1.00  0.00    -0.270 OA
HETATM    6  O   UNL     1      13.441   2.767   1.336  1.00  0.00    -0.270 OA
HETATM    7  O   UNL     1      16.066   5.620   6.440  1.00  0.00    -0.263 OA
HETATM    8  O   UNL     1      16.054   3.747   0.337  1.00  0.00    -0.263 OA
HETATM    9  O   UNL     1      10.433   5.593   3.823  1.00  0.00    -0.263 OA
HETATM   10  N   UNL     1      18.320   5.046   2.883  1.00  0.00    -0.340 N 
HETATM   11  N   UNL     1      14.024   7.546   5.997  1.00  0.00    -0.340 N 
HETATM   12  N   UNL     1      13.346   3.365   3.582  1.00  0.00    -0.340 N 
HETATM   13  C   UNL     1      17.859   4.854   1.492  1.00  0.00     0.190 C 
HETATM   14  C   UNL     1      15.323   7.932   6.585  1.00  0.00     0.190 C 
HETATM   15  C   UNL     1      11.910   3.705   3.515  1.00  0.00     0.190 C 
HETATM   16  C   UNL     1      18.302   6.387   5.015  1.00  0.00     0.227 C 
HETATM   17  C   UNL     1      15.389   2.258   2.644  1.00  0.00     0.227 C 
HETATM   18  C   UNL     1      12.504   7.372   4.006  1.00  0.00     0.227 C 
HETATM   19  C   UNL     1      17.766   6.110   3.608  1.00  0.00     0.250 C 
HETATM   20  C   UNL     1      13.799   7.867   4.646  1.00  0.00     0.250 C 
HETATM   21  C   UNL     1      13.975   2.825   2.447  1.00  0.00     0.250 C 
HETATM   22  C   UNL     1      16.284   6.807   6.240  1.00  0.00     0.283 C 
HETATM   23  C   UNL     1      16.658   3.916   1.391  1.00  0.00     0.283 C 
HETATM   24  C   UNL     1      11.585   5.179   3.743  1.00  0.00     0.283 C 
HETATM   25  C   UNL     1      19.295   4.091   3.419  1.00  0.00     0.153 C 
HETATM   26  C   UNL     1      13.074   6.824   6.849  1.00  0.00     0.153 C 
HETATM   27  C   UNL     1      14.000   3.444   4.890  1.00  0.00     0.153 C 
ENDROOT
BRANCH  16  28
HETATM   28  C   UNL     1      19.662   7.067   4.948  1.00  0.00     0.016 C 
HETATM   29  C   UNL     1      19.526   8.570   5.189  1.00  0.00     0.012 C 
HETATM   30  C   UNL     1      20.626   6.449   5.960  1.00  0.00     0.012 C 
ENDBRANCH  16  28
BRANCH  14  31
HETATM   31  C   UNL     1      15.327   8.186   8.087  1.00  0.00     0.010 C 
HETATM   32  C   UNL     1      16.749   8.113   8.640  1.00  0.00     0.012 C 
HETATM   33  C   UNL     1      14.697   9.539   8.405  1.00  0.00     0.012 C 
ENDBRANCH  14  31
BRANCH  13  34
HETATM   34  C   UNL     1      18.958   4.387   0.537  1.00  0.00     0.010 C 
HETATM   35  C   UNL     1      18.849   5.110  -0.805  1.00  0.00     0.012 C 
HETATM   36  C   UNL     1      18.894   2.875   0.336  1.00  0.00     0.012 C 
ENDBRANCH  13  34
BRANCH  18  37
HETATM   37  C   UNL     1      12.256   8.032   2.653  1.00  0.00     0.016 C 
HETATM   38  C   UNL     1      12.642   7.088   1.514  1.00  0.00     0.012 C 
HETATM   39  C   UNL     1      10.796   8.460   2.520  1.00  0.00     0.012 C 
ENDBRANCH  18  37
BRANCH  17  40
HETATM   40  C   UNL     1      15.693   1.090   1.705  1.00  0.00     0.016 C 
HETATM   41  C   UNL     1      14.588   0.039   1.780  1.00  0.00     0.012 C 
HETATM   42  C   UNL     1      17.048   0.470   2.041  1.00  0.00     0.012 C 
ENDBRANCH  17  40
BRANCH  15  43
HETATM   43  C   UNL     1      11.085   2.823   4.454  1.00  0.00     0.010 C 
HETATM   44  C   UNL     1      10.689   3.602   5.706  1.00  0.00     0.012 C 
HETATM   45  C   UNL     1       9.849   2.290   3.737  1.00  0.00     0.012 C 
ENDBRANCH  15  43
TORSDOF 6
ENDMDL
MODEL 12
REMARK VINA RESULT:    -4.814      6.406     12.188
REMARK INTER + INTRA:          -5.288
REMARK INTER:                  -6.100
REMARK INTRA:                   0.813
REMARK UNBOUND:                 1.215
REMARK  6 active torsions:
REMARK  status: ('A' for Active; 'I' for Inactive)
REMARK    1  A    between atoms: C_13  and  C_16 
REMARK    2  A    between atoms: C_14  and  C_17 
REMARK    3  A    between atoms: C_15  and  C_18 
REMARK    4  A    between atoms: C_19  and  C_22 
REMARK    5  A    between atoms: C_20  and  C_23 
REMARK    6  A    between atoms: C_21  and  C_24 
ROOT
HETATM    1  O   UNL     1      14.282   6.174   0.678  1.00  0.00    -0.304 OA
HETATM    2  O   UNL     1      11.188   6.303   4.825  1.00  0.00    -0.304 OA
HETATM    3  O   UNL     1      15.833   6.610   5.649  1.00  0.00    -0.304 OA
HETATM    4  O   UNL     1      13.337   7.894   2.372  1.00  0.00    -0.270 OA
HETATM    5  O   UNL     1      16.241   8.054   2.830  1.00  0.00    -0.270 OA
HETATM    6  O   UNL     1      12.350   6.835   7.803  1.00  0.00    -0.270 OA
HETATM    7  O   UNL     1      14.412   4.462   2.217  1.00  0.00    -0.263 OA
HETATM    8  O   UNL     1      10.829   8.370   5.774  1.00  0.00    -0.263 OA
HETATM    9  O   UNL     1      17.124   6.247   7.513  1.00  0.00    -0.263 OA
HETATM   10  N   UNL     1      11.140   7.172   2.343  1.00  0.00    -0.340 N 
HETATM   11  N   UNL     1      16.816   5.807   2.914  1.00  0.00    -0.340 N 
HETATM   12  N   UNL     1      13.678   5.339   6.615  1.00  0.00    -0.340 N 
HETATM   13  C   UNL     1      10.778   8.170   3.371  1.00  0.00     0.190 C 
HETATM   14  C   UNL     1      16.425   5.627   1.501  1.00  0.00     0.190 C 
HETATM   15  C   UNL     1      14.825   5.503   7.532  1.00  0.00     0.190 C 
HETATM   16  C   UNL     1      12.840   6.199   0.758  1.00  0.00     0.227 C 
HETATM   17  C   UNL     1      11.244   5.591   6.073  1.00  0.00     0.227 C 
HETATM   18  C   UNL     1      16.935   7.242   4.970  1.00  0.00     0.227 C 
HETATM   19  C   UNL     1      12.468   7.157   1.893  1.00  0.00     0.250 C 
HETATM   20  C   UNL     1      16.636   7.081   3.482  1.00  0.00     0.250 C 
HETATM   21  C   UNL     1      12.468   5.993   6.909  1.00  0.00     0.250 C 
HETATM   22  C   UNL     1      14.937   5.320   1.521  1.00  0.00     0.283 C 
HETATM   23  C   UNL     1      10.948   7.642   4.794  1.00  0.00     0.283 C 
HETATM   24  C   UNL     1      16.063   6.143   6.907  1.00  0.00     0.283 C 
HETATM   25  C   UNL     1      10.099   6.244   1.892  1.00  0.00     0.153 C 
HETATM   26  C   UNL     1      17.331   4.640   3.637  1.00  0.00     0.153 C 
HETATM   27  C   UNL     1      13.807   4.355   5.538  1.00  0.00     0.153 C 
ENDROOT
BRANCH  16  28
HETATM   28  C   UNL     1      12.335   6.725  -0.577  1.00  0.00     0.016 C 
HETATM   29  C   UNL     1      12.678   8.206  -0.738  1.00  0.00     0.012 C 
HETATM   30  C   UNL     1      12.917   5.913  -1.734  1.00  0.00     0.012 C 
ENDBRANCH  16  28
BRANCH  14  31
HETATM   31  C   UNL     1      17.175   4.546   0.733  1.00  0.00     0.010 C 
HETATM   32  C   UNL     1      16.365   4.088  -0.478  1.00  0.00     0.012 C 
HETATM   33  C   UNL     1      18.549   5.049   0.300  1.00  0.00     0.012 C 
ENDBRANCH  14  31
BRANCH  13  34
HETATM   34  C   UNL     1       9.373   8.747   3.201  1.00  0.00     0.010 C 
HETATM   35  C   UNL     1       9.423  10.272   3.118  1.00  0.00     0.012 C 
HETATM   36  C   UNL     1       8.463   8.303   4.345  1.00  0.00     0.012 C 
ENDBRANCH  13  34
BRANCH  18  37
HETATM   37  C   UNL     1      16.984   8.712   5.381  1.00  0.00     0.016 C 
HETATM   38  C   UNL     1      15.703   9.108   6.115  1.00  0.00     0.012 C 
HETATM   39  C   UNL     1      18.208   8.990   6.251  1.00  0.00     0.012 C 
ENDBRANCH  18  37
BRANCH  17  40
HETATM   40  C   UNL     1       9.934   5.705   6.852  1.00  0.00     0.016 C 
HETATM   41  C   UNL     1      10.023   4.938   8.169  1.00  0.00     0.012 C 
HETATM   42  C   UNL     1       8.764   5.197   6.012  1.00  0.00     0.012 C 
ENDBRANCH  17  40
BRANCH  15  43
HETATM   43  C   UNL     1      15.190   4.181   8.208  1.00  0.00     0.010 C 
HETATM   44  C   UNL     1      16.435   3.577   7.563  1.00  0.00     0.012 C 
HETATM   45  C   UNL     1      15.406   4.388   9.704  1.00  0.00     0.012 C 
ENDBRANCH  15  43
TORSDOF 6
ENDMDL
MODEL 13
REMARK VINA RESULT:    -4.763     11.096     15.469
REMARK INTER + INTRA:          -5.218
REMARK INTER:                  -6.209
REMARK INTRA:                   0.991
REMARK UNBOUND:                 1.215
REMARK  6 active torsions:
REMARK  status: ('A' for Active; 'I' for Inactive)
REMARK    1  A    between atoms: C_13  and  C_16 
REMARK    2  A    between atoms: C_14  and  C_17 
REMARK    3  A    between atoms: C_15  and  C_18 
REMARK    4  A    between atoms: C_19  and  C_22 
REMARK    5  A    between atoms: C_20  and  C_23 
REMARK    6  A    between atoms: C_21  and  C_24 
ROOT
HETATM    1  O   UNL     1      19.176   4.445   3.925  1.00  0.00    -0.304 OA
HETATM    2  O   UNL     1      20.911   7.256   7.908  1.00  0.00    -0.304 OA
HETATM    3  O   UNL     1      16.285   7.545   6.979  1.00  0.00    -0.304 OA
HETATM    4  O   UNL     1      19.184   4.384   6.516  1.00  0.00    -0.270 OA
HETATM    5  O   UNL     1      16.315   4.549   5.876  1.00  0.00    -0.270 OA
HETATM    6  O   UNL     1      18.896   8.915   9.830  1.00  0.00    -0.270 OA
HETATM    7  O   UNL     1      19.054   6.744   3.801  1.00  0.00    -0.263 OA
HETATM    8  O   UNL     1      20.490   6.422  10.013  1.00  0.00    -0.263 OA
HETATM    9  O   UNL     1      14.667   9.080   7.527  1.00  0.00    -0.263 OA
HETATM   10  N   UNL     1      21.415   4.913   6.824  1.00  0.00    -0.340 N 
HETATM   11  N   UNL     1      16.300   6.224   4.270  1.00  0.00    -0.340 N 
HETATM   12  N   UNL     1      18.341   9.159   7.584  1.00  0.00    -0.340 N 
HETATM   13  C   UNL     1      21.234   4.907   8.291  1.00  0.00     0.190 C 
HETATM   14  C   UNL     1      17.089   5.383   3.347  1.00  0.00     0.190 C 
HETATM   15  C   UNL     1      16.985   9.660   7.890  1.00  0.00     0.190 C 
HETATM   16  C   UNL     1      20.492   4.499   4.516  1.00  0.00     0.227 C 
HETATM   17  C   UNL     1      20.694   8.632   8.264  1.00  0.00     0.227 C 
HETATM   18  C   UNL     1      15.287   6.606   6.534  1.00  0.00     0.227 C 
HETATM   19  C   UNL     1      20.302   4.597   6.032  1.00  0.00     0.250 C 
HETATM   20  C   UNL     1      16.007   5.697   5.540  1.00  0.00     0.250 C 
HETATM   21  C   UNL     1      19.231   8.904   8.642  1.00  0.00     0.250 C 
HETATM   22  C   UNL     1      18.545   5.636   3.699  1.00  0.00     0.283 C 
HETATM   23  C   UNL     1      20.819   6.270   8.841  1.00  0.00     0.283 C 
HETATM   24  C   UNL     1      15.845   8.750   7.438  1.00  0.00     0.283 C 
HETATM   25  C   UNL     1      22.731   5.285   6.297  1.00  0.00     0.153 C 
HETATM   26  C   UNL     1      15.907   7.560   3.812  1.00  0.00     0.153 C 
HETATM   27  C   UNL     1      18.748   9.124   6.178  1.00  0.00     0.153 C 
ENDROOT
BRANCH  16  28
HETATM   28  C   UNL     1      21.196   3.203   4.144  1.00  0.00     0.016 C 
HETATM   29  C   UNL     1      20.253   2.012   4.305  1.00  0.00     0.012 C 
HETATM   30  C   UNL     1      21.733   3.270   2.715  1.00  0.00     0.012 C 
ENDBRANCH  16  28
BRANCH  14  31
HETATM   31  C   UNL     1      16.859   5.624   1.860  1.00  0.00     0.010 C 
HETATM   32  C   UNL     1      18.063   5.155   1.047  1.00  0.00     0.012 C 
HETATM   33  C   UNL     1      15.588   4.918   1.392  1.00  0.00     0.012 C 
ENDBRANCH  14  31
BRANCH  13  34
HETATM   34  C   UNL     1      22.450   4.389   9.059  1.00  0.00     0.010 C 
HETATM   35  C   UNL     1      22.040   3.295  10.044  1.00  0.00     0.012 C 
HETATM   36  C   UNL     1      23.154   5.531   9.791  1.00  0.00     0.012 C 
ENDBRANCH  13  34
BRANCH  18  37
HETATM   37  C   UNL     1      14.777   5.827   7.743  1.00  0.00     0.016 C 
HETATM   38  C   UNL     1      15.673   6.068   8.958  1.00  0.00     0.012 C 
HETATM   39  C   UNL     1      13.332   6.208   8.061  1.00  0.00     0.012 C 
ENDBRANCH  18  37
BRANCH  17  40
HETATM   40  C   UNL     1      21.678   9.104   9.335  1.00  0.00     0.016 C 
HETATM   41  C   UNL     1      21.364  10.537   9.759  1.00  0.00     0.012 C 
HETATM   42  C   UNL     1      23.115   8.997   8.829  1.00  0.00     0.012 C 
ENDBRANCH  17  40
BRANCH  15  43
HETATM   43  C   UNL     1      16.782  11.078   7.355  1.00  0.00     0.010 C 
HETATM   44  C   UNL     1      16.043  11.934   8.380  1.00  0.00     0.012 C 
HETATM   45  C   UNL     1      18.123  11.708   6.992  1.00  0.00     0.012 C 
ENDBRANCH  15  43
TORSDOF 6
ENDMDL
MODEL 14
REMARK VINA RESULT:    -4.701     10.409     13.871
REMARK INTER + INTRA:          -5.135
REMARK INTER:                  -5.824
REMARK INTRA:                   0.688
REMARK UNBOUND:                 1.215
REMARK  6 active torsions:
REMARK  status: ('A' for Active; 'I' for Inactive)
REMARK    1  A    between atoms: C_13  and  C_16 
REMARK    2  A    between atoms: C_14  and  C_17 
REMARK    3  A    between atoms: C_15  and  C_18 
REMARK    4  A    between atoms: C_19  and  C_22 
REMARK    5  A    between atoms: C_20  and  C_23 
REMARK    6  A    between atoms: C_21  and  C_24 
ROOT
HETATM    1  O   UNL     1      13.458   6.410   6.468  1.00  0.00    -0.304 OA
HETATM    2  O   UNL     1      18.339   7.724   7.577  1.00  0.00    -0.304 OA
HETATM    3  O   UNL     1      17.727   4.742   3.959  1.00  0.00    -0.304 OA
HETATM    4  O   UNL     1      15.331   7.955   5.560  1.00  0.00    -0.270 OA
HETATM    5  O   UNL     1      14.895   6.078   3.333  1.00  0.00    -0.270 OA
HETATM    6  O   UNL     1      20.823   6.769   5.727  1.00  0.00    -0.270 OA
HETATM    7  O   UNL     1      14.912   4.776   7.197  1.00  0.00    -0.263 OA
HETATM    8  O   UNL     1      19.322   9.282   6.196  1.00  0.00    -0.263 OA
HETATM    9  O   UNL     1      19.123   3.267   2.887  1.00  0.00    -0.263 OA
HETATM   10  N   UNL     1      15.973   8.873   7.583  1.00  0.00    -0.340 N 
HETATM   11  N   UNL     1      14.835   4.045   4.452  1.00  0.00    -0.340 N 
HETATM   12  N   UNL     1      19.314   5.039   6.102  1.00  0.00    -0.340 N 
HETATM   13  C   UNL     1      17.048   9.638   6.917  1.00  0.00     0.190 C 
HETATM   14  C   UNL     1      13.608   4.446   5.169  1.00  0.00     0.190 C 
HETATM   15  C   UNL     1      19.842   4.228   4.985  1.00  0.00     0.190 C 
HETATM   16  C   UNL     1      13.966   7.358   7.432  1.00  0.00     0.227 C 
HETATM   17  C   UNL     1      19.523   6.924   7.740  1.00  0.00     0.227 C 
HETATM   18  C   UNL     1      16.740   4.613   2.918  1.00  0.00     0.227 C 
HETATM   19  C   UNL     1      15.146   8.079   6.776  1.00  0.00     0.250 C 
HETATM   20  C   UNL     1      15.412   4.983   3.576  1.00  0.00     0.250 C 
HETATM   21  C   UNL     1      19.947   6.252   6.426  1.00  0.00     0.250 C 
HETATM   22  C   UNL     1      14.077   5.194   6.406  1.00  0.00     0.283 C 
HETATM   23  C   UNL     1      18.362   8.864   6.835  1.00  0.00     0.283 C 
HETATM   24  C   UNL     1      18.865   4.006   3.832  1.00  0.00     0.283 C 
HETATM   25  C   UNL     1      15.869   8.966   9.042  1.00  0.00     0.153 C 
HETATM   26  C   UNL     1      15.387   2.715   4.728  1.00  0.00     0.153 C 
HETATM   27  C   UNL     1      18.262   4.446   6.931  1.00  0.00     0.153 C 
ENDROOT
BRANCH  16  28
HETATM   28  C   UNL     1      12.836   8.334   7.727  1.00  0.00     0.016 C 
HETATM   29  C   UNL     1      11.766   8.266   6.639  1.00  0.00     0.012 C 
HETATM   30  C   UNL     1      12.222   8.051   9.098  1.00  0.00     0.012 C 
ENDBRANCH  16  28
BRANCH  14  31
HETATM   31  C   UNL     1      12.666   3.315   5.564  1.00  0.00     0.010 C 
HETATM   32  C   UNL     1      11.755   3.750   6.710  1.00  0.00     0.012 C 
HETATM   33  C   UNL     1      11.838   2.862   4.364  1.00  0.00     0.012 C 
ENDBRANCH  14  31
BRANCH  13  34
HETATM   34  C   UNL     1      17.299  11.014   7.535  1.00  0.00     0.010 C 
HETATM   35  C   UNL     1      17.126  12.114   6.489  1.00  0.00     0.012 C 
HETATM   36  C   UNL     1      18.692  11.082   8.157  1.00  0.00     0.012 C 
ENDBRANCH  13  34
BRANCH  18  37
HETATM   37  C   UNL     1      17.095   5.574   1.786  1.00  0.00     0.016 C 
HETATM   38  C   UNL     1      18.129   6.598   2.254  1.00  0.00     0.012 C 
HETATM   39  C   UNL     1      17.612   4.808   0.570  1.00  0.00     0.012 C 
ENDBRANCH  18  37
BRANCH  17  40
HETATM   40  C   UNL     1      20.657   7.714   8.391  1.00  0.00     0.016 C 
HETATM   41  C   UNL     1      21.902   6.843   8.542  1.00  0.00     0.012 C 
HETATM   42  C   UNL     1      20.219   8.264   9.747  1.00  0.00     0.012 C 
ENDBRANCH  17  40
BRANCH  15  43
HETATM   43  C   UNL     1      20.397   2.892   5.482  1.00  0.00     0.010 C 
HETATM   44  C   UNL     1      19.421   1.760   5.169  1.00  0.00     0.012 C 
HETATM   45  C   UNL     1      21.761   2.616   4.858  1.00  0.00     0.012 C 
ENDBRANCH  15  43
TORSDOF 6
ENDMDL
MODEL 15
REMARK VINA RESULT:    -4.590      7.848     11.894
REMARK INTER + INTRA:          -4.986
REMARK INTER:                  -5.675
REMARK INTRA:                   0.689
REMARK UNBOUND:                 1.215
REMARK  6 active torsions:
REMARK  status: ('A' for Active; 'I' for Inactive)
REMARK    1  A    between atoms: C_13  and  C_16 
REMARK    2  A    between atoms: C_14  and  C_17 
REMARK    3  A    between atoms: C_15  and  C_18 
REMARK    4  A    between atoms: C_19  and  C_22 
REMARK    5  A    between atoms: C_20  and  C_23 
REMARK    6  A    between atoms: C_21  and  C_24 
ROOT
HETATM    1  O   UNL     1      14.590   7.799   7.258  1.00  0.00    -0.304 OA
HETATM    2  O   UNL     1       9.759   9.566   7.826  1.00  0.00    -0.304 OA
HETATM    3  O   UNL     1      10.243   5.427   5.592  1.00  0.00    -0.304 OA
HETATM    4  O   UNL     1      12.497   7.360   8.723  1.00  0.00    -0.270 OA
HETATM    5  O   UNL     1      12.858   4.799   7.313  1.00  0.00    -0.270 OA
HETATM    6  O   UNL     1       7.185   7.806   6.940  1.00  0.00    -0.270 OA
HETATM    7  O   UNL     1      13.377   8.349   5.375  1.00  0.00    -0.263 OA
HETATM    8  O   UNL     1       8.496   8.584   9.483  1.00  0.00    -0.263 OA
HETATM    9  O   UNL     1       8.878   4.237   4.180  1.00  0.00    -0.263 OA
HETATM   10  N   UNL     1      11.998   9.565   9.207  1.00  0.00    -0.340 N 
HETATM   11  N   UNL     1      13.222   5.521   5.138  1.00  0.00    -0.340 N 
HETATM   12  N   UNL     1       8.877   7.723   5.344  1.00  0.00    -0.340 N 
HETATM   13  C   UNL     1      10.793   9.149   9.954  1.00  0.00     0.190 C 
HETATM   14  C   UNL     1      14.479   6.186   5.540  1.00  0.00     0.190 C 
HETATM   15  C   UNL     1       8.307   6.530   4.684  1.00  0.00     0.190 C 
HETATM   16  C   UNL     1      14.106   8.961   7.966  1.00  0.00     0.227 C 
HETATM   17  C   UNL     1       8.677   9.687   6.887  1.00  0.00     0.227 C 
HETATM   18  C   UNL     1      11.119   4.295   5.750  1.00  0.00     0.227 C 
HETATM   19  C   UNL     1      12.801   8.556   8.657  1.00  0.00     0.250 C 
HETATM   20  C   UNL     1      12.471   4.886   6.143  1.00  0.00     0.250 C 
HETATM   21  C   UNL     1       8.176   8.317   6.408  1.00  0.00     0.250 C 
HETATM   22  C   UNL     1      14.080   7.574   6.010  1.00  0.00     0.283 C 
HETATM   23  C   UNL     1       9.553   9.047   9.067  1.00  0.00     0.283 C 
HETATM   24  C   UNL     1       9.168   5.272   4.770  1.00  0.00     0.283 C 
HETATM   25  C   UNL     1      12.251  11.002   9.060  1.00  0.00     0.153 C 
HETATM   26  C   UNL     1      12.826   5.601   3.728  1.00  0.00     0.153 C 
HETATM   27  C   UNL     1      10.061   8.332   4.736  1.00  0.00     0.153 C 
ENDROOT
BRANCH  16  28
HETATM   28  C   UNL     1      15.168   9.325   8.993  1.00  0.00     0.016 C 
HETATM   29  C   UNL     1      16.095   8.139   9.253  1.00  0.00     0.012 C 
HETATM   30  C   UNL     1      15.972  10.540   8.532  1.00  0.00     0.012 C 
ENDBRANCH  16  28
BRANCH  14  31
HETATM   31  C   UNL     1      15.556   6.282   4.467  1.00  0.00     0.010 C 
HETATM   32  C   UNL     1      16.527   7.417   4.782  1.00  0.00     0.012 C 
HETATM   33  C   UNL     1      16.304   4.958   4.336  1.00  0.00     0.012 C 
ENDBRANCH  14  31
BRANCH  13  34
HETATM   34  C   UNL     1      10.487  10.026  11.168  1.00  0.00     0.010 C 
HETATM   35  C   UNL     1      10.196   9.164  12.396  1.00  0.00     0.012 C 
HETATM   36  C   UNL     1       9.313  10.959  10.879  1.00  0.00     0.012 C 
ENDBRANCH  13  34
BRANCH  18  37
HETATM   37  C   UNL     1      10.558   3.393   6.846  1.00  0.00     0.016 C 
HETATM   38  C   UNL     1       9.424   4.095   7.594  1.00  0.00     0.012 C 
HETATM   39  C   UNL     1      10.073   2.068   6.261  1.00  0.00     0.012 C 
ENDBRANCH  18  37
BRANCH  17  40
HETATM   40  C   UNL     1       7.553  10.571   7.427  1.00  0.00     0.016 C 
HETATM   41  C   UNL     1       6.393  10.632   6.436  1.00  0.00     0.012 C 
HETATM   42  C   UNL     1       8.073  11.975   7.732  1.00  0.00     0.012 C 
ENDBRANCH  17  40
BRANCH  15  43
HETATM   43  C   UNL     1       7.932   6.825   3.231  1.00  0.00     0.010 C 
HETATM   44  C   UNL     1       8.979   6.247   2.282  1.00  0.00     0.012 C 
HETATM   45  C   UNL     1       6.549   6.265   2.913  1.00  0.00     0.012 C 
ENDBRANCH  15  43
TORSDOF 6
ENDMDL
MODEL 16
REMARK VINA RESULT:    -4.580      3.238      5.493
REMARK INTER + INTRA:          -4.971
REMARK INTER:                  -5.809
REMARK INTRA:                   0.838
REMARK UNBOUND:                 1.215
REMARK  6 active torsions:
REMARK  status: ('A' for Active; 'I' for Inactive)
REMARK    1  A    between atoms: C_13  and  C_16 
REMARK    2  A    between atoms: C_14  and  C_17 
REMARK    3  A    between atoms: C_15  and  C_18 
REMARK    4  A    between atoms: C_19  and  C_22 
REMARK    5  A    between atoms: C_20  and  C_23 
REMARK    6  A    between atoms: C_21  and  C_24 
ROOT
HETATM    1  O   UNL     1       3.437   8.828  -1.245  1.00  0.00    -0.304 OA
HETATM    2  O   UNL     1       7.266  12.216  -2.041  1.00  0.00    -0.304 OA
HETATM    3  O   UNL     1       2.969  14.032  -1.271  1.00  0.00    -0.304 OA
HETATM    4  O   UNL     1       4.939  10.449   0.109  1.00  0.00    -0.270 OA
HETATM    5  O   UNL     1       2.236  11.526   0.566  1.00  0.00    -0.270 OA
HETATM    6  O   UNL     1       6.801  15.412  -1.761  1.00  0.00    -0.270 OA
HETATM    7  O   UNL     1       3.359  10.177  -3.114  1.00  0.00    -0.263 OA
HETATM    8  O   UNL     1       8.106  13.273  -0.176  1.00  0.00    -0.263 OA
HETATM    9  O   UNL     1       2.029  16.080  -1.711  1.00  0.00    -0.263 OA
HETATM   10  N   UNL     1       6.956   9.882  -0.870  1.00  0.00    -0.340 N 
HETATM   11  N   UNL     1       1.363  11.500  -1.583  1.00  0.00    -0.340 N 
HETATM   12  N   UNL     1       5.060  14.386  -2.914  1.00  0.00    -0.340 N 
HETATM   13  C   UNL     1       7.656  10.907  -0.066  1.00  0.00     0.190 C 
HETATM   14  C   UNL     1       1.440  10.025  -1.626  1.00  0.00     0.190 C 
HETATM   15  C   UNL     1       4.151  15.536  -2.730  1.00  0.00     0.190 C 
HETATM   16  C   UNL     1       4.854   8.602  -1.410  1.00  0.00     0.227 C 
HETATM   17  C   UNL     1       7.350  13.369  -2.897  1.00  0.00     0.227 C 
HETATM   18  C   UNL     1       1.862  13.670  -0.425  1.00  0.00     0.227 C 
HETATM   19  C   UNL     1       5.578   9.725  -0.662  1.00  0.00     0.250 C 
HETATM   20  C   UNL     1       1.837  12.143  -0.426  1.00  0.00     0.250 C 
HETATM   21  C   UNL     1       6.387  14.481  -2.459  1.00  0.00     0.250 C 
HETATM   22  C   UNL     1       2.841   9.698  -2.114  1.00  0.00     0.283 C 
HETATM   23  C   UNL     1       7.691  12.272  -0.750  1.00  0.00     0.283 C 
HETATM   24  C   UNL     1       2.924  15.256  -1.866  1.00  0.00     0.283 C 
HETATM   25  C   UNL     1       7.740   9.129  -1.853  1.00  0.00     0.153 C 
HETATM   26  C   UNL     1       0.832  12.192  -2.762  1.00  0.00     0.153 C 
HETATM   27  C   UNL     1       4.578  13.266  -3.726  1.00  0.00     0.153 C 
ENDROOT
BRANCH  16  28
HETATM   28  C   UNL     1       5.160   7.251  -0.781  1.00  0.00     0.016 C 
HETATM   29  C   UNL     1       4.194   6.958   0.365  1.00  0.00     0.012 C 
HETATM   30  C   UNL     1       5.099   6.141  -1.829  1.00  0.00     0.012 C 
ENDBRANCH  16  28
BRANCH  14  31
HETATM   31  C   UNL     1       0.402   9.327  -2.497  1.00  0.00     0.010 C 
HETATM   32  C   UNL     1       0.876   7.927  -2.878  1.00  0.00     0.012 C 
HETATM   33  C   UNL     1      -0.944   9.261  -1.780  1.00  0.00     0.012 C 
ENDBRANCH  14  31
BRANCH  13  34
HETATM   34  C   UNL     1       9.070  10.503   0.350  1.00  0.00     0.010 C 
HETATM   35  C   UNL     1       9.223  10.563   1.869  1.00  0.00     0.012 C 
HETATM   36  C   UNL     1      10.109  11.395  -0.327  1.00  0.00     0.012 C 
ENDBRANCH  13  34
BRANCH  18  37
HETATM   37  C   UNL     1       2.112  14.229   0.974  1.00  0.00     0.016 C 
HETATM   38  C   UNL     1       3.579  14.628   1.139  1.00  0.00     0.012 C 
HETATM   39  C   UNL     1       1.199  15.420   1.252  1.00  0.00     0.012 C 
ENDBRANCH  18  37
BRANCH  17  40
HETATM   40  C   UNL     1       8.790  13.861  -3.048  1.00  0.00     0.016 C 
HETATM   41  C   UNL     1       8.843  15.107  -3.929  1.00  0.00     0.012 C 
HETATM   42  C   UNL     1       9.677  12.758  -3.624  1.00  0.00     0.012 C 
ENDBRANCH  17  40
BRANCH  15  43
HETATM   43  C   UNL     1       3.734  16.136  -4.074  1.00  0.00     0.010 C 
HETATM   44  C   UNL     1       2.945  17.425  -3.860  1.00  0.00     0.012 C 
HETATM   45  C   UNL     1       4.959  16.392  -4.947  1.00  0.00     0.012 C 
ENDBRANCH  15  43
TORSDOF 6
ENDMDL
MODEL 17
REMARK VINA RESULT:    -4.527     10.161     12.509
REMARK INTER + INTRA:          -4.900
REMARK INTER:                  -6.137
REMARK INTRA:                   1.236
REMARK UNBOUND:                 1.215
REMARK  6 active torsions:
REMARK  status: ('A' for Active; 'I' for Inactive)
REMARK    1  A    between atoms: C_13  and  C_16 
REMARK    2  A    between atoms: C_14  and  C_17 
REMARK    3  A    between atoms: C_15  and  C_18 
REMARK    4  A    between atoms: C_19  and  C_22 
REMARK    5  A    between atoms: C_20  and  C_23 
REMARK    6  A    between atoms: C_21  and  C_24 
ROOT
HETATM    1  O   UNL     1      14.527   5.708   5.397  1.00  0.00    -0.304 OA
HETATM    2  O   UNL     1      13.731   2.158   1.716  1.00  0.00    -0.304 OA
HETATM    3  O   UNL     1      18.174   3.684   2.250  1.00  0.00    -0.304 OA
HETATM    4  O   UNL     1      14.890   3.172   5.002  1.00  0.00    -0.270 OA
HETATM    5  O   UNL     1      17.635   4.177   5.358  1.00  0.00    -0.270 OA
HETATM    6  O   UNL     1      16.185   0.853   0.048  1.00  0.00    -0.270 OA
HETATM    7  O   UNL     1      14.895   6.286   3.195  1.00  0.00    -0.263 OA
HETATM    8  O   UNL     1      14.356   0.000   2.219  1.00  0.00    -0.263 OA
HETATM    9  O   UNL     1      20.022   3.644   0.887  1.00  0.00    -0.263 OA
HETATM   10  N   UNL     1      12.806   2.702   4.117  1.00  0.00    -0.340 N 
HETATM   11  N   UNL     1      17.610   6.066   4.010  1.00  0.00    -0.340 N 
HETATM   12  N   UNL     1      16.430   3.155   0.281  1.00  0.00    -0.340 N 
HETATM   13  C   UNL     1      13.197   1.294   3.892  1.00  0.00     0.190 C 
HETATM   14  C   UNL     1      16.601   6.706   4.879  1.00  0.00     0.190 C 
HETATM   15  C   UNL     1      17.866   3.119  -0.068  1.00  0.00     0.190 C 
HETATM   16  C   UNL     1      13.326   4.982   5.054  1.00  0.00     0.227 C 
HETATM   17  C   UNL     1      14.156   2.104   0.343  1.00  0.00     0.227 C 
HETATM   18  C   UNL     1      18.980   4.058   3.384  1.00  0.00     0.227 C 
HETATM   19  C   UNL     1      13.746   3.548   4.721  1.00  0.00     0.250 C 
HETATM   20  C   UNL     1      18.022   4.763   4.342  1.00  0.00     0.250 C 
HETATM   21  C   UNL     1      15.681   1.967   0.219  1.00  0.00     0.250 C 
HETATM   22  C   UNL     1      15.252   6.233   4.365  1.00  0.00     0.283 C 
HETATM   23  C   UNL     1      13.843   1.071   2.526  1.00  0.00     0.283 C 
HETATM   24  C   UNL     1      18.814   3.523   1.059  1.00  0.00     0.283 C 
HETATM   25  C   UNL     1      11.478   3.125   3.660  1.00  0.00     0.153 C 
HETATM   26  C   UNL     1      18.084   6.817   2.843  1.00  0.00     0.153 C 
HETATM   27  C   UNL     1      15.821   4.468   0.504  1.00  0.00     0.153 C 
ENDROOT
BRANCH  16  28
HETATM   28  C   UNL     1      12.430   5.008   6.283  1.00  0.00     0.016 C 
HETATM   29  C   UNL     1      13.265   5.122   7.557  1.00  0.00     0.012 C 
HETATM   30  C   UNL     1      11.427   6.159   6.196  1.00  0.00     0.012 C 
ENDBRANCH  16  28
BRANCH  14  31
HETATM   31  C   UNL     1      16.638   8.228   4.937  1.00  0.00     0.010 C 
HETATM   32  C   UNL     1      15.250   8.788   5.240  1.00  0.00     0.012 C 
HETATM   33  C   UNL     1      17.647   8.702   5.981  1.00  0.00     0.012 C 
ENDBRANCH  14  31
BRANCH  13  34
HETATM   34  C   UNL     1      12.054   0.298   4.089  1.00  0.00     0.010 C 
HETATM   35  C   UNL     1      10.976   0.495   3.024  1.00  0.00     0.012 C 
HETATM   36  C   UNL     1      11.455   0.433   5.487  1.00  0.00     0.012 C 
ENDBRANCH  13  34
BRANCH  18  37
HETATM   37  C   UNL     1      19.568   2.793   4.004  1.00  0.00     0.016 C 
HETATM   38  C   UNL     1      18.913   1.547   3.408  1.00  0.00     0.012 C 
HETATM   39  C   UNL     1      21.082   2.748   3.808  1.00  0.00     0.012 C 
ENDBRANCH  18  37
BRANCH  17  40
HETATM   40  C   UNL     1      13.402   1.032  -0.443  1.00  0.00     0.016 C 
HETATM   41  C   UNL     1      13.833   1.037  -1.908  1.00  0.00     0.012 C 
HETATM   42  C   UNL     1      11.893   1.242  -0.327  1.00  0.00     0.012 C 
ENDBRANCH  17  40
BRANCH  15  43
HETATM   43  C   UNL     1      18.152   3.938  -1.328  1.00  0.00     0.010 C 
HETATM   44  C   UNL     1      18.824   5.259  -0.964  1.00  0.00     0.012 C 
HETATM   45  C   UNL     1      19.020   3.141  -2.297  1.00  0.00     0.012 C 
ENDBRANCH  15  43
TORSDOF 6
ENDMDL
MODEL 18
REMARK VINA RESULT:    -4.522      4.058      7.579
REMARK INTER + INTRA:          -4.893
REMARK INTER:                  -5.614
REMARK INTRA:                   0.721
REMARK UNBOUND:                 1.215
REMARK  6 active torsions:
REMARK  status: ('A' for Active; 'I' for Inactive)
REMARK    1  A    between atoms: C_13  and  C_16 
REMARK    2  A    between atoms: C_14  and  C_17 
REMARK    3  A    between atoms: C_15  and  C_18 
REMARK    4  A    between atoms: C_19  and  C_22 
REMARK    5  A    between atoms: C_20  and  C_23 
REMARK    6  A    between atoms: C_21  and  C_24 
ROOT
HETATM    1  O   UNL     1       1.721  11.412  -4.951  1.00  0.00    -0.304 OA
HETATM    2  O   UNL     1       5.791  13.750  -2.772  1.00  0.00    -0.304 OA
HETATM    3  O   UNL     1       6.242  12.534  -7.319  1.00  0.00    -0.304 OA
HETATM    4  O   UNL     1       2.865  13.738  -4.918  1.00  0.00    -0.270 OA
HETATM    5  O   UNL     1       3.103  12.934  -7.740  1.00  0.00    -0.270 OA
HETATM    6  O   UNL     1       8.407  14.579  -4.498  1.00  0.00    -0.270 OA
HETATM    7  O   UNL     1       3.696  10.240  -4.738  1.00  0.00    -0.263 OA
HETATM    8  O   UNL     1       6.091  15.976  -3.282  1.00  0.00    -0.263 OA
HETATM    9  O   UNL     1       8.060  12.225  -8.688  1.00  0.00    -0.263 OA
HETATM   10  N   UNL     1       3.169  13.893  -2.630  1.00  0.00    -0.340 N 
HETATM   11  N   UNL     1       3.829  10.740  -7.532  1.00  0.00    -0.340 N 
HETATM   12  N   UNL     1       7.657  12.445  -5.041  1.00  0.00    -0.340 N 
HETATM   13  C   UNL     1       3.866  15.186  -2.790  1.00  0.00     0.190 C 
HETATM   14  C   UNL     1       2.558  10.352  -6.886  1.00  0.00     0.190 C 
HETATM   15  C   UNL     1       8.421  12.410  -6.306  1.00  0.00     0.190 C 
HETATM   16  C   UNL     1       1.864  11.985  -3.633  1.00  0.00     0.227 C 
HETATM   17  C   UNL     1       7.191  13.422  -2.781  1.00  0.00     0.227 C 
HETATM   18  C   UNL     1       5.349  12.516  -8.448  1.00  0.00     0.227 C 
HETATM   19  C   UNL     1       2.676  13.274  -3.788  1.00  0.00     0.250 C 
HETATM   20  C   UNL     1       3.995  12.092  -7.882  1.00  0.00     0.250 C 
HETATM   21  C   UNL     1       7.802  13.550  -4.184  1.00  0.00     0.250 C 
HETATM   22  C   UNL     1       2.746  10.630  -5.404  1.00  0.00     0.283 C 
HETATM   23  C   UNL     1       5.371  15.025  -2.995  1.00  0.00     0.283 C 
HETATM   24  C   UNL     1       7.569  12.363  -7.572  1.00  0.00     0.283 C 
HETATM   25  C   UNL     1       3.073  13.329  -1.280  1.00  0.00     0.153 C 
HETATM   26  C   UNL     1       4.842   9.699  -7.732  1.00  0.00     0.153 C 
HETATM   27  C   UNL     1       6.921  11.237  -4.662  1.00  0.00     0.153 C 
ENDROOT
BRANCH  16  28
HETATM   28  C   UNL     1       0.461  12.290  -3.131  1.00  0.00     0.016 C 
HETATM   29  C   UNL     1      -0.528  12.349  -4.295  1.00  0.00     0.012 C 
HETATM   30  C   UNL     1       0.016  11.249  -2.105  1.00  0.00     0.012 C 
ENDBRANCH  16  28
BRANCH  14  31
HETATM   31  C   UNL     1       2.114   8.911  -7.099  1.00  0.00     0.010 C 
HETATM   32  C   UNL     1       1.126   8.488  -6.014  1.00  0.00     0.012 C 
HETATM   33  C   UNL     1       1.495   8.738  -8.484  1.00  0.00     0.012 C 
ENDBRANCH  14  31
BRANCH  13  34
HETATM   34  C   UNL     1       3.603  16.173  -1.653  1.00  0.00     0.010 C 
HETATM   35  C   UNL     1       3.020  17.477  -2.195  1.00  0.00     0.012 C 
HETATM   36  C   UNL     1       4.884  16.446  -0.867  1.00  0.00     0.012 C 
ENDBRANCH  13  34
BRANCH  18  37
HETATM   37  C   UNL     1       5.294  13.917  -9.051  1.00  0.00     0.016 C 
HETATM   38  C   UNL     1       5.915  14.938  -8.098  1.00  0.00     0.012 C 
HETATM   39  C   UNL     1       6.000  13.950 -10.405  1.00  0.00     0.012 C 
ENDBRANCH  18  37
BRANCH  17  40
HETATM   40  C   UNL     1       7.967  14.209  -1.725  1.00  0.00     0.016 C 
HETATM   41  C   UNL     1       9.440  13.806  -1.728  1.00  0.00     0.012 C 
HETATM   42  C   UNL     1       7.355  13.999  -0.341  1.00  0.00     0.012 C 
ENDBRANCH  17  40
BRANCH  15  43
HETATM   43  C   UNL     1       9.444  11.273  -6.306  1.00  0.00     0.010 C 
HETATM   44  C   UNL     1       9.015  10.170  -7.270  1.00  0.00     0.012 C 
HETATM   45  C   UNL     1      10.828  11.801  -6.673  1.00  0.00     0.012 C 
ENDBRANCH  15  43
TORSDOF 6
ENDMDL
MODEL 19
REMARK VINA RESULT:    -4.488      2.454      6.630
REMARK INTER + INTRA:          -4.848
REMARK INTER:                  -6.147
REMARK INTRA:                   1.299
REMARK UNBOUND:                 1.215
REMARK  6 active torsions:
REMARK  status: ('A' for Active; 'I' for Inactive)
REMARK    1  A    between atoms: C_13  and  C_16 
REMARK    2  A    between atoms: C_14  and  C_17 
REMARK    3  A    between atoms: C_15  and  C_18 
REMARK    4  A    between atoms: C_19  and  C_22 
REMARK    5  A    between atoms: C_20  and  C_23 
REMARK    6  A    between atoms: C_21  and  C_24 
ROOT
HETATM    1  O   UNL     1       3.969  11.872   1.361  1.00  0.00    -0.304 OA
HETATM    2  O   UNL     1       6.722  14.081  -2.424  1.00  0.00    -0.304 OA
HETATM    3  O   UNL     1       6.026   9.417  -2.768  1.00  0.00    -0.304 OA
HETATM    4  O   UNL     1       3.672  12.627  -1.101  1.00  0.00    -0.270 OA
HETATM    5  O   UNL     1       3.232   9.719  -1.252  1.00  0.00    -0.270 OA
HETATM    6  O   UNL     1       7.689  12.410  -5.027  1.00  0.00    -0.270 OA
HETATM    7  O   UNL     1       6.181  11.273   1.098  1.00  0.00    -0.263 OA
HETATM    8  O   UNL     1       5.623  14.446  -4.414  1.00  0.00    -0.263 OA
HETATM    9  O   UNL     1       7.091   7.754  -3.939  1.00  0.00    -0.263 OA
HETATM   10  N   UNL     1       4.668  14.704  -0.903  1.00  0.00    -0.340 N 
HETATM   11  N   UNL     1       5.000   8.922   0.023  1.00  0.00    -0.340 N 
HETATM   12  N   UNL     1       8.006  11.204  -3.063  1.00  0.00    -0.340 N 
HETATM   13  C   UNL     1       4.485  14.952  -2.348  1.00  0.00     0.190 C 
HETATM   14  C   UNL     1       4.452   9.566   1.235  1.00  0.00     0.190 C 
HETATM   15  C   UNL     1       8.151   9.919  -3.779  1.00  0.00     0.190 C 
HETATM   16  C   UNL     1       4.270  13.265   1.126  1.00  0.00     0.227 C 
HETATM   17  C   UNL     1       7.972  13.709  -3.028  1.00  0.00     0.227 C 
HETATM   18  C   UNL     1       4.928   8.539  -2.456  1.00  0.00     0.227 C 
HETATM   19  C   UNL     1       4.180  13.497  -0.385  1.00  0.00     0.250 C 
HETATM   20  C   UNL     1       4.305   9.110  -1.185  1.00  0.00     0.250 C 
HETATM   21  C   UNL     1       7.865  12.389  -3.805  1.00  0.00     0.250 C 
HETATM   22  C   UNL     1       4.999  10.983   1.233  1.00  0.00     0.283 C 
HETATM   23  C   UNL     1       5.659  14.452  -3.188  1.00  0.00     0.283 C 
HETATM   24  C   UNL     1       7.049   8.899  -3.502  1.00  0.00     0.283 C 
HETATM   25  C   UNL     1       5.380  15.718  -0.119  1.00  0.00     0.153 C 
HETATM   26  C   UNL     1       6.247   8.162   0.156  1.00  0.00     0.153 C 
HETATM   27  C   UNL     1       8.196  11.194  -1.611  1.00  0.00     0.153 C 
ENDROOT
BRANCH  16  28
HETATM   28  C   UNL     1       3.210  14.074   1.859  1.00  0.00     0.016 C 
HETATM   29  C   UNL     1       1.846  13.908   1.189  1.00  0.00     0.012 C 
HETATM   30  C   UNL     1       3.136  13.663   3.329  1.00  0.00     0.012 C 
ENDBRANCH  16  28
BRANCH  14  31
HETATM   31  C   UNL     1       4.770   8.881   2.558  1.00  0.00     0.010 C 
HETATM   32  C   UNL     1       4.671   9.873   3.714  1.00  0.00     0.012 C 
HETATM   33  C   UNL     1       3.836   7.695   2.787  1.00  0.00     0.012 C 
ENDBRANCH  14  31
BRANCH  13  34
HETATM   34  C   UNL     1       4.192  16.412  -2.691  1.00  0.00     0.010 C 
HETATM   35  C   UNL     1       2.985  16.919  -1.903  1.00  0.00     0.012 C 
HETATM   36  C   UNL     1       3.959  16.580  -4.191  1.00  0.00     0.012 C 
ENDBRANCH  13  34
BRANCH  18  37
HETATM   37  C   UNL     1       3.944   8.554  -3.623  1.00  0.00     0.016 C 
HETATM   38  C   UNL     1       4.285   9.679  -4.600  1.00  0.00     0.012 C 
HETATM   39  C   UNL     1       3.935   7.206  -4.341  1.00  0.00     0.012 C 
ENDBRANCH  18  37
BRANCH  17  40
HETATM   40  C   UNL     1       8.557  14.844  -3.869  1.00  0.00     0.016 C 
HETATM   41  C   UNL     1      10.034  14.590  -4.162  1.00  0.00     0.012 C 
HETATM   42  C   UNL     1       8.372  16.186  -3.164  1.00  0.00     0.012 C 
ENDBRANCH  17  40
BRANCH  15  43
HETATM   43  C   UNL     1       9.528   9.300  -3.536  1.00  0.00     0.010 C 
HETATM   44  C   UNL     1      10.630  10.264  -3.967  1.00  0.00     0.012 C 
HETATM   45  C   UNL     1       9.690   8.918  -2.068  1.00  0.00     0.012 C 
ENDBRANCH  15  43
TORSDOF 6
ENDMDL
MODEL 20
REMARK VINA RESULT:    -4.481      2.407      3.403
REMARK INTER + INTRA:          -4.838
REMARK INTER:                  -5.823
REMARK INTRA:                   0.985
REMARK UNBOUND:                 1.215
REMARK  6 active torsions:
REMARK  status: ('A' for Active; 'I' for Inactive)
REMARK    1  A    between atoms: C_13  and  C_16 
REMARK    2  A    between atoms: C_14  and  C_17 
REMARK    3  A    between atoms: C_15  and  C_18 
REMARK    4  A    between atoms: C_19  and  C_22 
REMARK    5  A    between atoms: C_20  and  C_23 
REMARK    6  A    between atoms: C_21  and  C_24 
ROOT
HETATM    1  O   UNL     1       3.446   9.661   0.701  1.00  0.00    -0.304 OA
HETATM    2  O   UNL     1       8.090  10.458  -1.439  1.00  0.00    -0.304 OA
HETATM    3  O   UNL     1       4.820  13.789  -2.192  1.00  0.00    -0.304 OA
HETATM    4  O   UNL     1       5.570  11.094   1.094  1.00  0.00    -0.270 OA
HETATM    5  O   UNL     1       3.487  13.124   0.632  1.00  0.00    -0.270 OA
HETATM    6  O   UNL     1       8.803  13.216  -2.986  1.00  0.00    -0.270 OA
HETATM    7  O   UNL     1       3.618   9.713  -1.598  1.00  0.00    -0.263 OA
HETATM    8  O   UNL     1       9.463  11.972  -0.377  1.00  0.00    -0.263 OA
HETATM    9  O   UNL     1       4.605  15.452  -3.762  1.00  0.00    -0.263 OA
HETATM   10  N   UNL     1       7.130   9.416   0.777  1.00  0.00    -0.340 N 
HETATM   11  N   UNL     1       2.407  12.258  -1.230  1.00  0.00    -0.340 N 
HETATM   12  N   UNL     1       6.688  12.431  -3.556  1.00  0.00    -0.340 N 
HETATM   13  C   UNL     1       8.234  10.382   0.957  1.00  0.00     0.190 C 
HETATM   14  C   UNL     1       1.960  11.081  -0.457  1.00  0.00     0.190 C 
HETATM   15  C   UNL     1       6.266  13.732  -4.114  1.00  0.00     0.190 C 
HETATM   16  C   UNL     1       4.665   8.896   0.822  1.00  0.00     0.227 C 
HETATM   17  C   UNL     1       8.466  10.848  -2.771  1.00  0.00     0.227 C 
HETATM   18  C   UNL     1       3.766  14.362  -1.395  1.00  0.00     0.227 C 
HETATM   19  C   UNL     1       5.819   9.898   0.905  1.00  0.00     0.250 C 
HETATM   20  C   UNL     1       3.212  13.204  -0.569  1.00  0.00     0.250 C 
HETATM   21  C   UNL     1       8.010  12.277  -3.102  1.00  0.00     0.250 C 
HETATM   22  C   UNL     1       3.090  10.070  -0.553  1.00  0.00     0.283 C 
HETATM   23  C   UNL     1       8.659  11.045  -0.351  1.00  0.00     0.283 C 
HETATM   24  C   UNL     1       5.132  14.420  -3.358  1.00  0.00     0.283 C 
HETATM   25  C   UNL     1       7.478   8.033   0.441  1.00  0.00     0.153 C 
HETATM   26  C   UNL     1       2.013  12.341  -2.640  1.00  0.00     0.153 C 
HETATM   27  C   UNL     1       5.753  11.310  -3.671  1.00  0.00     0.153 C 
ENDROOT
BRANCH  16  28
HETATM   28  C   UNL     1       4.555   8.093   2.109  1.00  0.00     0.016 C 
HETATM   29  C   UNL     1       3.491   8.690   3.029  1.00  0.00     0.012 C 
HETATM   30  C   UNL     1       4.241   6.628   1.808  1.00  0.00     0.012 C 
ENDBRANCH  16  28
BRANCH  14  31
HETATM   31  C   UNL     1       0.648  10.448  -0.903  1.00  0.00     0.010 C 
HETATM   32  C   UNL     1       0.552   9.006  -0.410  1.00  0.00     0.012 C 
HETATM   33  C   UNL     1      -0.540  11.266  -0.402  1.00  0.00     0.012 C 
ENDBRANCH  14  31
BRANCH  13  34
HETATM   34  C   UNL     1       9.458   9.795   1.658  1.00  0.00     0.010 C 
HETATM   35  C   UNL     1       9.508  10.239   3.120  1.00  0.00     0.012 C 
HETATM   36  C   UNL     1      10.741  10.197   0.934  1.00  0.00     0.012 C 
ENDBRANCH  13  34
BRANCH  18  37
HETATM   37  C   UNL     1       4.362  15.452  -0.508  1.00  0.00     0.016 C 
HETATM   38  C   UNL     1       5.883  15.316  -0.436  1.00  0.00     0.012 C 
HETATM   39  C   UNL     1       3.972  16.838  -1.019  1.00  0.00     0.012 C 
ENDBRANCH  18  37
BRANCH  17  40
HETATM   40  C   UNL     1       9.957  10.631  -3.027  1.00  0.00     0.016 C 
HETATM   41  C   UNL     1      10.292  10.877  -4.496  1.00  0.00     0.012 C 
HETATM   42  C   UNL     1      10.374   9.221  -2.610  1.00  0.00     0.012 C 
ENDBRANCH  17  40
BRANCH  15  43
HETATM   43  C   UNL     1       5.925  13.616  -5.600  1.00  0.00     0.010 C 
HETATM   44  C   UNL     1       5.747  15.001  -6.217  1.00  0.00     0.012 C 
HETATM   45  C   UNL     1       7.009  12.834  -6.336  1.00  0.00     0.012 C 
ENDBRANCH  15  43
TORSDOF 6
ENDMDL
