MODEL 1
REMARK VINA RESULT:    -6.008      0.000      0.000
REMARK INTER + INTRA:          -7.391
REMARK INTER:                  -8.116
REMARK INTRA:                   0.724
REMARK UNBOUND:                 0.724
REMARK  6 active torsions:
REMARK  status: ('A' for Active; 'I' for Inactive)
REMARK    1  A    between atoms: C_13  and  C_16 
REMARK    2  A    between atoms: C_14  and  C_17 
REMARK    3  A    between atoms: C_15  and  C_18 
REMARK    4  A    between atoms: C_19  and  C_22 
REMARK    5  A    between atoms: C_20  and  C_23 
REMARK    6  A    between atoms: C_21  and  C_24 
ROOT
HETATM    1  O   UNL     1      50.438  23.105  10.410  1.00  0.00    -0.304 OA
HETATM    2  O   UNL     1      49.166  23.892   5.455  1.00  0.00    -0.304 OA
HETATM    3  O   UNL     1      53.451  22.067   6.270  1.00  0.00    -0.304 OA
HETATM    4  O   UNL     1      49.677  21.747   8.337  1.00  0.00    -0.270 OA
HETATM    5  O   UNL     1      52.346  20.638   8.902  1.00  0.00    -0.270 OA
HETATM    6  O   UNL     1      51.092  22.938   3.029  1.00  0.00    -0.270 OA
HETATM    7  O   UNL     1      51.640  24.644   9.183  1.00  0.00    -0.263 OA
HETATM    8  O   UNL     1      48.546  22.033   4.248  1.00  0.00    -0.263 OA
HETATM    9  O   UNL     1      55.370  21.944   5.013  1.00  0.00    -0.263 OA
HETATM   10  N   UNL     1      47.961  23.147   7.671  1.00  0.00    -0.340 N 
HETATM   11  N   UNL     1      53.584  22.571   9.239  1.00  0.00    -0.340 N 
HETATM   12  N   UNL     1      52.301  23.948   4.742  1.00  0.00    -0.340 N 
HETATM   13  C   UNL     1      47.700  22.297   6.491  1.00  0.00     0.190 C 
HETATM   14  C   UNL     1      52.789  22.904  10.438  1.00  0.00     0.190 C 
HETATM   15  C   UNL     1      53.587  23.396   4.269  1.00  0.00     0.190 C 
HETATM   16  C   UNL     1      49.191  23.550   9.833  1.00  0.00     0.227 C 
HETATM   17  C   UNL     1      49.887  24.516   4.379  1.00  0.00     0.227 C 
HETATM   18  C   UNL     1      53.979  21.127   7.224  1.00  0.00     0.227 C 
HETATM   19  C   UNL     1      48.972  22.739   8.553  1.00  0.00     0.250 C 
HETATM   20  C   UNL     1      53.231  21.412   8.525  1.00  0.00     0.250 C 
HETATM   21  C   UNL     1      51.138  23.717   3.986  1.00  0.00     0.250 C 
HETATM   22  C   UNL     1      51.583  23.679   9.933  1.00  0.00     0.283 C 
HETATM   23  C   UNL     1      48.526  22.705   5.273  1.00  0.00     0.283 C 
HETATM   24  C   UNL     1      54.251  22.403   5.220  1.00  0.00     0.283 C 
HETATM   25  C   UNL     1      47.174  24.374   7.819  1.00  0.00     0.153 C 
HETATM   26  C   UNL     1      54.662  23.489   8.855  1.00  0.00     0.153 C 
HETATM   27  C   UNL     1      52.335  24.861   5.885  1.00  0.00     0.153 C 
ENDROOT
BRANCH  16  28
HETATM   28  C   UNL     1      48.102  23.250  10.853  1.00  0.00     0.016 C 
HETATM   29  C   UNL     1      48.566  22.178  11.838  1.00  0.00     0.012 C 
HETATM   30  C   UNL     1      47.695  24.520  11.599  1.00  0.00     0.012 C 
ENDBRANCH  16  28
BRANCH  14  31
HETATM   31  C   UNL     1      53.510  23.700  11.519  1.00  0.00     0.010 C 
HETATM   32  C   UNL     1      52.506  24.351  12.467  1.00  0.00     0.012 C 
HETATM   33  C   UNL     1      54.475  22.804  12.292  1.00  0.00     0.012 C 
ENDBRANCH  14  31
BRANCH  13  34
HETATM   34  C   UNL     1      46.223  22.213   6.106  1.00  0.00     0.010 C 
HETATM   35  C   UNL     1      45.848  20.785   5.714  1.00  0.00     0.012 C 
HETATM   36  C   UNL     1      45.904  23.181   4.969  1.00  0.00     0.012 C 
ENDBRANCH  13  34
BRANCH  18  37
HETATM   37  C   UNL     1      53.710  19.712   6.718  1.00  0.00     0.016 C 
HETATM   38  C   UNL     1      52.754  19.740   5.525  1.00  0.00     0.012 C 
HETATM   39  C   UNL     1      55.015  19.015   6.341  1.00  0.00     0.012 C 
ENDBRANCH  18  37
BRANCH  17  40
HETATM   40  C   UNL     1      48.979  24.816   3.186  1.00  0.00     0.016 C 
HETATM   41  C   UNL     1      49.783  25.423   2.038  1.00  0.00     0.012 C 
HETATM   42  C   UNL     1      47.842  25.749   3.598  1.00  0.00     0.012 C 
ENDBRANCH  17  40
BRANCH  15  43
HETATM   43  C   UNL     1      54.565  24.511   3.891  1.00  0.00     0.010 C 
HETATM   44  C   UNL     1      55.619  24.688   4.981  1.00  0.00     0.012 C 
HETATM   45  C   UNL     1      55.223  24.210   2.548  1.00  0.00     0.012 C 
ENDBRANCH  15  43
TORSDOF 6
ENDMDL
MODEL 2
REMARK VINA RESULT:    -5.685      1.794      6.578
REMARK INTER + INTRA:          -6.955
REMARK INTER:                  -7.942
REMARK INTRA:                   0.987
REMARK UNBOUND:                 0.724
REMARK  6 active torsions:
REMARK  status: ('A' for Active; 'I' for Inactive)
REMARK    1  A    between atoms: C_13  and  C_16 
REMARK    2  A    between atoms: C_14  and  C_17 
REMARK    3  A    between atoms: C_15  and  C_18 
REMARK    4  A    between atoms: C_19  and  C_22 
REMARK    5  A    between atoms: C_20  and  C_23 
REMARK    6  A    between atoms: C_21  and  C_24 
ROOT
HETATM    1  O   UNL     1      51.617  23.753  10.662  1.00  0.00    -0.304 OA
HETATM    2  O   UNL     1      53.600  21.234   6.599  1.00  0.00    -0.304 OA
HETATM    3  O   UNL     1      49.218  22.935   6.093  1.00  0.00    -0.304 OA
HETATM    4  O   UNL     1      52.649  24.272   8.342  1.00  0.00    -0.270 OA
HETATM    5  O   UNL     1      49.912  25.328   8.090  1.00  0.00    -0.270 OA
HETATM    6  O   UNL     1      52.031  21.064   3.768  1.00  0.00    -0.270 OA
HETATM    7  O   UNL     1      50.626  21.786   9.980  1.00  0.00    -0.263 OA
HETATM    8  O   UNL     1      54.363  22.534   4.858  1.00  0.00    -0.263 OA
HETATM    9  O   UNL     1      47.499  22.441   4.653  1.00  0.00    -0.263 OA
HETATM   10  N   UNL     1      54.463  22.845   8.491  1.00  0.00    -0.340 N 
HETATM   11  N   UNL     1      48.665  23.587   8.984  1.00  0.00    -0.340 N 
HETATM   12  N   UNL     1      50.603  20.698   5.568  1.00  0.00    -0.340 N 
HETATM   13  C   UNL     1      54.880  23.199   7.118  1.00  0.00     0.190 C 
HETATM   14  C   UNL     1      49.284  23.789  10.310  1.00  0.00     0.190 C 
HETATM   15  C   UNL     1      49.390  20.940   4.759  1.00  0.00     0.190 C 
HETATM   16  C   UNL     1      52.940  23.209  10.465  1.00  0.00     0.227 C 
HETATM   17  C   UNL     1      53.051  20.201   5.764  1.00  0.00     0.227 C 
HETATM   18  C   UNL     1      48.545  24.129   6.536  1.00  0.00     0.227 C 
HETATM   19  C   UNL     1      53.330  23.487   9.011  1.00  0.00     0.250 C 
HETATM   20  C   UNL     1      49.102  24.409   7.930  1.00  0.00     0.250 C 
HETATM   21  C   UNL     1      51.859  20.704   4.937  1.00  0.00     0.250 C 
HETATM   22  C   UNL     1      50.561  22.965  10.301  1.00  0.00     0.283 C 
HETATM   23  C   UNL     1      54.244  22.304   6.057  1.00  0.00     0.283 C 
HETATM   24  C   UNL     1      48.582  22.173   5.161  1.00  0.00     0.283 C 
HETATM   25  C   UNL     1      55.238  21.822   9.200  1.00  0.00     0.153 C 
HETATM   26  C   UNL     1      47.667  22.521   8.850  1.00  0.00     0.153 C 
HETATM   27  C   UNL     1      50.416  20.287   6.961  1.00  0.00     0.153 C 
ENDROOT
BRANCH  16  28
HETATM   28  C   UNL     1      53.866  23.947  11.421  1.00  0.00     0.016 C 
HETATM   29  C   UNL     1      53.093  24.995  12.220  1.00  0.00     0.012 C 
HETATM   30  C   UNL     1      54.565  22.966  12.362  1.00  0.00     0.012 C 
ENDBRANCH  16  28
BRANCH  14  31
HETATM   31  C   UNL     1      48.426  23.415  11.512  1.00  0.00     0.010 C 
HETATM   32  C   UNL     1      49.264  23.406  12.789  1.00  0.00     0.012 C 
HETATM   33  C   UNL     1      47.248  24.377  11.651  1.00  0.00     0.012 C 
ENDBRANCH  14  31
BRANCH  13  34
HETATM   34  C   UNL     1      56.396  23.231   6.923  1.00  0.00     0.010 C 
HETATM   35  C   UNL     1      56.834  24.566   6.322  1.00  0.00     0.012 C 
HETATM   36  C   UNL     1      56.852  22.072   6.040  1.00  0.00     0.012 C 
ENDBRANCH  13  34
BRANCH  18  37
HETATM   37  C   UNL     1      48.865  25.260   5.563  1.00  0.00     0.016 C 
HETATM   38  C   UNL     1      49.984  24.848   4.607  1.00  0.00     0.012 C 
HETATM   39  C   UNL     1      47.618  25.671   4.782  1.00  0.00     0.012 C 
ENDBRANCH  18  37
BRANCH  17  40
HETATM   40  C   UNL     1      54.125  19.534   4.905  1.00  0.00     0.016 C 
HETATM   41  C   UNL     1      53.506  18.475   3.996  1.00  0.00     0.012 C 
HETATM   42  C   UNL     1      55.210  18.917   5.786  1.00  0.00     0.012 C 
ENDBRANCH  17  40
BRANCH  15  43
HETATM   43  C   UNL     1      48.493  19.702   4.718  1.00  0.00     0.010 C 
HETATM   44  C   UNL     1      47.343  19.909   3.736  1.00  0.00     0.012 C 
HETATM   45  C   UNL     1      49.305  18.466   4.344  1.00  0.00     0.012 C 
ENDBRANCH  15  43
TORSDOF 6
ENDMDL
MODEL 3
REMARK VINA RESULT:    -5.581      2.003      7.686
REMARK INTER + INTRA:          -6.815
REMARK INTER:                  -7.783
REMARK INTRA:                   0.968
REMARK UNBOUND:                 0.724
REMARK  6 active torsions:
REMARK  status: ('A' for Active; 'I' for Inactive)
REMARK    1  A    between atoms: C_13  and  C_16 
REMARK    2  A    between atoms: C_14  and  C_17 
REMARK    3  A    between atoms: C_15  and  C_18 
REMARK    4  A    between atoms: C_19  and  C_22 
REMARK    5  A    between atoms: C_20  and  C_23 
REMARK    6  A    between atoms: C_21  and  C_24 
ROOT
HETATM    1  O   UNL     1      53.470  25.947   5.247  1.00  0.00    -0.304 OA
HETATM    2  O   UNL     1      52.162  23.992   9.857  1.00  0.00    -0.304 OA
HETATM    3  O   UNL     1      49.577  22.582   6.157  1.00  0.00    -0.304 OA
HETATM    4  O   UNL     1      53.712  23.740   6.585  1.00  0.00    -0.270 OA
HETATM    5  O   UNL     1      52.117  22.917   4.251  1.00  0.00    -0.270 OA
HETATM    6  O   UNL     1      49.871  21.719  10.156  1.00  0.00    -0.270 OA
HETATM    7  O   UNL     1      51.403  26.465   6.130  1.00  0.00    -0.263 OA
HETATM    8  O   UNL     1      52.831  21.830  10.281  1.00  0.00    -0.263 OA
HETATM    9  O   UNL     1      47.490  21.643   5.967  1.00  0.00    -0.263 OA
HETATM   10  N   UNL     1      54.367  24.677   8.596  1.00  0.00    -0.340 N 
HETATM   11  N   UNL     1      50.540  24.616   4.151  1.00  0.00    -0.340 N 
HETATM   12  N   UNL     1      49.226  23.404   8.687  1.00  0.00    -0.340 N 
HETATM   13  C   UNL     1      54.389  23.343   9.232  1.00  0.00     0.190 C 
HETATM   14  C   UNL     1      51.591  25.612   3.859  1.00  0.00     0.190 C 
HETATM   15  C   UNL     1      48.149  22.586   8.093  1.00  0.00     0.190 C 
HETATM   16  C   UNL     1      54.109  26.099   6.532  1.00  0.00     0.227 C 
HETATM   17  C   UNL     1      50.886  23.867  10.506  1.00  0.00     0.227 C 
HETATM   18  C   UNL     1      49.873  22.280   4.781  1.00  0.00     0.227 C 
HETATM   19  C   UNL     1      54.040  24.740   7.234  1.00  0.00     0.250 C 
HETATM   20  C   UNL     1      50.944  23.287   4.370  1.00  0.00     0.250 C 
HETATM   21  C   UNL     1      49.959  22.889   9.770  1.00  0.00     0.250 C 
HETATM   22  C   UNL     1      52.110  26.075   5.210  1.00  0.00     0.283 C 
HETATM   23  C   UNL     1      53.041  22.953   9.835  1.00  0.00     0.283 C 
HETATM   24  C   UNL     1      48.348  22.226   6.623  1.00  0.00     0.283 C 
HETATM   25  C   UNL     1      54.651  25.842   9.438  1.00  0.00     0.153 C 
HETATM   26  C   UNL     1      49.153  25.088   4.230  1.00  0.00     0.153 C 
HETATM   27  C   UNL     1      49.355  24.788   8.228  1.00  0.00     0.153 C 
ENDROOT
BRANCH  16  28
HETATM   28  C   UNL     1      55.554  26.492   6.262  1.00  0.00     0.016 C 
HETATM   29  C   UNL     1      55.968  26.083   4.849  1.00  0.00     0.012 C 
HETATM   30  C   UNL     1      55.753  27.993   6.464  1.00  0.00     0.012 C 
ENDBRANCH  16  28
BRANCH  14  31
HETATM   31  C   UNL     1      51.162  26.810   3.021  1.00  0.00     0.010 C 
HETATM   32  C   UNL     1      52.127  27.977   3.219  1.00  0.00     0.012 C 
HETATM   33  C   UNL     1      51.077  26.430   1.544  1.00  0.00     0.012 C 
ENDBRANCH  14  31
BRANCH  13  34
HETATM   34  C   UNL     1      55.489  23.178  10.281  1.00  0.00     0.010 C 
HETATM   35  C   UNL     1      56.397  22.000   9.929  1.00  0.00     0.012 C 
HETATM   36  C   UNL     1      54.887  22.992  11.672  1.00  0.00     0.012 C 
ENDBRANCH  13  34
BRANCH  18  37
HETATM   37  C   UNL     1      50.386  20.845   4.695  1.00  0.00     0.016 C 
HETATM   38  C   UNL     1      50.684  20.295   6.090  1.00  0.00     0.012 C 
HETATM   39  C   UNL     1      49.379  19.953   3.972  1.00  0.00     0.012 C 
ENDBRANCH  18  37
BRANCH  17  40
HETATM   40  C   UNL     1      51.034  23.536  11.991  1.00  0.00     0.016 C 
HETATM   41  C   UNL     1      49.693  23.674  12.709  1.00  0.00     0.012 C 
HETATM   42  C   UNL     1      52.085  24.434  12.640  1.00  0.00     0.012 C 
ENDBRANCH  17  40
BRANCH  15  43
HETATM   43  C   UNL     1      46.779  23.232   8.305  1.00  0.00     0.010 C 
HETATM   44  C   UNL     1      46.547  23.518   9.786  1.00  0.00     0.012 C 
HETATM   45  C   UNL     1      46.660  24.512   7.483  1.00  0.00     0.012 C 
ENDBRANCH  15  43
TORSDOF 6
ENDMDL
MODEL 4
REMARK VINA RESULT:    -5.363      1.832      6.582
REMARK INTER + INTRA:          -6.520
REMARK INTER:                  -7.636
REMARK INTRA:                   1.116
REMARK UNBOUND:                 0.724
REMARK  6 active torsions:
REMARK  status: ('A' for Active; 'I' for Inactive)
REMARK    1  A    between atoms: C_13  and  C_16 
REMARK    2  A    between atoms: C_14  and  C_17 
REMARK    3  A    between atoms: C_15  and  C_18 
REMARK    4  A    between atoms: C_19  and  C_22 
REMARK    5  A    between atoms: C_20  and  C_23 
REMARK    6  A    between atoms: C_21  and  C_24 
ROOT
HETATM    1  O   UNL     1      50.363  23.612  10.831  1.00  0.00    -0.304 OA
HETATM    2  O   UNL     1      52.056  22.317   6.115  1.00  0.00    -0.304 OA
HETATM    3  O   UNL     1      47.552  23.722   6.428  1.00  0.00    -0.304 OA
HETATM    4  O   UNL     1      51.116  24.757   8.631  1.00  0.00    -0.270 OA
HETATM    5  O   UNL     1      48.310  25.613   8.887  1.00  0.00    -0.270 OA
HETATM    6  O   UNL     1      50.212  22.703   3.477  1.00  0.00    -0.270 OA
HETATM    7  O   UNL     1      49.423  21.791   9.772  1.00  0.00    -0.263 OA
HETATM    8  O   UNL     1      52.555  24.055   4.691  1.00  0.00    -0.263 OA
HETATM    9  O   UNL     1      45.725  23.449   5.065  1.00  0.00    -0.263 OA
HETATM   10  N   UNL     1      53.015  23.490   8.265  1.00  0.00    -0.340 N 
HETATM   11  N   UNL     1      47.267  23.611   9.427  1.00  0.00    -0.340 N 
HETATM   12  N   UNL     1      49.004  21.799   5.247  1.00  0.00    -0.340 N 
HETATM   13  C   UNL     1      53.265  24.197   6.991  1.00  0.00     0.190 C 
HETATM   14  C   UNL     1      48.008  23.539  10.703  1.00  0.00     0.190 C 
HETATM   15  C   UNL     1      47.701  22.128   4.632  1.00  0.00     0.190 C 
HETATM   16  C   UNL     1      51.688  23.242  10.392  1.00  0.00     0.227 C 
HETATM   17  C   UNL     1      51.484  21.473   5.101  1.00  0.00     0.227 C 
HETATM   18  C   UNL     1      46.860  24.715   7.209  1.00  0.00     0.227 C 
HETATM   19  C   UNL     1      51.907  23.893   9.023  1.00  0.00     0.250 C 
HETATM   20  C   UNL     1      47.542  24.696   8.575  1.00  0.00     0.250 C 
HETATM   21  C   UNL     1      50.185  22.060   4.531  1.00  0.00     0.250 C 
HETATM   22  C   UNL     1      49.323  22.849  10.379  1.00  0.00     0.283 C 
HETATM   23  C   UNL     1      52.575  23.534   5.801  1.00  0.00     0.283 C 
HETATM   24  C   UNL     1      46.869  23.156   5.395  1.00  0.00     0.283 C 
HETATM   25  C   UNL     1      53.919  22.394   8.628  1.00  0.00     0.153 C 
HETATM   26  C   UNL     1      46.325  22.531   9.120  1.00  0.00     0.153 C 
HETATM   27  C   UNL     1      48.988  21.051   6.506  1.00  0.00     0.153 C 
ENDROOT
BRANCH  16  28
HETATM   28  C   UNL     1      52.664  23.802  11.416  1.00  0.00     0.016 C 
HETATM   29  C   UNL     1      51.916  24.353  12.629  1.00  0.00     0.012 C 
HETATM   30  C   UNL     1      53.667  22.733  11.848  1.00  0.00     0.012 C 
ENDBRANCH  16  28
BRANCH  14  31
HETATM   31  C   UNL     1      47.303  22.818  11.845  1.00  0.00     0.010 C 
HETATM   32  C   UNL     1      48.270  22.565  12.999  1.00  0.00     0.012 C 
HETATM   33  C   UNL     1      46.096  23.620  12.323  1.00  0.00     0.012 C 
ENDBRANCH  14  31
BRANCH  13  34
HETATM   34  C   UNL     1      54.748  24.400   6.679  1.00  0.00     0.010 C 
HETATM   35  C   UNL     1      55.118  25.881   6.756  1.00  0.00     0.012 C 
HETATM   36  C   UNL     1      55.094  23.834   5.304  1.00  0.00     0.012 C 
ENDBRANCH  13  34
BRANCH  18  37
HETATM   37  C   UNL     1      47.010  26.069   6.522  1.00  0.00     0.016 C 
HETATM   38  C   UNL     1      48.043  25.992   5.398  1.00  0.00     0.012 C 
HETATM   39  C   UNL     1      45.666  26.553   5.982  1.00  0.00     0.012 C 
ENDBRANCH  18  37
BRANCH  17  40
HETATM   40  C   UNL     1      52.500  21.123   4.014  1.00  0.00     0.016 C 
HETATM   41  C   UNL     1      51.917  20.098   3.043  1.00  0.00     0.012 C 
HETATM   42  C   UNL     1      53.793  20.598   4.636  1.00  0.00     0.012 C 
ENDBRANCH  17  40
BRANCH  15  43
HETATM   43  C   UNL     1      46.879  20.866   4.364  1.00  0.00     0.010 C 
HETATM   44  C   UNL     1      45.846  20.658   5.469  1.00  0.00     0.012 C 
HETATM   45  C   UNL     1      46.199  20.951   3.001  1.00  0.00     0.012 C 
ENDBRANCH  15  43
TORSDOF 6
ENDMDL
MODEL 5
REMARK VINA RESULT:    -5.297      1.882      2.332
REMARK INTER + INTRA:          -6.430
REMARK INTER:                  -7.663
REMARK INTRA:                   1.233
REMARK UNBOUND:                 0.724
REMARK  6 active torsions:
REMARK  status: ('A' for Active; 'I' for Inactive)
REMARK    1  A    between atoms: C_13  and  C_16 
REMARK    2  A    between atoms: C_14  and  C_17 
REMARK    3  A    between atoms: C_15  and  C_18 
REMARK    4  A    between atoms: C_19  and  C_22 
REMARK    5  A    between atoms: C_20  and  C_23 
REMARK    6  A    between atoms: C_21  and  C_24 
ROOT
HETATM    1  O   UNL     1      51.768  22.285  10.049  1.00  0.00    -0.304 OA
HETATM    2  O   UNL     1      50.698  23.389   5.107  1.00  0.00    -0.304 OA
HETATM    3  O   UNL     1      55.253  23.542   6.364  1.00  0.00    -0.304 OA
HETATM    4  O   UNL     1      51.909  21.171   7.712  1.00  0.00    -0.270 OA
HETATM    5  O   UNL     1      54.728  21.280   8.555  1.00  0.00    -0.270 OA
HETATM    6  O   UNL     1      53.043  23.895   2.928  1.00  0.00    -0.270 OA
HETATM    7  O   UNL     1      52.209  24.407   9.262  1.00  0.00    -0.263 OA
HETATM    8  O   UNL     1      51.123  21.729   3.569  1.00  0.00    -0.263 OA
HETATM    9  O   UNL     1      57.104  24.539   5.440  1.00  0.00    -0.263 OA
HETATM   10  N   UNL     1      49.800  21.762   6.968  1.00  0.00    -0.340 N 
HETATM   11  N   UNL     1      54.884  23.452   9.355  1.00  0.00    -0.340 N 
HETATM   12  N   UNL     1      53.489  24.975   4.939  1.00  0.00    -0.340 N 
HETATM   13  C   UNL     1      50.067  21.138   5.655  1.00  0.00     0.190 C 
HETATM   14  C   UNL     1      53.928  23.150  10.440  1.00  0.00     0.190 C 
HETATM   15  C   UNL     1      54.919  25.161   4.616  1.00  0.00     0.190 C 
HETATM   16  C   UNL     1      50.511  22.232   9.339  1.00  0.00     0.227 C 
HETATM   17  C   UNL     1      51.130  24.468   4.262  1.00  0.00     0.227 C 
HETATM   18  C   UNL     1      56.077  22.767   7.256  1.00  0.00     0.227 C 
HETATM   19  C   UNL     1      50.806  21.681   7.941  1.00  0.00     0.250 C 
HETATM   20  C   UNL     1      55.176  22.425   8.440  1.00  0.00     0.250 C 
HETATM   21  C   UNL     1      52.638  24.406   3.976  1.00  0.00     0.250 C 
HETATM   22  C   UNL     1      52.547  23.390   9.852  1.00  0.00     0.283 C 
HETATM   23  C   UNL     1      50.705  22.104   4.660  1.00  0.00     0.283 C 
HETATM   24  C   UNL     1      55.888  24.400   5.518  1.00  0.00     0.283 C 
HETATM   25  C   UNL     1      48.520  22.453   7.150  1.00  0.00     0.153 C 
HETATM   26  C   UNL     1      55.435  24.809   9.286  1.00  0.00     0.153 C 
HETATM   27  C   UNL     1      52.996  25.561   6.187  1.00  0.00     0.153 C 
ENDROOT
BRANCH  16  28
HETATM   28  C   UNL     1      49.608  21.283  10.113  1.00  0.00     0.016 C 
HETATM   29  C   UNL     1      50.404  20.089  10.638  1.00  0.00     0.012 C 
HETATM   30  C   UNL     1      48.917  22.012  11.264  1.00  0.00     0.012 C 
ENDBRANCH  16  28
BRANCH  14  31
HETATM   31  C   UNL     1      54.099  23.952  11.724  1.00  0.00     0.010 C 
HETATM   32  C   UNL     1      52.747  24.195  12.390  1.00  0.00     0.012 C 
HETATM   33  C   UNL     1      55.047  23.235  12.682  1.00  0.00     0.012 C 
ENDBRANCH  14  31
BRANCH  13  34
HETATM   34  C   UNL     1      48.839  20.483   5.023  1.00  0.00     0.010 C 
HETATM   35  C   UNL     1      49.159  19.059   4.571  1.00  0.00     0.012 C 
HETATM   36  C   UNL     1      48.327  21.314   3.848  1.00  0.00     0.012 C 
ENDBRANCH  13  34
BRANCH  18  37
HETATM   37  C   UNL     1      56.544  21.512   6.522  1.00  0.00     0.016 C 
HETATM   38  C   UNL     1      57.322  20.595   7.465  1.00  0.00     0.012 C 
HETATM   39  C   UNL     1      55.357  20.770   5.911  1.00  0.00     0.012 C 
ENDBRANCH  18  37
BRANCH  17  40
HETATM   40  C   UNL     1      50.291  24.563   2.987  1.00  0.00     0.016 C 
HETATM   41  C   UNL     1      50.803  25.687   2.089  1.00  0.00     0.012 C 
HETATM   42  C   UNL     1      48.818  24.777   3.329  1.00  0.00     0.012 C 
ENDBRANCH  17  40
BRANCH  15  43
HETATM   43  C   UNL     1      55.289  26.644   4.563  1.00  0.00     0.010 C 
HETATM   44  C   UNL     1      56.046  27.050   5.824  1.00  0.00     0.012 C 
HETATM   45  C   UNL     1      56.118  26.943   3.317  1.00  0.00     0.012 C 
ENDBRANCH  15  43
TORSDOF 6
ENDMDL
MODEL 6
REMARK VINA RESULT:    -5.216      2.328      7.287
REMARK INTER + INTRA:          -6.321
REMARK INTER:                  -7.197
REMARK INTRA:                   0.875
REMARK UNBOUND:                 0.724
REMARK  6 active torsions:
REMARK  status: ('A' for Active; 'I' for Inactive)
REMARK    1  A    between atoms: C_13  and  C_16 
REMARK    2  A    between atoms: C_14  and  C_17 
REMARK    3  A    between atoms: C_15  and  C_18 
REMARK    4  A    between atoms: C_19  and  C_22 
REMARK    5  A    between atoms: C_20  and  C_23 
REMARK    6  A    between atoms: C_21  and  C_24 
ROOT
HETATM    1  O   UNL     1      52.960  24.369   5.674  1.00  0.00    -0.304 OA
HETATM    2  O   UNL     1      49.283  23.814   9.274  1.00  0.00    -0.304 OA
HETATM    3  O   UNL     1      47.821  24.943   4.922  1.00  0.00    -0.304 OA
HETATM    4  O   UNL     1      51.163  22.647   6.398  1.00  0.00    -0.270 OA
HETATM    5  O   UNL     1      50.309  23.377   3.676  1.00  0.00    -0.270 OA
HETATM    6  O   UNL     1      46.132  23.968   8.530  1.00  0.00    -0.270 OA
HETATM    7  O   UNL     1      51.696  26.205   6.266  1.00  0.00    -0.263 OA
HETATM    8  O   UNL     1      48.086  21.848   9.224  1.00  0.00    -0.263 OA
HETATM    9  O   UNL     1      45.881  25.864   4.107  1.00  0.00    -0.263 OA
HETATM   10  N   UNL     1      51.589  22.702   8.671  1.00  0.00    -0.340 N 
HETATM   11  N   UNL     1      50.494  25.689   3.743  1.00  0.00    -0.340 N 
HETATM   12  N   UNL     1      47.350  25.642   7.469  1.00  0.00    -0.340 N 
HETATM   13  C   UNL     1      50.477  21.761   8.922  1.00  0.00     0.190 C 
HETATM   14  C   UNL     1      51.957  25.594   3.925  1.00  0.00     0.190 C 
HETATM   15  C   UNL     1      46.277  25.915   6.490  1.00  0.00     0.190 C 
HETATM   16  C   UNL     1      53.067  23.941   7.050  1.00  0.00     0.227 C 
HETATM   17  C   UNL     1      48.162  24.645   9.620  1.00  0.00     0.227 C 
HETATM   18  C   UNL     1      48.245  24.583   3.593  1.00  0.00     0.227 C 
HETATM   19  C   UNL     1      51.858  23.047   7.339  1.00  0.00     0.250 C 
HETATM   20  C   UNL     1      49.767  24.487   3.670  1.00  0.00     0.250 C 
HETATM   21  C   UNL     1      47.121  24.705   8.492  1.00  0.00     0.250 C 
HETATM   22  C   UNL     1      52.179  25.462   5.422  1.00  0.00     0.283 C 
HETATM   23  C   UNL     1      49.141  22.468   9.140  1.00  0.00     0.283 C 
HETATM   24  C   UNL     1      46.629  25.591   5.040  1.00  0.00     0.283 C 
HETATM   25  C   UNL     1      52.308  23.237   9.830  1.00  0.00     0.153 C 
HETATM   26  C   UNL     1      49.896  27.027   3.687  1.00  0.00     0.153 C 
HETATM   27  C   UNL     1      48.538  26.497   7.427  1.00  0.00     0.153 C 
ENDROOT
BRANCH  16  28
HETATM   28  C   UNL     1      54.361  23.149   7.165  1.00  0.00     0.016 C 
HETATM   29  C   UNL     1      54.775  22.592   5.803  1.00  0.00     0.012 C 
HETATM   30  C   UNL     1      55.475  24.016   7.749  1.00  0.00     0.012 C 
ENDBRANCH  16  28
BRANCH  14  31
HETATM   31  C   UNL     1      52.775  26.754   3.372  1.00  0.00     0.010 C 
HETATM   32  C   UNL     1      54.147  26.810   4.041  1.00  0.00     0.012 C 
HETATM   33  C   UNL     1      52.923  26.633   1.857  1.00  0.00     0.012 C 
ENDBRANCH  14  31
BRANCH  13  34
HETATM   34  C   UNL     1      50.739  20.790  10.073  1.00  0.00     0.010 C 
HETATM   35  C   UNL     1      51.070  19.397   9.538  1.00  0.00     0.012 C 
HETATM   36  C   UNL     1      49.538  20.730  11.014  1.00  0.00     0.012 C 
ENDBRANCH  13  34
BRANCH  18  37
HETATM   37  C   UNL     1      47.614  23.243   3.225  1.00  0.00     0.016 C 
HETATM   38  C   UNL     1      46.976  22.593   4.453  1.00  0.00     0.012 C 
HETATM   39  C   UNL     1      46.579  23.420   2.115  1.00  0.00     0.012 C 
ENDBRANCH  18  37
BRANCH  17  40
HETATM   40  C   UNL     1      47.552  24.246  10.964  1.00  0.00     0.016 C 
HETATM   41  C   UNL     1      46.529  25.284  11.419  1.00  0.00     0.012 C 
HETATM   42  C   UNL     1      48.644  24.070  12.018  1.00  0.00     0.012 C 
ENDBRANCH  17  40
BRANCH  15  43
HETATM   43  C   UNL     1      45.768  27.352   6.610  1.00  0.00     0.010 C 
HETATM   44  C   UNL     1      46.476  28.254   5.602  1.00  0.00     0.012 C 
HETATM   45  C   UNL     1      44.257  27.402   6.408  1.00  0.00     0.012 C 
ENDBRANCH  15  43
TORSDOF 6
ENDMDL
MODEL 7
REMARK VINA RESULT:    -5.156      2.965      6.724
REMARK INTER + INTRA:          -6.241
REMARK INTER:                  -7.643
REMARK INTRA:                   1.402
REMARK UNBOUND:                 0.724
REMARK  6 active torsions:
REMARK  status: ('A' for Active; 'I' for Inactive)
REMARK    1  A    between atoms: C_13  and  C_16 
REMARK    2  A    between atoms: C_14  and  C_17 
REMARK    3  A    between atoms: C_15  and  C_18 
REMARK    4  A    between atoms: C_19  and  C_22 
REMARK    5  A    between atoms: C_20  and  C_23 
REMARK    6  A    between atoms: C_21  and  C_24 
ROOT
HETATM    1  O   UNL     1      49.981  22.109   8.651  1.00  0.00    -0.304 OA
HETATM    2  O   UNL     1      47.603  21.847   4.062  1.00  0.00    -0.304 OA
HETATM    3  O   UNL     1      47.124  25.894   6.458  1.00  0.00    -0.304 OA
HETATM    4  O   UNL     1      50.290  22.971   6.226  1.00  0.00    -0.270 OA
HETATM    5  O   UNL     1      50.000  25.460   7.773  1.00  0.00    -0.270 OA
HETATM    6  O   UNL     1      46.091  24.410   2.777  1.00  0.00    -0.270 OA
HETATM    7  O   UNL     1      47.678  22.208   8.584  1.00  0.00    -0.263 OA
HETATM    8  O   UNL     1      48.624  22.941   2.313  1.00  0.00    -0.263 OA
HETATM    9  O   UNL     1      45.613  27.620   6.339  1.00  0.00    -0.263 OA
HETATM   10  N   UNL     1      49.841  20.981   5.138  1.00  0.00    -0.340 N 
HETATM   11  N   UNL     1      48.180  24.954   9.120  1.00  0.00    -0.340 N 
HETATM   12  N   UNL     1      45.621  24.180   5.044  1.00  0.00    -0.340 N 
HETATM   13  C   UNL     1      49.984  21.644   3.824  1.00  0.00     0.190 C 
HETATM   14  C   UNL     1      48.946  23.890   9.802  1.00  0.00     0.190 C 
HETATM   15  C   UNL     1      45.122  25.566   5.164  1.00  0.00     0.190 C 
HETATM   16  C   UNL     1      50.012  21.069   7.650  1.00  0.00     0.227 C 
HETATM   17  C   UNL     1      46.262  22.186   3.668  1.00  0.00     0.227 C 
HETATM   18  C   UNL     1      47.994  26.673   7.301  1.00  0.00     0.227 C 
HETATM   19  C   UNL     1      50.056  21.759   6.284  1.00  0.00     0.250 C 
HETATM   20  C   UNL     1      48.819  25.651   8.079  1.00  0.00     0.250 C 
HETATM   21  C   UNL     1      45.995  23.694   3.779  1.00  0.00     0.250 C 
HETATM   22  C   UNL     1      48.760  22.641   8.958  1.00  0.00     0.283 C 
HETATM   23  C   UNL     1      48.671  22.236   3.315  1.00  0.00     0.283 C 
HETATM   24  C   UNL     1      45.959  26.477   6.059  1.00  0.00     0.283 C 
HETATM   25  C   UNL     1      49.450  19.568   5.152  1.00  0.00     0.153 C 
HETATM   26  C   UNL     1      46.798  25.185   9.551  1.00  0.00     0.153 C 
HETATM   27  C   UNL     1      45.530  23.323   6.228  1.00  0.00     0.153 C 
ENDROOT
BRANCH  16  28
HETATM   28  C   UNL     1      51.282  20.266   7.888  1.00  0.00     0.016 C 
HETATM   29  C   UNL     1      52.511  21.173   7.837  1.00  0.00     0.012 C 
HETATM   30  C   UNL     1      51.215  19.533   9.227  1.00  0.00     0.012 C 
ENDBRANCH  16  28
BRANCH  14  31
HETATM   31  C   UNL     1      48.559  23.610  11.249  1.00  0.00     0.010 C 
HETATM   32  C   UNL     1      47.966  22.210  11.384  1.00  0.00     0.012 C 
HETATM   33  C   UNL     1      49.766  23.772  12.169  1.00  0.00     0.012 C 
ENDBRANCH  14  31
BRANCH  13  34
HETATM   34  C   UNL     1      50.599  20.752   2.747  1.00  0.00     0.010 C 
HETATM   35  C   UNL     1      51.800  21.439   2.098  1.00  0.00     0.012 C 
HETATM   36  C   UNL     1      49.559  20.384   1.691  1.00  0.00     0.012 C 
ENDBRANCH  13  34
BRANCH  18  37
HETATM   37  C   UNL     1      48.874  27.552   6.416  1.00  0.00     0.016 C 
HETATM   38  C   UNL     1      48.728  27.153   4.947  1.00  0.00     0.012 C 
HETATM   39  C   UNL     1      48.530  29.027   6.606  1.00  0.00     0.012 C 
ENDBRANCH  18  37
BRANCH  17  40
HETATM   40  C   UNL     1      45.917  21.626   2.288  1.00  0.00     0.016 C 
HETATM   41  C   UNL     1      44.498  22.024   1.886  1.00  0.00     0.012 C 
HETATM   42  C   UNL     1      46.073  20.106   2.271  1.00  0.00     0.012 C 
ENDBRANCH  17  40
BRANCH  15  43
HETATM   43  C   UNL     1      43.655  25.593   5.595  1.00  0.00     0.010 C 
HETATM   44  C   UNL     1      43.226  27.017   5.937  1.00  0.00     0.012 C 
HETATM   45  C   UNL     1      42.766  25.011   4.500  1.00  0.00     0.012 C 
ENDBRANCH  15  43
TORSDOF 6
ENDMDL
MODEL 8
REMARK VINA RESULT:    -4.874      2.278      4.982
REMARK INTER + INTRA:          -5.860
REMARK INTER:                  -6.541
REMARK INTRA:                   0.681
REMARK UNBOUND:                 0.724
REMARK  6 active torsions:
REMARK  status: ('A' for Active; 'I' for Inactive)
REMARK    1  A    between atoms: C_13  and  C_16 
REMARK    2  A    between atoms: C_14  and  C_17 
REMARK    3  A    between atoms: C_15  and  C_18 
REMARK    4  A    between atoms: C_19  and  C_22 
REMARK    5  A    between atoms: C_20  and  C_23 
REMARK    6  A    between atoms: C_21  and  C_24 
ROOT
HETATM    1  O   UNL     1      48.913  23.975   8.024  1.00  0.00    -0.304 OA
HETATM    2  O   UNL     1      53.105  26.269   6.036  1.00  0.00    -0.304 OA
HETATM    3  O   UNL     1      53.812  22.178   8.300  1.00  0.00    -0.304 OA
HETATM    4  O   UNL     1      50.510  23.732   5.997  1.00  0.00    -0.270 OA
HETATM    5  O   UNL     1      50.898  21.196   7.442  1.00  0.00    -0.270 OA
HETATM    6  O   UNL     1      56.018  24.849   6.104  1.00  0.00    -0.270 OA
HETATM    7  O   UNL     1      50.557  24.724   9.457  1.00  0.00    -0.263 OA
HETATM    8  O   UNL     1      53.925  25.385   4.074  1.00  0.00    -0.263 OA
HETATM    9  O   UNL     1      55.669  21.201   9.233  1.00  0.00    -0.263 OA
HETATM   10  N   UNL     1      50.573  25.964   5.392  1.00  0.00    -0.340 N 
HETATM   11  N   UNL     1      51.115  21.942   9.628  1.00  0.00    -0.340 N 
HETATM   12  N   UNL     1      54.903  24.624   8.133  1.00  0.00    -0.340 N 
HETATM   13  C   UNL     1      51.542  25.665   4.316  1.00  0.00     0.190 C 
HETATM   14  C   UNL     1      49.726  22.443   9.624  1.00  0.00     0.190 C 
HETATM   15  C   UNL     1      55.783  23.527   8.588  1.00  0.00     0.190 C 
HETATM   16  C   UNL     1      49.021  25.161   7.207  1.00  0.00     0.227 C 
HETATM   17  C   UNL     1      54.395  26.545   6.608  1.00  0.00     0.227 C 
HETATM   18  C   UNL     1      53.071  20.948   8.409  1.00  0.00     0.227 C 
HETATM   19  C   UNL     1      50.099  24.887   6.154  1.00  0.00     0.250 C 
HETATM   20  C   UNL     1      51.603  21.365   8.442  1.00  0.00     0.250 C 
HETATM   21  C   UNL     1      55.178  25.259   6.910  1.00  0.00     0.250 C 
HETATM   22  C   UNL     1      49.795  23.853   9.060  1.00  0.00     0.283 C 
HETATM   23  C   UNL     1      52.992  25.736   4.789  1.00  0.00     0.283 C 
HETATM   24  C   UNL     1      55.093  22.176   8.762  1.00  0.00     0.283 C 
HETATM   25  C   UNL     1      50.206  27.365   5.613  1.00  0.00     0.153 C 
HETATM   26  C   UNL     1      51.902  22.114  10.854  1.00  0.00     0.153 C 
HETATM   27  C   UNL     1      53.890  25.111   9.071  1.00  0.00     0.153 C 
ENDROOT
BRANCH  16  28
HETATM   28  C   UNL     1      47.665  25.366   6.547  1.00  0.00     0.016 C 
HETATM   29  C   UNL     1      46.845  24.076   6.588  1.00  0.00     0.012 C 
HETATM   30  C   UNL     1      46.902  26.505   7.221  1.00  0.00     0.012 C 
ENDBRANCH  16  28
BRANCH  14  31
HETATM   31  C   UNL     1      49.014  22.450  10.971  1.00  0.00     0.010 C 
HETATM   32  C   UNL     1      47.804  23.381  10.935  1.00  0.00     0.012 C 
HETATM   33  C   UNL     1      48.592  21.036  11.363  1.00  0.00     0.012 C 
ENDBRANCH  14  31
BRANCH  13  34
HETATM   34  C   UNL     1      51.364  26.530   3.069  1.00  0.00     0.010 C 
HETATM   35  C   UNL     1      51.248  25.658   1.820  1.00  0.00     0.012 C 
HETATM   36  C   UNL     1      52.520  27.518   2.926  1.00  0.00     0.012 C 
ENDBRANCH  13  34
BRANCH  18  37
HETATM   37  C   UNL     1      53.384  20.081   7.192  1.00  0.00     0.016 C 
HETATM   38  C   UNL     1      54.156  20.882   6.144  1.00  0.00     0.012 C 
HETATM   39  C   UNL     1      54.170  18.838   7.602  1.00  0.00     0.012 C 
ENDBRANCH  18  37
BRANCH  17  40
HETATM   40  C   UNL     1      55.192  27.535   5.758  1.00  0.00     0.016 C 
HETATM   41  C   UNL     1      56.560  27.800   6.383  1.00  0.00     0.012 C 
HETATM   42  C   UNL     1      54.418  28.841   5.586  1.00  0.00     0.012 C 
ENDBRANCH  17  40
BRANCH  15  43
HETATM   43  C   UNL     1      56.536  23.911   9.863  1.00  0.00     0.010 C 
HETATM   44  C   UNL     1      55.909  23.233  11.078  1.00  0.00     0.012 C 
HETATM   45  C   UNL     1      58.012  23.543   9.742  1.00  0.00     0.012 C 
ENDBRANCH  15  43
TORSDOF 6
ENDMDL
MODEL 9
REMARK VINA RESULT:    -4.731      1.934      6.421
REMARK INTER + INTRA:          -5.666
REMARK INTER:                  -6.776
REMARK INTRA:                   1.110
REMARK UNBOUND:                 0.724
REMARK  6 active torsions:
REMARK  status: ('A' for Active; 'I' for Inactive)
REMARK    1  A    between atoms: C_13  and  C_16 
REMARK    2  A    between atoms: C_14  and  C_17 
REMARK    3  A    between atoms: C_15  and  C_18 
REMARK    4  A    between atoms: C_19  and  C_22 
REMARK    5  A    between atoms: C_20  and  C_23 
REMARK    6  A    between atoms: C_21  and  C_24 
ROOT
HETATM    1  O   UNL     1      48.258  23.932   8.315  1.00  0.00    -0.304 OA
HETATM    2  O   UNL     1      53.099  22.173   7.811  1.00  0.00    -0.304 OA
HETATM    3  O   UNL     1      51.573  25.141   4.462  1.00  0.00    -0.304 OA
HETATM    4  O   UNL     1      50.692  24.750   8.668  1.00  0.00    -0.270 OA
HETATM    5  O   UNL     1      49.681  26.580   6.594  1.00  0.00    -0.270 OA
HETATM    6  O   UNL     1      55.071  23.254   5.476  1.00  0.00    -0.270 OA
HETATM    7  O   UNL     1      48.777  22.605   6.502  1.00  0.00    -0.263 OA
HETATM    8  O   UNL     1      54.785  23.625   8.404  1.00  0.00    -0.263 OA
HETATM    9  O   UNL     1      52.273  25.584   2.320  1.00  0.00    -0.263 OA
HETATM   10  N   UNL     1      51.486  22.876   9.766  1.00  0.00    -0.340 N 
HETATM   11  N   UNL     1      48.637  25.098   5.145  1.00  0.00    -0.340 N 
HETATM   12  N   UNL     1      52.929  22.835   4.670  1.00  0.00    -0.340 N 
HETATM   13  C   UNL     1      52.843  23.459   9.823  1.00  0.00     0.190 C 
HETATM   14  C   UNL     1      47.650  24.737   6.183  1.00  0.00     0.190 C 
HETATM   15  C   UNL     1      53.147  23.632   3.444  1.00  0.00     0.190 C 
HETATM   16  C   UNL     1      49.040  23.104   9.204  1.00  0.00     0.227 C 
HETATM   17  C   UNL     1      53.793  21.617   6.682  1.00  0.00     0.227 C 
HETATM   18  C   UNL     1      50.728  26.307   4.460  1.00  0.00     0.227 C 
HETATM   19  C   UNL     1      50.472  23.648   9.183  1.00  0.00     0.250 C 
HETATM   20  C   UNL     1      49.643  26.017   5.495  1.00  0.00     0.250 C 
HETATM   21  C   UNL     1      53.997  22.651   5.565  1.00  0.00     0.250 C 
HETATM   22  C   UNL     1      48.285  23.615   6.986  1.00  0.00     0.283 C 
HETATM   23  C   UNL     1      53.686  23.117   8.597  1.00  0.00     0.283 C 
HETATM   24  C   UNL     1      52.280  24.884   3.327  1.00  0.00     0.283 C 
HETATM   25  C   UNL     1      51.302  21.518  10.287  1.00  0.00     0.153 C 
HETATM   26  C   UNL     1      48.523  24.448   3.836  1.00  0.00     0.153 C 
HETATM   27  C   UNL     1      51.654  22.127   4.799  1.00  0.00     0.153 C 
ENDROOT
BRANCH  16  28
HETATM   28  C   UNL     1      48.431  23.248  10.590  1.00  0.00     0.016 C 
HETATM   29  C   UNL     1      47.816  24.636  10.768  1.00  0.00     0.012 C 
HETATM   30  C   UNL     1      47.382  22.164  10.835  1.00  0.00     0.012 C 
ENDBRANCH  16  28
BRANCH  14  31
HETATM   31  C   UNL     1      46.276  24.311   5.679  1.00  0.00     0.010 C 
HETATM   32  C   UNL     1      45.603  23.375   6.680  1.00  0.00     0.012 C 
HETATM   33  C   UNL     1      45.399  25.532   5.413  1.00  0.00     0.012 C 
ENDBRANCH  14  31
BRANCH  13  34
HETATM   34  C   UNL     1      53.613  23.104  11.094  1.00  0.00     0.010 C 
HETATM   35  C   UNL     1      53.490  24.221  12.130  1.00  0.00     0.012 C 
HETATM   36  C   UNL     1      55.082  22.828  10.777  1.00  0.00     0.012 C 
ENDBRANCH  13  34
BRANCH  18  37
HETATM   37  C   UNL     1      51.568  27.520   4.849  1.00  0.00     0.016 C 
HETATM   38  C   UNL     1      52.943  27.083   5.356  1.00  0.00     0.012 C 
HETATM   39  C   UNL     1      51.713  28.479   3.669  1.00  0.00     0.012 C 
ENDBRANCH  18  37
BRANCH  17  40
HETATM   40  C   UNL     1      55.095  20.931   7.096  1.00  0.00     0.016 C 
HETATM   41  C   UNL     1      55.795  20.327   5.881  1.00  0.00     0.012 C 
HETATM   42  C   UNL     1      54.826  19.858   8.149  1.00  0.00     0.012 C 
ENDBRANCH  17  40
BRANCH  15  43
HETATM   43  C   UNL     1      53.013  22.768   2.189  1.00  0.00     0.010 C 
HETATM   44  C   UNL     1      53.904  21.533   2.294  1.00  0.00     0.012 C 
HETATM   45  C   UNL     1      51.558  22.367   1.970  1.00  0.00     0.012 C 
ENDBRANCH  15  43
TORSDOF 6
ENDMDL
MODEL 10
REMARK VINA RESULT:    -4.603      2.496      7.158
REMARK INTER + INTRA:          -5.493
REMARK INTER:                  -6.756
REMARK INTRA:                   1.264
REMARK UNBOUND:                 0.724
REMARK  6 active torsions:
REMARK  status: ('A' for Active; 'I' for Inactive)
REMARK    1  A    between atoms: C_13  and  C_16 
REMARK    2  A    between atoms: C_14  and  C_17 
REMARK    3  A    between atoms: C_15  and  C_18 
REMARK    4  A    between atoms: C_19  and  C_22 
REMARK    5  A    between atoms: C_20  and  C_23 
REMARK    6  A    between atoms: C_21  and  C_24 
ROOT
HETATM    1  O   UNL     1      50.135  21.815   4.594  1.00  0.00    -0.304 OA
HETATM    2  O   UNL     1      54.945  20.289   5.743  1.00  0.00    -0.304 OA
HETATM    3  O   UNL     1      52.390  22.071   9.300  1.00  0.00    -0.304 OA
HETATM    4  O   UNL     1      51.344  19.840   5.758  1.00  0.00    -0.270 OA
HETATM    5  O   UNL     1      49.719  20.984   7.931  1.00  0.00    -0.270 OA
HETATM    6  O   UNL     1      56.055  20.303   8.789  1.00  0.00    -0.270 OA
HETATM    7  O   UNL     1      51.669  23.394   5.282  1.00  0.00    -0.263 OA
HETATM    8  O   UNL     1      55.148  18.270   6.831  1.00  0.00    -0.263 OA
HETATM    9  O   UNL     1      52.948  22.954  11.345  1.00  0.00    -0.263 OA
HETATM   10  N   UNL     1      52.989  19.511   4.166  1.00  0.00    -0.340 N 
HETATM   11  N   UNL     1      50.141  23.251   7.675  1.00  0.00    -0.340 N 
HETATM   12  N   UNL     1      54.871  22.244   8.295  1.00  0.00    -0.340 N 
HETATM   13  C   UNL     1      53.601  18.447   4.990  1.00  0.00     0.190 C 
HETATM   14  C   UNL     1      49.487  23.251   6.350  1.00  0.00     0.190 C 
HETATM   15  C   UNL     1      54.700  22.599   9.719  1.00  0.00     0.190 C 
HETATM   16  C   UNL     1      51.118  21.151   3.770  1.00  0.00     0.227 C 
HETATM   17  C   UNL     1      55.997  20.941   6.474  1.00  0.00     0.227 C 
HETATM   18  C   UNL     1      51.001  22.001   9.675  1.00  0.00     0.227 C 
HETATM   19  C   UNL     1      51.823  20.118   4.653  1.00  0.00     0.250 C 
HETATM   20  C   UNL     1      50.229  22.024   8.358  1.00  0.00     0.250 C 
HETATM   21  C   UNL     1      55.643  21.118   7.958  1.00  0.00     0.250 C 
HETATM   22  C   UNL     1      50.568  22.864   5.355  1.00  0.00     0.283 C 
HETATM   23  C   UNL     1      54.639  18.984   5.973  1.00  0.00     0.283 C 
HETATM   24  C   UNL     1      53.257  22.580  10.219  1.00  0.00     0.283 C 
HETATM   25  C   UNL     1      53.662  19.884   2.918  1.00  0.00     0.153 C 
HETATM   26  C   UNL     1      50.686  24.519   8.170  1.00  0.00     0.153 C 
HETATM   27  C   UNL     1      54.373  23.192   7.296  1.00  0.00     0.153 C 
ENDROOT
BRANCH  16  28
HETATM   28  C   UNL     1      50.359  20.467   2.643  1.00  0.00     0.016 C 
HETATM   29  C   UNL     1      49.184  19.662   3.196  1.00  0.00     0.012 C 
HETATM   30  C   UNL     1      49.870  21.492   1.620  1.00  0.00     0.012 C 
ENDBRANCH  16  28
BRANCH  14  31
HETATM   31  C   UNL     1      48.829  24.559   5.930  1.00  0.00     0.010 C 
HETATM   32  C   UNL     1      48.655  24.610   4.414  1.00  0.00     0.012 C 
HETATM   33  C   UNL     1      47.483  24.732   6.630  1.00  0.00     0.012 C 
ENDBRANCH  14  31
BRANCH  13  34
HETATM   34  C   UNL     1      54.208  17.307   4.172  1.00  0.00     0.010 C 
HETATM   35  C   UNL     1      53.675  15.957   4.651  1.00  0.00     0.012 C 
HETATM   36  C   UNL     1      55.732  17.337   4.249  1.00  0.00     0.012 C 
ENDBRANCH  13  34
BRANCH  18  37
HETATM   37  C   UNL     1      50.767  20.702  10.442  1.00  0.00     0.016 C 
HETATM   38  C   UNL     1      49.321  20.617  10.930  1.00  0.00     0.012 C 
HETATM   39  C   UNL     1      51.112  19.493   9.576  1.00  0.00     0.012 C 
ENDBRANCH  18  37
BRANCH  17  40
HETATM   40  C   UNL     1      57.345  20.250   6.268  1.00  0.00     0.016 C 
HETATM   41  C   UNL     1      58.433  20.935   7.092  1.00  0.00     0.012 C 
HETATM   42  C   UNL     1      57.721  20.237   4.788  1.00  0.00     0.012 C 
ENDBRANCH  17  40
BRANCH  15  43
HETATM   43  C   UNL     1      55.361  23.940  10.041  1.00  0.00     0.010 C 
HETATM   44  C   UNL     1      54.304  25.026  10.221  1.00  0.00     0.012 C 
HETATM   45  C   UNL     1      56.229  23.820  11.290  1.00  0.00     0.012 C 
ENDBRANCH  15  43
TORSDOF 6
ENDMDL
MODEL 11
REMARK VINA RESULT:    -4.384     15.953     19.173
REMARK INTER + INTRA:          -5.197
REMARK INTER:                  -5.948
REMARK INTRA:                   0.751
REMARK UNBOUND:                 0.724
REMARK  6 active torsions:
REMARK  status: ('A' for Active; 'I' for Inactive)
REMARK    1  A    between atoms: C_13  and  C_16 
REMARK    2  A    between atoms: C_14  and  C_17 
REMARK    3  A    between atoms: C_15  and  C_18 
REMARK    4  A    between atoms: C_19  and  C_22 
REMARK    5  A    between atoms: C_20  and  C_23 
REMARK    6  A    between atoms: C_21  and  C_24 
ROOT
HETATM    1  O   UNL     1      48.077  10.748  -2.651  1.00  0.00    -0.304 OA
HETATM    2  O   UNL     1      43.683   8.014  -2.652  1.00  0.00    -0.304 OA
HETATM    3  O   UNL     1      47.675   5.591  -1.912  1.00  0.00    -0.304 OA
HETATM    4  O   UNL     1      46.464   9.623  -0.963  1.00  0.00    -0.270 OA
HETATM    5  O   UNL     1      48.982   8.159  -0.536  1.00  0.00    -0.270 OA
HETATM    6  O   UNL     1      43.640   4.857  -1.919  1.00  0.00    -0.270 OA
HETATM    7  O   UNL     1      47.754   9.161  -4.292  1.00  0.00    -0.263 OA
HETATM    8  O   UNL     1      42.861   7.392  -0.593  1.00  0.00    -0.263 OA
HETATM    9  O   UNL     1      48.219   3.368  -2.098  1.00  0.00    -0.263 OA
HETATM   10  N   UNL     1      44.484  10.397  -1.875  1.00  0.00    -0.340 N 
HETATM   11  N   UNL     1      49.640   7.731  -2.719  1.00  0.00    -0.340 N 
HETATM   12  N   UNL     1      45.409   5.389  -3.334  1.00  0.00    -0.340 N 
HETATM   13  C   UNL     1      43.704   9.634  -0.878  1.00  0.00     0.190 C 
HETATM   14  C   UNL     1      49.804   9.175  -2.981  1.00  0.00     0.190 C 
HETATM   15  C   UNL     1      46.129   4.133  -3.039  1.00  0.00     0.190 C 
HETATM   16  C   UNL     1      46.708  11.196  -2.749  1.00  0.00     0.227 C 
HETATM   17  C   UNL     1      43.330   6.788  -3.313  1.00  0.00     0.227 C 
HETATM   18  C   UNL     1      48.903   5.865  -1.210  1.00  0.00     0.227 C 
HETATM   19  C   UNL     1      45.882  10.335  -1.790  1.00  0.00     0.250 C 
HETATM   20  C   UNL     1      49.178   7.349  -1.447  1.00  0.00     0.250 C 
HETATM   21  C   UNL     1      44.134   5.594  -2.778  1.00  0.00     0.250 C 
HETATM   22  C   UNL     1      48.437   9.675  -3.416  1.00  0.00     0.283 C 
HETATM   23  C   UNL     1      43.380   8.215  -1.341  1.00  0.00     0.283 C 
HETATM   24  C   UNL     1      47.461   4.308  -2.314  1.00  0.00     0.283 C 
HETATM   25  C   UNL     1      43.745  11.133  -2.906  1.00  0.00     0.153 C 
HETATM   26  C   UNL     1      49.935   6.799  -3.812  1.00  0.00     0.153 C 
HETATM   27  C   UNL     1      45.989   6.282  -4.338  1.00  0.00     0.153 C 
ENDROOT
BRANCH  16  28
HETATM   28  C   UNL     1      46.689  12.654  -2.315  1.00  0.00     0.016 C 
HETATM   29  C   UNL     1      47.940  12.992  -1.506  1.00  0.00     0.012 C 
HETATM   30  C   UNL     1      46.570  13.578  -3.527  1.00  0.00     0.012 C 
ENDBRANCH  16  28
BRANCH  14  31
HETATM   31  C   UNL     1      50.855   9.551  -4.018  1.00  0.00     0.010 C 
HETATM   32  C   UNL     1      50.587  10.948  -4.573  1.00  0.00     0.012 C 
HETATM   33  C   UNL     1      52.256   9.472  -3.417  1.00  0.00     0.012 C 
ENDBRANCH  14  31
BRANCH  13  34
HETATM   34  C   UNL     1      42.421  10.335  -0.432  1.00  0.00     0.010 C 
HETATM   35  C   UNL     1      42.486  10.681   1.055  1.00  0.00     0.012 C 
HETATM   36  C   UNL     1      41.199   9.468  -0.726  1.00  0.00     0.012 C 
ENDBRANCH  13  34
BRANCH  18  37
HETATM   37  C   UNL     1      48.697   5.560   0.271  1.00  0.00     0.016 C 
HETATM   38  C   UNL     1      47.222   5.282   0.564  1.00  0.00     0.012 C 
HETATM   39  C   UNL     1      49.560   4.377   0.704  1.00  0.00     0.012 C 
ENDBRANCH  18  37
BRANCH  17  40
HETATM   40  C   UNL     1      41.821   6.542  -3.287  1.00  0.00     0.016 C 
HETATM   41  C   UNL     1      41.466   5.291  -4.086  1.00  0.00     0.012 C 
HETATM   42  C   UNL     1      41.070   7.757  -3.829  1.00  0.00     0.012 C 
ENDBRANCH  17  40
BRANCH  15  43
HETATM   43  C   UNL     1      46.312   3.288  -4.300  1.00  0.00     0.010 C 
HETATM   44  C   UNL     1      47.739   3.419  -4.827  1.00  0.00     0.012 C 
HETATM   45  C   UNL     1      45.974   1.827  -4.018  1.00  0.00     0.012 C 
ENDBRANCH  15  43
TORSDOF 6
ENDMDL
MODEL 12
REMARK VINA RESULT:    -4.324      8.891     14.296
REMARK INTER + INTRA:          -5.117
REMARK INTER:                  -6.274
REMARK INTRA:                   1.157
REMARK UNBOUND:                 0.724
REMARK  6 active torsions:
REMARK  status: ('A' for Active; 'I' for Inactive)
REMARK    1  A    between atoms: C_13  and  C_16 
REMARK    2  A    between atoms: C_14  and  C_17 
REMARK    3  A    between atoms: C_15  and  C_18 
REMARK    4  A    between atoms: C_19  and  C_22 
REMARK    5  A    between atoms: C_20  and  C_23 
REMARK    6  A    between atoms: C_21  and  C_24 
ROOT
HETATM    1  O   UNL     1      42.186  13.999  -1.467  1.00  0.00    -0.304 OA
HETATM    2  O   UNL     1      44.822  15.744   2.630  1.00  0.00    -0.304 OA
HETATM    3  O   UNL     1      41.413  18.562   0.959  1.00  0.00    -0.304 OA
HETATM    4  O   UNL     1      41.882  14.274   1.093  1.00  0.00    -0.270 OA
HETATM    5  O   UNL     1      39.766  16.002  -0.006  1.00  0.00    -0.270 OA
HETATM    6  O   UNL     1      44.006  18.496   4.136  1.00  0.00    -0.270 OA
HETATM    7  O   UNL     1      43.474  15.897  -1.699  1.00  0.00    -0.263 OA
HETATM    8  O   UNL     1      43.768  15.590   4.671  1.00  0.00    -0.263 OA
HETATM    9  O   UNL     1      40.984  20.807   1.179  1.00  0.00    -0.263 OA
HETATM   10  N   UNL     1      43.940  13.435   1.733  1.00  0.00    -0.340 N 
HETATM   11  N   UNL     1      40.923  17.149  -1.659  1.00  0.00    -0.340 N 
HETATM   12  N   UNL     1      43.948  18.731   1.822  1.00  0.00    -0.340 N 
HETATM   13  C   UNL     1      43.637  13.722   3.152  1.00  0.00     0.190 C 
HETATM   14  C   UNL     1      41.147  15.896  -2.409  1.00  0.00     0.190 C 
HETATM   15  C   UNL     1      43.135  19.963   1.886  1.00  0.00     0.190 C 
HETATM   16  C   UNL     1      43.203  13.349  -0.674  1.00  0.00     0.227 C 
HETATM   17  C   UNL     1      45.433  17.019   2.891  1.00  0.00     0.227 C 
HETATM   18  C   UNL     1      40.106  18.335   0.397  1.00  0.00     0.227 C 
HETATM   19  C   UNL     1      42.949  13.731   0.786  1.00  0.00     0.250 C 
HETATM   20  C   UNL     1      40.241  17.060  -0.432  1.00  0.00     0.250 C 
HETATM   21  C   UNL     1      44.392  18.141   3.018  1.00  0.00     0.250 C 
HETATM   22  C   UNL     1      42.419  15.293  -1.837  1.00  0.00     0.283 C 
HETATM   23  C   UNL     1      44.062  15.127   3.574  1.00  0.00     0.283 C 
HETATM   24  C   UNL     1      41.733  19.843   1.293  1.00  0.00     0.283 C 
HETATM   25  C   UNL     1      45.265  12.897   1.411  1.00  0.00     0.153 C 
HETATM   26  C   UNL     1      41.456  18.391  -2.226  1.00  0.00     0.153 C 
HETATM   27  C   UNL     1      44.399  18.286   0.502  1.00  0.00     0.153 C 
ENDROOT
BRANCH  16  28
HETATM   28  C   UNL     1      43.029  11.851  -0.877  1.00  0.00     0.016 C 
HETATM   29  C   UNL     1      41.618  11.534  -1.372  1.00  0.00     0.012 C 
HETATM   30  C   UNL     1      44.072  11.312  -1.856  1.00  0.00     0.012 C 
ENDBRANCH  16  28
BRANCH  14  31
HETATM   31  C   UNL     1      41.264  16.035  -3.922  1.00  0.00     0.010 C 
HETATM   32  C   UNL     1      41.976  14.823  -4.519  1.00  0.00     0.012 C 
HETATM   33  C   UNL     1      39.886  16.212  -4.554  1.00  0.00     0.012 C 
ENDBRANCH  14  31
BRANCH  13  34
HETATM   34  C   UNL     1      44.215  12.694   4.125  1.00  0.00     0.010 C 
HETATM   35  C   UNL     1      43.933  11.273   3.639  1.00  0.00     0.012 C 
HETATM   36  C   UNL     1      43.649  12.901   5.528  1.00  0.00     0.012 C 
ENDBRANCH  13  34
BRANCH  18  37
HETATM   37  C   UNL     1      39.107  18.163   1.538  1.00  0.00     0.016 C 
HETATM   38  C   UNL     1      39.836  17.981   2.870  1.00  0.00     0.012 C 
HETATM   39  C   UNL     1      38.155  19.355   1.608  1.00  0.00     0.012 C 
ENDBRANCH  18  37
BRANCH  17  40
HETATM   40  C   UNL     1      46.384  16.959   4.087  1.00  0.00     0.016 C 
HETATM   41  C   UNL     1      47.272  18.201   4.130  1.00  0.00     0.012 C 
HETATM   42  C   UNL     1      47.235  15.692   4.033  1.00  0.00     0.012 C 
ENDBRANCH  17  40
BRANCH  15  43
HETATM   43  C   UNL     1      43.876  21.150   1.270  1.00  0.00     0.010 C 
HETATM   44  C   UNL     1      43.178  22.460   1.628  1.00  0.00     0.012 C 
HETATM   45  C   UNL     1      45.330  21.171   1.734  1.00  0.00     0.012 C 
ENDBRANCH  15  43
TORSDOF 6
ENDMDL
MODEL 13
REMARK VINA RESULT:    -4.079      2.513      7.669
REMARK INTER + INTRA:          -4.785
REMARK INTER:                  -5.950
REMARK INTRA:                   1.165
REMARK UNBOUND:                 0.724
REMARK  6 active torsions:
REMARK  status: ('A' for Active; 'I' for Inactive)
REMARK    1  A    between atoms: C_13  and  C_16 
REMARK    2  A    between atoms: C_14  and  C_17 
REMARK    3  A    between atoms: C_15  and  C_18 
REMARK    4  A    between atoms: C_19  and  C_22 
REMARK    5  A    between atoms: C_20  and  C_23 
REMARK    6  A    between atoms: C_21  and  C_24 
ROOT
HETATM    1  O   UNL     1      49.796  27.137   4.063  1.00  0.00    -0.304 OA
HETATM    2  O   UNL     1      51.716  22.554   5.509  1.00  0.00    -0.304 OA
HETATM    3  O   UNL     1      47.639  23.861   7.514  1.00  0.00    -0.304 OA
HETATM    4  O   UNL     1      49.385  24.613   3.640  1.00  0.00    -0.270 OA
HETATM    5  O   UNL     1      46.861  25.488   4.880  1.00  0.00    -0.270 OA
HETATM    6  O   UNL     1      50.081  20.566   7.479  1.00  0.00    -0.270 OA
HETATM    7  O   UNL     1      50.452  26.846   6.255  1.00  0.00    -0.263 OA
HETATM    8  O   UNL     1      50.727  20.690   4.588  1.00  0.00    -0.263 OA
HETATM    9  O   UNL     1      46.545  23.200   9.423  1.00  0.00    -0.263 OA
HETATM   10  N   UNL     1      51.590  23.997   3.314  1.00  0.00    -0.340 N 
HETATM   11  N   UNL     1      47.640  26.753   6.662  1.00  0.00    -0.340 N 
HETATM   12  N   UNL     1      49.989  22.772   8.212  1.00  0.00    -0.340 N 
HETATM   13  C   UNL     1      51.193  22.581   3.165  1.00  0.00     0.190 C 
HETATM   14  C   UNL     1      48.245  27.733   5.737  1.00  0.00     0.190 C 
HETATM   15  C   UNL     1      48.840  22.513   9.104  1.00  0.00     0.190 C 
HETATM   16  C   UNL     1      50.951  26.420   3.574  1.00  0.00     0.227 C 
HETATM   17  C   UNL     1      51.907  21.974   6.811  1.00  0.00     0.227 C 
HETATM   18  C   UNL     1      46.471  24.566   7.052  1.00  0.00     0.227 C 
HETATM   19  C   UNL     1      50.571  24.938   3.518  1.00  0.00     0.250 C 
HETATM   20  C   UNL     1      47.000  25.635   6.098  1.00  0.00     0.250 C 
HETATM   21  C   UNL     1      50.573  21.697   7.518  1.00  0.00     0.250 C 
HETATM   22  C   UNL     1      49.631  27.199   5.418  1.00  0.00     0.283 C 
HETATM   23  C   UNL     1      51.165  21.832   4.496  1.00  0.00     0.283 C 
HETATM   24  C   UNL     1      47.550  23.233   8.720  1.00  0.00     0.283 C 
HETATM   25  C   UNL     1      53.020  24.315   3.275  1.00  0.00     0.153 C 
HETATM   26  C   UNL     1      47.780  26.993   8.102  1.00  0.00     0.153 C 
HETATM   27  C   UNL     1      50.575  24.114   8.235  1.00  0.00     0.153 C 
ENDROOT
BRANCH  16  28
HETATM   28  C   UNL     1      51.242  26.954   2.179  1.00  0.00     0.016 C 
HETATM   29  C   UNL     1      49.970  27.502   1.534  1.00  0.00     0.012 C 
HETATM   30  C   UNL     1      52.324  28.032   2.228  1.00  0.00     0.012 C 
ENDBRANCH  16  28
BRANCH  14  31
HETATM   31  C   UNL     1      48.338  29.165   6.249  1.00  0.00     0.010 C 
HETATM   32  C   UNL     1      49.381  29.952   5.458  1.00  0.00     0.012 C 
HETATM   33  C   UNL     1      46.977  29.853   6.172  1.00  0.00     0.012 C 
ENDBRANCH  14  31
BRANCH  13  34
HETATM   34  C   UNL     1      52.040  21.806   2.156  1.00  0.00     0.010 C 
HETATM   35  C   UNL     1      51.149  21.098   1.136  1.00  0.00     0.012 C 
HETATM   36  C   UNL     1      52.942  20.799   2.867  1.00  0.00     0.012 C 
ENDBRANCH  13  34
BRANCH  18  37
HETATM   37  C   UNL     1      45.554  23.577   6.337  1.00  0.00     0.016 C 
HETATM   38  C   UNL     1      44.413  24.311   5.634  1.00  0.00     0.012 C 
HETATM   39  C   UNL     1      46.343  22.732   5.339  1.00  0.00     0.012 C 
ENDBRANCH  18  37
BRANCH  17  40
HETATM   40  C   UNL     1      52.814  20.744   6.757  1.00  0.00     0.016 C 
HETATM   41  C   UNL     1      52.917  20.092   8.135  1.00  0.00     0.012 C 
HETATM   42  C   UNL     1      54.199  21.119   6.235  1.00  0.00     0.012 C 
ENDBRANCH  17  40
BRANCH  15  43
HETATM   43  C   UNL     1      49.196  22.794  10.565  1.00  0.00     0.010 C 
HETATM   44  C   UNL     1      48.626  24.141  11.002  1.00  0.00     0.012 C 
HETATM   45  C   UNL     1      48.683  21.674  11.465  1.00  0.00     0.012 C 
ENDBRANCH  15  43
TORSDOF 6
ENDMDL
MODEL 14
REMARK VINA RESULT:    -4.074      3.208      8.326
REMARK INTER + INTRA:          -4.779
REMARK INTER:                  -5.470
REMARK INTRA:                   0.691
REMARK UNBOUND:                 0.724
REMARK  6 active torsions:
REMARK  status: ('A' for Active; 'I' for Inactive)
REMARK    1  A    between atoms: C_13  and  C_16 
REMARK    2  A    between atoms: C_14  and  C_17 
REMARK    3  A    between atoms: C_15  and  C_18 
REMARK    4  A    between atoms: C_19  and  C_22 
REMARK    5  A    between atoms: C_20  and  C_23 
REMARK    6  A    between atoms: C_21  and  C_24 
ROOT
HETATM    1  O   UNL     1      51.866  20.386   2.838  1.00  0.00    -0.304 OA
HETATM    2  O   UNL     1      55.553  18.045   5.615  1.00  0.00    -0.304 OA
HETATM    3  O   UNL     1      52.916  21.247   7.884  1.00  0.00    -0.304 OA
HETATM    4  O   UNL     1      52.093  18.530   4.634  1.00  0.00    -0.270 OA
HETATM    5  O   UNL     1      50.440  20.554   5.991  1.00  0.00    -0.270 OA
HETATM    6  O   UNL     1      55.864  18.548   8.802  1.00  0.00    -0.270 OA
HETATM    7  O   UNL     1      53.606  21.651   3.668  1.00  0.00    -0.263 OA
HETATM    8  O   UNL     1      54.858  16.381   7.046  1.00  0.00    -0.263 OA
HETATM    9  O   UNL     1      53.223  22.448   9.817  1.00  0.00    -0.263 OA
HETATM   10  N   UNL     1      53.881  17.410   3.686  1.00  0.00    -0.340 N 
HETATM   11  N   UNL     1      51.592  22.503   5.484  1.00  0.00    -0.340 N 
HETATM   12  N   UNL     1      55.491  20.534   7.649  1.00  0.00    -0.340 N 
HETATM   13  C   UNL     1      53.921  16.470   4.826  1.00  0.00     0.190 C 
HETATM   14  C   UNL     1      51.301  22.333   4.046  1.00  0.00     0.190 C 
HETATM   15  C   UNL     1      55.109  21.267   8.874  1.00  0.00     0.190 C 
HETATM   16  C   UNL     1      52.759  19.312   2.473  1.00  0.00     0.227 C 
HETATM   17  C   UNL     1      56.553  18.575   6.502  1.00  0.00     0.227 C 
HETATM   18  C   UNL     1      51.526  21.623   7.834  1.00  0.00     0.227 C 
HETATM   19  C   UNL     1      52.881  18.392   3.691  1.00  0.00     0.250 C 
HETATM   20  C   UNL     1      51.132  21.507   6.363  1.00  0.00     0.250 C 
HETATM   21  C   UNL     1      55.932  19.203   7.758  1.00  0.00     0.250 C 
HETATM   22  C   UNL     1      52.411  21.450   3.500  1.00  0.00     0.283 C 
HETATM   23  C   UNL     1      54.812  16.959   5.966  1.00  0.00     0.283 C 
HETATM   24  C   UNL     1      53.656  21.737   8.916  1.00  0.00     0.283 C 
HETATM   25  C   UNL     1      54.910  17.275   2.651  1.00  0.00     0.153 C 
HETATM   26  C   UNL     1      52.371  23.677   5.891  1.00  0.00     0.153 C 
HETATM   27  C   UNL     1      55.561  21.294   6.399  1.00  0.00     0.153 C 
ENDROOT
BRANCH  16  28
HETATM   28  C   UNL     1      52.112  18.579   1.307  1.00  0.00     0.016 C 
HETATM   29  C   UNL     1      50.638  18.960   1.182  1.00  0.00     0.012 C 
HETATM   30  C   UNL     1      52.853  18.874   0.004  1.00  0.00     0.012 C 
ENDBRANCH  16  28
BRANCH  14  31
HETATM   31  C   UNL     1      51.199  23.615   3.229  1.00  0.00     0.010 C 
HETATM   32  C   UNL     1      51.401  23.323   1.743  1.00  0.00     0.012 C 
HETATM   33  C   UNL     1      49.853  24.296   3.463  1.00  0.00     0.012 C 
ENDBRANCH  14  31
BRANCH  13  34
HETATM   34  C   UNL     1      54.318  15.046   4.437  1.00  0.00     0.010 C 
HETATM   35  C   UNL     1      53.320  14.035   5.000  1.00  0.00     0.012 C 
HETATM   36  C   UNL     1      55.732  14.728   4.919  1.00  0.00     0.012 C 
ENDBRANCH  13  34
BRANCH  18  37
HETATM   37  C   UNL     1      50.728  20.662   8.710  1.00  0.00     0.016 C 
HETATM   38  C   UNL     1      51.597  19.481   9.144  1.00  0.00     0.012 C 
HETATM   39  C   UNL     1      50.160  21.385   9.929  1.00  0.00     0.012 C 
ENDBRANCH  18  37
BRANCH  17  40
HETATM   40  C   UNL     1      57.628  17.540   6.829  1.00  0.00     0.016 C 
HETATM   41  C   UNL     1      58.651  18.117   7.806  1.00  0.00     0.012 C 
HETATM   42  C   UNL     1      58.317  17.058   5.554  1.00  0.00     0.012 C 
ENDBRANCH  17  40
BRANCH  15  43
HETATM   43  C   UNL     1      56.058  22.436   9.141  1.00  0.00     0.010 C 
HETATM   44  C   UNL     1      55.378  23.762   8.807  1.00  0.00     0.012 C 
HETATM   45  C   UNL     1      56.527  22.422  10.592  1.00  0.00     0.012 C 
ENDBRANCH  15  43
TORSDOF 6
ENDMDL
MODEL 15
REMARK VINA RESULT:    -4.045     16.258     20.031
REMARK INTER + INTRA:          -4.740
REMARK INTER:                  -5.458
REMARK INTRA:                   0.718
REMARK UNBOUND:                 0.724
REMARK  6 active torsions:
REMARK  status: ('A' for Active; 'I' for Inactive)
REMARK    1  A    between atoms: C_13  and  C_16 
REMARK    2  A    between atoms: C_14  and  C_17 
REMARK    3  A    between atoms: C_15  and  C_18 
REMARK    4  A    between atoms: C_19  and  C_22 
REMARK    5  A    between atoms: C_20  and  C_23 
REMARK    6  A    between atoms: C_21  and  C_24 
ROOT
HETATM    1  O   UNL     1      43.773   9.866  -1.366  1.00  0.00    -0.304 OA
HETATM    2  O   UNL     1      48.116   7.177  -0.539  1.00  0.00    -0.304 OA
HETATM    3  O   UNL     1      45.558   5.943  -4.320  1.00  0.00    -0.304 OA
HETATM    4  O   UNL     1      46.188   9.701  -2.294  1.00  0.00    -0.270 OA
HETATM    5  O   UNL     1      44.542   8.955  -4.619  1.00  0.00    -0.270 OA
HETATM    6  O   UNL     1      49.167   4.948  -2.645  1.00  0.00    -0.270 OA
HETATM    7  O   UNL     1      43.614   7.618  -0.880  1.00  0.00    -0.263 OA
HETATM    8  O   UNL     1      49.920   7.708  -1.868  1.00  0.00    -0.263 OA
HETATM    9  O   UNL     1      45.476   4.044  -5.608  1.00  0.00    -0.263 OA
HETATM   10  N   UNL     1      47.290   9.659  -0.261  1.00  0.00    -0.340 N 
HETATM   11  N   UNL     1      43.042   7.467  -3.661  1.00  0.00    -0.340 N 
HETATM   12  N   UNL     1      46.874   4.783  -2.290  1.00  0.00    -0.340 N 
HETATM   13  C   UNL     1      48.589   9.496  -0.947  1.00  0.00     0.190 C 
HETATM   14  C   UNL     1      42.471   8.541  -2.821  1.00  0.00     0.190 C 
HETATM   15  C   UNL     1      46.662   3.968  -3.504  1.00  0.00     0.190 C 
HETATM   16  C   UNL     1      44.805  10.056  -0.374  1.00  0.00     0.227 C 
HETATM   17  C   UNL     1      48.368   5.761  -0.532  1.00  0.00     0.227 C 
HETATM   18  C   UNL     1      44.779   6.671  -5.288  1.00  0.00     0.227 C 
HETATM   19  C   UNL     1      46.146   9.786  -1.061  1.00  0.00     0.250 C 
HETATM   20  C   UNL     1      44.117   7.801  -4.503  1.00  0.00     0.250 C 
HETATM   21  C   UNL     1      48.184   5.137  -1.923  1.00  0.00     0.250 C 
HETATM   22  C   UNL     1      43.333   8.589  -1.570  1.00  0.00     0.283 C 
HETATM   23  C   UNL     1      48.950   8.032  -1.191  1.00  0.00     0.283 C 
HETATM   24  C   UNL     1      45.824   4.636  -4.591  1.00  0.00     0.283 C 
HETATM   25  C   UNL     1      47.282   9.637   1.204  1.00  0.00     0.153 C 
HETATM   26  C   UNL     1      42.472   6.122  -3.532  1.00  0.00     0.153 C 
HETATM   27  C   UNL     1      45.714   5.031  -1.430  1.00  0.00     0.153 C 
ENDROOT
BRANCH  16  28
HETATM   28  C   UNL     1      44.716  11.504   0.083  1.00  0.00     0.016 C 
HETATM   29  C   UNL     1      44.089  12.375  -1.005  1.00  0.00     0.012 C 
HETATM   30  C   UNL     1      43.917  11.614   1.382  1.00  0.00     0.012 C 
ENDBRANCH  16  28
BRANCH  14  31
HETATM   31  C   UNL     1      41.004   8.385  -2.443  1.00  0.00     0.010 C 
HETATM   32  C   UNL     1      40.629   9.361  -1.330  1.00  0.00     0.012 C 
HETATM   33  C   UNL     1      40.110   8.595  -3.663  1.00  0.00     0.012 C 
ENDBRANCH  14  31
BRANCH  13  34
HETATM   34  C   UNL     1      49.749  10.202  -0.246  1.00  0.00     0.010 C 
HETATM   35  C   UNL     1      50.498  11.109  -1.222  1.00  0.00     0.012 C 
HETATM   36  C   UNL     1      50.703   9.187   0.379  1.00  0.00     0.012 C 
ENDBRANCH  13  34
BRANCH  18  37
HETATM   37  C   UNL     1      45.717   7.208  -6.366  1.00  0.00     0.016 C 
HETATM   38  C   UNL     1      47.176   7.044  -5.941  1.00  0.00     0.012 C 
HETATM   39  C   UNL     1      45.466   6.506  -7.699  1.00  0.00     0.012 C 
ENDBRANCH  18  37
BRANCH  17  40
HETATM   40  C   UNL     1      49.724   5.429   0.090  1.00  0.00     0.016 C 
HETATM   41  C   UNL     1      49.969   3.922   0.073  1.00  0.00     0.012 C 
HETATM   42  C   UNL     1      49.809   5.971   1.515  1.00  0.00     0.012 C 
ENDBRANCH  17  40
BRANCH  15  43
HETATM   43  C   UNL     1      46.091   2.592  -3.156  1.00  0.00     0.010 C 
HETATM   44  C   UNL     1      44.578   2.575  -3.363  1.00  0.00     0.012 C 
HETATM   45  C   UNL     1      46.761   1.508  -3.995  1.00  0.00     0.012 C 
ENDBRANCH  15  43
TORSDOF 6
ENDMDL
MODEL 16
REMARK VINA RESULT:    -4.007     10.149     14.891
REMARK INTER + INTRA:          -4.688
REMARK INTER:                  -5.502
REMARK INTRA:                   0.814
REMARK UNBOUND:                 0.724
REMARK  6 active torsions:
REMARK  status: ('A' for Active; 'I' for Inactive)
REMARK    1  A    between atoms: C_13  and  C_16 
REMARK    2  A    between atoms: C_14  and  C_17 
REMARK    3  A    between atoms: C_15  and  C_18 
REMARK    4  A    between atoms: C_19  and  C_22 
REMARK    5  A    between atoms: C_20  and  C_23 
REMARK    6  A    between atoms: C_21  and  C_24 
ROOT
HETATM    1  O   UNL     1      47.313  14.297  -2.241  1.00  0.00    -0.304 OA
HETATM    2  O   UNL     1      44.332  16.744   1.211  1.00  0.00    -0.304 OA
HETATM    3  O   UNL     1      42.497  12.876  -0.796  1.00  0.00    -0.304 OA
HETATM    4  O   UNL     1      46.529  14.032   0.216  1.00  0.00    -0.270 OA
HETATM    5  O   UNL     1      45.424  11.633  -1.086  1.00  0.00    -0.270 OA
HETATM    6  O   UNL     1      41.471  15.542   2.147  1.00  0.00    -0.270 OA
HETATM    7  O   UNL     1      45.341  15.256  -2.955  1.00  0.00    -0.263 OA
HETATM    8  O   UNL     1      44.190  15.791   3.302  1.00  0.00    -0.263 OA
HETATM    9  O   UNL     1      40.349  12.099  -1.032  1.00  0.00    -0.263 OA
HETATM   10  N   UNL     1      46.889  16.217   0.885  1.00  0.00    -0.340 N 
HETATM   11  N   UNL     1      44.509  12.539  -3.016  1.00  0.00    -0.340 N 
HETATM   12  N   UNL     1      41.764  15.376  -0.155  1.00  0.00    -0.340 N 
HETATM   13  C   UNL     1      46.345  15.916   2.226  1.00  0.00     0.190 C 
HETATM   14  C   UNL     1      45.848  12.939  -3.496  1.00  0.00     0.190 C 
HETATM   15  C   UNL     1      40.684  14.378  -0.302  1.00  0.00     0.190 C 
HETATM   16  C   UNL     1      47.612  15.430  -1.396  1.00  0.00     0.227 C 
HETATM   17  C   UNL     1      42.954  17.149   1.155  1.00  0.00     0.227 C 
HETATM   18  C   UNL     1      43.035  11.606  -1.211  1.00  0.00     0.227 C 
HETATM   19  C   UNL     1      46.961  15.163  -0.037  1.00  0.00     0.250 C 
HETATM   20  C   UNL     1      44.427  11.919  -1.756  1.00  0.00     0.250 C 
HETATM   21  C   UNL     1      42.002  15.946   1.107  1.00  0.00     0.250 C 
HETATM   22  C   UNL     1      46.112  14.308  -2.892  1.00  0.00     0.283 C 
HETATM   23  C   UNL     1      44.834  16.122   2.312  1.00  0.00     0.283 C 
HETATM   24  C   UNL     1      41.141  12.996  -0.764  1.00  0.00     0.283 C 
HETATM   25  C   UNL     1      47.279  17.600   0.599  1.00  0.00     0.153 C 
HETATM   26  C   UNL     1      43.356  12.848  -3.868  1.00  0.00     0.153 C 
HETATM   27  C   UNL     1      42.415  15.853  -1.377  1.00  0.00     0.153 C 
ENDROOT
BRANCH  16  28
HETATM   28  C   UNL     1      49.127  15.492  -1.264  1.00  0.00     0.016 C 
HETATM   29  C   UNL     1      49.749  14.123  -1.532  1.00  0.00     0.012 C 
HETATM   30  C   UNL     1      49.710  16.539  -2.213  1.00  0.00     0.012 C 
ENDBRANCH  16  28
BRANCH  14  31
HETATM   31  C   UNL     1      46.030  12.986  -5.007  1.00  0.00     0.010 C 
HETATM   32  C   UNL     1      47.213  13.877  -5.379  1.00  0.00     0.012 C 
HETATM   33  C   UNL     1      46.221  11.579  -5.570  1.00  0.00     0.012 C 
ENDBRANCH  14  31
BRANCH  13  34
HETATM   34  C   UNL     1      47.034  16.680   3.356  1.00  0.00     0.010 C 
HETATM   35  C   UNL     1      47.620  15.712   4.383  1.00  0.00     0.012 C 
HETATM   36  C   UNL     1      46.060  17.647   4.028  1.00  0.00     0.012 C 
ENDBRANCH  13  34
BRANCH  18  37
HETATM   37  C   UNL     1      43.100  10.683   0.003  1.00  0.00     0.016 C 
HETATM   38  C   UNL     1      42.830  11.465   1.289  1.00  0.00     0.012 C 
HETATM   39  C   UNL     1      42.109   9.531  -0.140  1.00  0.00     0.012 C 
ENDBRANCH  18  37
BRANCH  17  40
HETATM   40  C   UNL     1      42.606  18.134   2.271  1.00  0.00     0.016 C 
HETATM   41  C   UNL     1      41.134  18.533   2.196  1.00  0.00     0.012 C 
HETATM   42  C   UNL     1      43.501  19.369   2.197  1.00  0.00     0.012 C 
ENDBRANCH  17  40
BRANCH  15  43
HETATM   43  C   UNL     1      39.564  14.900  -1.204  1.00  0.00     0.010 C 
HETATM   44  C   UNL     1      38.358  13.965  -1.152  1.00  0.00     0.012 C 
HETATM   45  C   UNL     1      39.165  16.315  -0.795  1.00  0.00     0.012 C 
ENDBRANCH  15  43
TORSDOF 6
ENDMDL
MODEL 17
REMARK VINA RESULT:    -3.851     16.276     20.318
REMARK INTER + INTRA:          -4.478
REMARK INTER:                  -5.339
REMARK INTRA:                   0.862
REMARK UNBOUND:                 0.724
REMARK  6 active torsions:
REMARK  status: ('A' for Active; 'I' for Inactive)
REMARK    1  A    between atoms: C_13  and  C_16 
REMARK    2  A    between atoms: C_14  and  C_17 
REMARK    3  A    between atoms: C_15  and  C_18 
REMARK    4  A    between atoms: C_19  and  C_22 
REMARK    5  A    between atoms: C_20  and  C_23 
REMARK    6  A    between atoms: C_21  and  C_24 
ROOT
HETATM    1  O   UNL     1      41.612  10.780  -3.499  1.00  0.00    -0.304 OA
HETATM    2  O   UNL     1      45.806   8.834  -1.174  1.00  0.00    -0.304 OA
HETATM    3  O   UNL     1      44.140   6.421  -4.883  1.00  0.00    -0.304 OA
HETATM    4  O   UNL     1      44.171  10.618  -3.878  1.00  0.00    -0.270 OA
HETATM    5  O   UNL     1      43.074   9.139  -6.177  1.00  0.00    -0.270 OA
HETATM    6  O   UNL     1      47.366   6.251  -2.357  1.00  0.00    -0.270 OA
HETATM    7  O   UNL     1      41.456   8.728  -2.456  1.00  0.00    -0.263 OA
HETATM    8  O   UNL     1      47.820   9.178  -2.236  1.00  0.00    -0.263 OA
HETATM    9  O   UNL     1      44.409   4.255  -5.596  1.00  0.00    -0.263 OA
HETATM   10  N   UNL     1      44.832  11.210  -1.743  1.00  0.00    -0.340 N 
HETATM   11  N   UNL     1      41.476   7.809  -5.146  1.00  0.00    -0.340 N 
HETATM   12  N   UNL     1      45.059   5.960  -2.405  1.00  0.00    -0.340 N 
HETATM   13  C   UNL     1      46.250  11.004  -2.103  1.00  0.00     0.190 C 
HETATM   14  C   UNL     1      40.698   9.002  -4.753  1.00  0.00     0.190 C 
HETATM   15  C   UNL     1      45.138   4.841  -3.368  1.00  0.00     0.190 C 
HETATM   16  C   UNL     1      42.408  11.319  -2.421  1.00  0.00     0.227 C 
HETATM   17  C   UNL     1      46.113   7.500  -0.734  1.00  0.00     0.227 C 
HETATM   18  C   UNL     1      43.545   6.794  -6.141  1.00  0.00     0.227 C 
HETATM   19  C   UNL     1      43.873  11.014  -2.746  1.00  0.00     0.250 C 
HETATM   20  C   UNL     1      42.686   8.018  -5.831  1.00  0.00     0.250 C 
HETATM   21  C   UNL     1      46.248   6.523  -1.911  1.00  0.00     0.250 C 
HETATM   22  C   UNL     1      41.280   9.456  -3.425  1.00  0.00     0.283 C 
HETATM   23  C   UNL     1      46.718   9.569  -1.866  1.00  0.00     0.283 C 
HETATM   24  C   UNL     1      44.514   5.120  -4.733  1.00  0.00     0.283 C 
HETATM   25  C   UNL     1      44.523  11.568  -0.355  1.00  0.00     0.153 C 
HETATM   26  C   UNL     1      40.953   6.494  -4.764  1.00  0.00     0.153 C 
HETATM   27  C   UNL     1      43.737   6.306  -1.878  1.00  0.00     0.153 C 
ENDROOT
BRANCH  16  28
HETATM   28  C   UNL     1      42.163  12.821  -2.401  1.00  0.00     0.016 C 
HETATM   29  C   UNL     1      41.628  13.298  -3.751  1.00  0.00     0.012 C 
HETATM   30  C   UNL     1      41.194  13.196  -1.281  1.00  0.00     0.012 C 
ENDBRANCH  16  28
BRANCH  14  31
HETATM   31  C   UNL     1      39.193   8.806  -4.628  1.00  0.00     0.010 C 
HETATM   32  C   UNL     1      38.563   9.962  -3.853  1.00  0.00     0.012 C 
HETATM   33  C   UNL     1      38.552   8.675  -6.007  1.00  0.00     0.012 C 
ENDBRANCH  14  31
BRANCH  13  34
HETATM   34  C   UNL     1      47.208  11.978  -1.417  1.00  0.00     0.010 C 
HETATM   35  C   UNL     1      48.134  12.634  -2.441  1.00  0.00     0.012 C 
HETATM   36  C   UNL     1      48.023  11.267  -0.339  1.00  0.00     0.012 C 
ENDBRANCH  13  34
BRANCH  18  37
HETATM   37  C   UNL     1      44.661   7.123  -7.129  1.00  0.00     0.016 C 
HETATM   38  C   UNL     1      45.999   7.266  -6.404  1.00  0.00     0.012 C 
HETATM   39  C   UNL     1      44.753   6.054  -8.216  1.00  0.00     0.012 C 
ENDBRANCH  18  37
BRANCH  17  40
HETATM   40  C   UNL     1      47.326   7.474   0.197  1.00  0.00     0.016 C 
HETATM   41  C   UNL     1      47.619   6.049   0.659  1.00  0.00     0.012 C 
HETATM   42  C   UNL     1      47.103   8.393   1.396  1.00  0.00     0.012 C 
ENDBRANCH  17  40
BRANCH  15  43
HETATM   43  C   UNL     1      44.569   3.553  -2.772  1.00  0.00     0.010 C 
HETATM   44  C   UNL     1      45.310   2.338  -3.322  1.00  0.00     0.012 C 
HETATM   45  C   UNL     1      44.649   3.589  -1.249  1.00  0.00     0.012 C 
ENDBRANCH  15  43
TORSDOF 6
ENDMDL
MODEL 18
REMARK VINA RESULT:    -3.830      1.737      8.052
REMARK INTER + INTRA:          -4.449
REMARK INTER:                  -5.898
REMARK INTRA:                   1.449
REMARK UNBOUND:                 0.724
REMARK  6 active torsions:
REMARK  status: ('A' for Active; 'I' for Inactive)
REMARK    1  A    between atoms: C_13  and  C_16 
REMARK    2  A    between atoms: C_14  and  C_17 
REMARK    3  A    between atoms: C_15  and  C_18 
REMARK    4  A    between atoms: C_19  and  C_22 
REMARK    5  A    between atoms: C_20  and  C_23 
REMARK    6  A    between atoms: C_21  and  C_24 
ROOT
HETATM    1  O   UNL     1      51.738  23.814   2.805  1.00  0.00    -0.304 OA
HETATM    2  O   UNL     1      52.543  22.513   7.748  1.00  0.00    -0.304 OA
HETATM    3  O   UNL     1      48.039  23.058   6.417  1.00  0.00    -0.304 OA
HETATM    4  O   UNL     1      51.580  21.731   4.338  1.00  0.00    -0.270 OA
HETATM    5  O   UNL     1      48.794  22.110   3.463  1.00  0.00    -0.270 OA
HETATM    6  O   UNL     1      50.088  21.845   9.757  1.00  0.00    -0.270 OA
HETATM    7  O   UNL     1      51.130  25.301   4.460  1.00  0.00    -0.263 OA
HETATM    8  O   UNL     1      52.168  20.311   8.304  1.00  0.00    -0.263 OA
HETATM    9  O   UNL     1      46.093  23.430   7.578  1.00  0.00    -0.263 OA
HETATM   10  N   UNL     1      53.616  21.986   5.406  1.00  0.00    -0.340 N 
HETATM   11  N   UNL     1      48.527  24.396   3.760  1.00  0.00    -0.340 N 
HETATM   12  N   UNL     1      49.650  23.724   8.457  1.00  0.00    -0.340 N 
HETATM   13  C   UNL     1      53.340  20.809   6.256  1.00  0.00     0.190 C 
HETATM   14  C   UNL     1      49.543  24.676   2.724  1.00  0.00     0.190 C 
HETATM   15  C   UNL     1      48.200  23.679   8.736  1.00  0.00     0.190 C 
HETATM   16  C   UNL     1      52.967  23.485   3.487  1.00  0.00     0.227 C 
HETATM   17  C   UNL     1      52.009  23.052   8.970  1.00  0.00     0.227 C 
HETATM   18  C   UNL     1      47.302  22.759   5.216  1.00  0.00     0.227 C 
HETATM   19  C   UNL     1      52.656  22.331   4.444  1.00  0.00     0.250 C 
HETATM   20  C   UNL     1      48.269  23.049   4.070  1.00  0.00     0.250 C 
HETATM   21  C   UNL     1      50.499  22.803   9.096  1.00  0.00     0.250 C 
HETATM   22  C   UNL     1      50.881  24.667   3.443  1.00  0.00     0.283 C 
HETATM   23  C   UNL     1      52.603  21.170   7.544  1.00  0.00     0.283 C 
HETATM   24  C   UNL     1      47.318  23.393   7.523  1.00  0.00     0.283 C 
HETATM   25  C   UNL     1      54.854  22.732   5.650  1.00  0.00     0.153 C 
HETATM   26  C   UNL     1      47.887  25.539   4.419  1.00  0.00     0.153 C 
HETATM   27  C   UNL     1      50.151  24.845   7.660  1.00  0.00     0.153 C 
ENDROOT
BRANCH  16  28
HETATM   28  C   UNL     1      53.959  23.046   2.420  1.00  0.00     0.016 C 
HETATM   29  C   UNL     1      53.516  21.732   1.779  1.00  0.00     0.012 C 
HETATM   30  C   UNL     1      54.124  24.131   1.356  1.00  0.00     0.012 C 
ENDBRANCH  16  28
BRANCH  14  31
HETATM   31  C   UNL     1      49.368  25.979   1.954  1.00  0.00     0.010 C 
HETATM   32  C   UNL     1      50.694  26.419   1.336  1.00  0.00     0.012 C 
HETATM   33  C   UNL     1      48.299  25.826   0.875  1.00  0.00     0.012 C 
ENDBRANCH  14  31
BRANCH  13  34
HETATM   34  C   UNL     1      54.583  19.984   6.588  1.00  0.00     0.010 C 
HETATM   35  C   UNL     1      54.332  18.500   6.321  1.00  0.00     0.012 C 
HETATM   36  C   UNL     1      55.005  20.202   8.039  1.00  0.00     0.012 C 
ENDBRANCH  13  34
BRANCH  18  37
HETATM   37  C   UNL     1      46.890  21.290   5.249  1.00  0.00     0.016 C 
HETATM   38  C   UNL     1      45.871  20.992   4.149  1.00  0.00     0.012 C 
HETATM   39  C   UNL     1      48.111  20.382   5.107  1.00  0.00     0.012 C 
ENDBRANCH  18  37
BRANCH  17  40
HETATM   40  C   UNL     1      52.791  22.571  10.192  1.00  0.00     0.016 C 
HETATM   41  C   UNL     1      52.213  23.174  11.471  1.00  0.00     0.012 C 
HETATM   42  C   UNL     1      54.271  22.920  10.055  1.00  0.00     0.012 C 
ENDBRANCH  17  40
BRANCH  15  43
HETATM   43  C   UNL     1      47.732  24.948   9.450  1.00  0.00     0.010 C 
HETATM   44  C   UNL     1      47.092  25.914   8.457  1.00  0.00     0.012 C 
HETATM   45  C   UNL     1      46.756  24.600  10.570  1.00  0.00     0.012 C 
ENDBRANCH  15  43
TORSDOF 6
ENDMDL
MODEL 19
REMARK VINA RESULT:    -3.651     14.256     18.547
REMARK INTER + INTRA:          -4.207
REMARK INTER:                  -5.000
REMARK INTRA:                   0.793
REMARK UNBOUND:                 0.724
REMARK  6 active torsions:
REMARK  status: ('A' for Active; 'I' for Inactive)
REMARK    1  A    between atoms: C_13  and  C_16 
REMARK    2  A    between atoms: C_14  and  C_17 
REMARK    3  A    between atoms: C_15  and  C_18 
REMARK    4  A    between atoms: C_19  and  C_22 
REMARK    5  A    between atoms: C_20  and  C_23 
REMARK    6  A    between atoms: C_21  and  C_24 
ROOT
HETATM    1  O   UNL     1      42.319  13.277  -1.390  1.00  0.00    -0.304 OA
HETATM    2  O   UNL     1      46.060   9.793  -0.581  1.00  0.00    -0.304 OA
HETATM    3  O   UNL     1      43.080   8.901  -4.142  1.00  0.00    -0.304 OA
HETATM    4  O   UNL     1      44.588  12.557  -2.415  1.00  0.00    -0.270 OA
HETATM    5  O   UNL     1      42.687  12.036  -4.603  1.00  0.00    -0.270 OA
HETATM    6  O   UNL     1      46.502   7.274  -2.573  1.00  0.00    -0.270 OA
HETATM    7  O   UNL     1      41.731  11.143  -0.741  1.00  0.00    -0.263 OA
HETATM    8  O   UNL     1      47.851   9.857  -2.026  1.00  0.00    -0.263 OA
HETATM    9  O   UNL     1      42.533   6.989  -5.289  1.00  0.00    -0.263 OA
HETATM   10  N   UNL     1      45.779  12.404  -0.438  1.00  0.00    -0.340 N 
HETATM   11  N   UNL     1      40.974  10.952  -3.474  1.00  0.00    -0.340 N 
HETATM   12  N   UNL     1      44.250   7.613  -2.100  1.00  0.00    -0.340 N 
HETATM   13  C   UNL     1      46.973  11.934  -1.171  1.00  0.00     0.190 C 
HETATM   14  C   UNL     1      40.688  12.169  -2.685  1.00  0.00     0.190 C 
HETATM   15  C   UNL     1      43.803   6.790  -3.243  1.00  0.00     0.190 C 
HETATM   16  C   UNL     1      43.426  13.304  -0.462  1.00  0.00     0.227 C 
HETATM   17  C   UNL     1      46.016   8.359  -0.486  1.00  0.00     0.227 C 
HETATM   18  C   UNL     1      42.410   9.718  -5.121  1.00  0.00     0.227 C 
HETATM   19  C   UNL     1      44.639  12.721  -1.191  1.00  0.00     0.250 C 
HETATM   20  C   UNL     1      42.043  11.005  -4.387  1.00  0.00     0.250 C 
HETATM   21  C   UNL     1      45.624   7.707  -1.820  1.00  0.00     0.250 C 
HETATM   22  C   UNL     1      41.615  12.109  -1.483  1.00  0.00     0.283 C 
HETATM   23  C   UNL     1      47.011  10.415  -1.329  1.00  0.00     0.283 C 
HETATM   24  C   UNL     1      43.055   7.553  -4.334  1.00  0.00     0.283 C 
HETATM   25  C   UNL     1      45.855  12.471   1.024  1.00  0.00     0.153 C 
HETATM   26  C   UNL     1      40.150   9.766  -3.225  1.00  0.00     0.153 C 
HETATM   27  C   UNL     1      43.219   8.147  -1.207  1.00  0.00     0.153 C 
ENDROOT
BRANCH  16  28
HETATM   28  C   UNL     1      43.664  14.764  -0.104  1.00  0.00     0.016 C 
HETATM   29  C   UNL     1      43.182  15.681  -1.227  1.00  0.00     0.012 C 
HETATM   30  C   UNL     1      42.968  15.118   1.210  1.00  0.00     0.012 C 
ENDBRANCH  16  28
BRANCH  14  31
HETATM   31  C   UNL     1      39.245  12.345  -2.230  1.00  0.00     0.010 C 
HETATM   32  C   UNL     1      39.162  13.358  -1.090  1.00  0.00     0.012 C 
HETATM   33  C   UNL     1      38.362  12.779  -3.397  1.00  0.00     0.012 C 
ENDBRANCH  14  31
BRANCH  13  34
HETATM   34  C   UNL     1      48.293  12.423  -0.576  1.00  0.00     0.010 C 
HETATM   35  C   UNL     1      49.170  13.057  -1.656  1.00  0.00     0.012 C 
HETATM   36  C   UNL     1      49.035  11.278   0.110  1.00  0.00     0.012 C 
ENDBRANCH  13  34
BRANCH  18  37
HETATM   37  C   UNL     1      43.372   9.983  -6.277  1.00  0.00     0.016 C 
HETATM   38  C   UNL     1      44.790   9.546  -5.909  1.00  0.00     0.012 C 
HETATM   39  C   UNL     1      42.904   9.269  -7.544  1.00  0.00     0.012 C 
ENDBRANCH  18  37
BRANCH  17  40
HETATM   40  C   UNL     1      47.310   7.788   0.093  1.00  0.00     0.016 C 
HETATM   41  C   UNL     1      47.254   6.262   0.133  1.00  0.00     0.012 C 
HETATM   42  C   UNL     1      47.570   8.353   1.488  1.00  0.00     0.012 C 
ENDBRANCH  17  40
BRANCH  15  43
HETATM   43  C   UNL     1      42.983   5.587  -2.774  1.00  0.00     0.010 C 
HETATM   44  C   UNL     1      42.966   4.502  -3.848  1.00  0.00     0.012 C 
HETATM   45  C   UNL     1      43.540   5.039  -1.464  1.00  0.00     0.012 C 
ENDBRANCH  15  43
TORSDOF 6
ENDMDL
MODEL 20
REMARK VINA RESULT:    -3.516      3.448      9.189
REMARK INTER + INTRA:          -4.025
REMARK INTER:                  -4.869
REMARK INTRA:                   0.845
REMARK UNBOUND:                 0.724
REMARK  6 active torsions:
REMARK  status: ('A' for Active; 'I' for Inactive)
REMARK    1  A    between atoms: C_13  and  C_16 
REMARK    2  A    between atoms: C_14  and  C_17 
REMARK    3  A    between atoms: C_15  and  C_18 
REMARK    4  A    between atoms: C_19  and  C_22 
REMARK    5  A    between atoms: C_20  and  C_23 
REMARK    6  A    between atoms: C_21  and  C_24 
ROOT
HETATM    1  O   UNL     1      50.211  25.347   1.313  1.00  0.00    -0.304 OA
HETATM    2  O   UNL     1      48.701  24.329   6.157  1.00  0.00    -0.304 OA
HETATM    3  O   UNL     1      45.332  25.721   3.145  1.00  0.00    -0.304 OA
HETATM    4  O   UNL     1      48.989  23.486   2.639  1.00  0.00    -0.270 OA
HETATM    5  O   UNL     1      46.935  24.384   0.729  1.00  0.00    -0.270 OA
HETATM    6  O   UNL     1      45.575  24.382   7.014  1.00  0.00    -0.270 OA
HETATM    7  O   UNL     1      49.371  27.066   2.601  1.00  0.00    -0.263 OA
HETATM    8  O   UNL     1      47.638  22.315   6.498  1.00  0.00    -0.263 OA
HETATM    9  O   UNL     1      43.233  26.604   3.437  1.00  0.00    -0.263 OA
HETATM   10  N   UNL     1      50.447  23.384   4.431  1.00  0.00    -0.340 N 
HETATM   11  N   UNL     1      47.114  26.690   0.914  1.00  0.00    -0.340 N 
HETATM   12  N   UNL     1      46.129  26.193   5.663  1.00  0.00    -0.340 N 
HETATM   13  C   UNL     1      49.596  22.371   5.091  1.00  0.00     0.190 C 
HETATM   14  C   UNL     1      48.487  26.654   0.371  1.00  0.00     0.190 C 
HETATM   15  C   UNL     1      44.717  26.488   5.341  1.00  0.00     0.190 C 
HETATM   16  C   UNL     1      50.964  24.819   2.426  1.00  0.00     0.227 C 
HETATM   17  C   UNL     1      47.875  25.073   7.068  1.00  0.00     0.227 C 
HETATM   18  C   UNL     1      45.074  25.488   1.747  1.00  0.00     0.227 C 
HETATM   19  C   UNL     1      50.046  23.846   3.170  1.00  0.00     0.250 C 
HETATM   20  C   UNL     1      46.449  25.462   1.084  1.00  0.00     0.250 C 
HETATM   21  C   UNL     1      46.422  25.169   6.580  1.00  0.00     0.250 C 
HETATM   22  C   UNL     1      49.398  26.416   1.564  1.00  0.00     0.283 C 
HETATM   23  C   UNL     1      48.521  22.992   5.981  1.00  0.00     0.283 C 
HETATM   24  C   UNL     1      44.337  26.297   3.874  1.00  0.00     0.283 C 
HETATM   25  C   UNL     1      51.628  23.862   5.155  1.00  0.00     0.153 C 
HETATM   26  C   UNL     1      46.553  27.996   1.273  1.00  0.00     0.153 C 
HETATM   27  C   UNL     1      47.147  27.108   5.142  1.00  0.00     0.153 C 
ENDROOT
BRANCH  16  28
HETATM   28  C   UNL     1      52.162  24.086   1.839  1.00  0.00     0.016 C 
HETATM   29  C   UNL     1      51.918  23.744   0.370  1.00  0.00     0.012 C 
HETATM   30  C   UNL     1      53.433  24.920   1.990  1.00  0.00     0.012 C 
ENDBRANCH  16  28
BRANCH  14  31
HETATM   31  C   UNL     1      48.935  27.893  -0.394  1.00  0.00     0.010 C 
HETATM   32  C   UNL     1      50.460  27.968  -0.449  1.00  0.00     0.012 C 
HETATM   33  C   UNL     1      48.347  27.897  -1.803  1.00  0.00     0.012 C 
ENDBRANCH  14  31
BRANCH  13  34
HETATM   34  C   UNL     1      50.382  21.328   5.884  1.00  0.00     0.010 C 
HETATM   35  C   UNL     1      50.009  19.916   5.435  1.00  0.00     0.012 C 
HETATM   36  C   UNL     1      50.141  21.493   7.383  1.00  0.00     0.012 C 
ENDBRANCH  13  34
BRANCH  18  37
HETATM   37  C   UNL     1      44.352  24.151   1.600  1.00  0.00     0.016 C 
HETATM   38  C   UNL     1      44.412  23.360   2.907  1.00  0.00     0.012 C 
HETATM   39  C   UNL     1      42.903  24.364   1.169  1.00  0.00     0.012 C 
ENDBRANCH  18  37
BRANCH  17  40
HETATM   40  C   UNL     1      47.983  24.540   8.497  1.00  0.00     0.016 C 
HETATM   41  C   UNL     1      47.167  25.404   9.457  1.00  0.00     0.012 C 
HETATM   42  C   UNL     1      49.444  24.479   8.939  1.00  0.00     0.012 C 
ENDBRANCH  17  40
BRANCH  15  43
HETATM   43  C   UNL     1      44.317  27.884   5.820  1.00  0.00     0.010 C 
HETATM   44  C   UNL     1      44.782  28.108   7.257  1.00  0.00     0.012 C 
HETATM   45  C   UNL     1      44.893  28.951   4.895  1.00  0.00     0.012 C 
ENDBRANCH  15  43
TORSDOF 6
ENDMDL
