MODEL 1
REMARK VINA RESULT:    -6.015      0.000      0.000
REMARK INTER + INTRA:          -7.404
REMARK INTER:                  -8.125
REMARK INTRA:                   0.721
REMARK UNBOUND:                 0.721
REMARK  6 active torsions:
REMARK  status: ('A' for Active; 'I' for Inactive)
REMARK    1  A    between atoms: C_13  and  C_16 
REMARK    2  A    between atoms: C_14  and  C_17 
REMARK    3  A    between atoms: C_15  and  C_18 
REMARK    4  A    between atoms: C_19  and  C_22 
REMARK    5  A    between atoms: C_20  and  C_23 
REMARK    6  A    between atoms: C_21  and  C_24 
ROOT
HETATM    1  O   UNL     1      50.359  23.104  10.362  1.00  0.00    -0.304 OA
HETATM    2  O   UNL     1      49.146  23.838   5.385  1.00  0.00    -0.304 OA
HETATM    3  O   UNL     1      53.437  22.061   6.271  1.00  0.00    -0.304 OA
HETATM    4  O   UNL     1      49.639  21.722   8.291  1.00  0.00    -0.270 OA
HETATM    5  O   UNL     1      52.311  20.643   8.900  1.00  0.00    -0.270 OA
HETATM    6  O   UNL     1      51.113  22.883   2.992  1.00  0.00    -0.270 OA
HETATM    7  O   UNL     1      51.563  24.644   9.139  1.00  0.00    -0.263 OA
HETATM    8  O   UNL     1      48.559  21.963   4.185  1.00  0.00    -0.263 OA
HETATM    9  O   UNL     1      55.373  21.946   5.041  1.00  0.00    -0.263 OA
HETATM   10  N   UNL     1      47.919  23.100   7.591  1.00  0.00    -0.340 N 
HETATM   11  N   UNL     1      53.526  22.591   9.237  1.00  0.00    -0.340 N 
HETATM   12  N   UNL     1      52.289  23.919   4.712  1.00  0.00    -0.340 N 
HETATM   13  C   UNL     1      47.681  22.238   6.414  1.00  0.00     0.190 C 
HETATM   14  C   UNL     1      52.711  22.926  10.423  1.00  0.00     0.190 C 
HETATM   15  C   UNL     1      53.587  23.376   4.261  1.00  0.00     0.190 C 
HETATM   16  C   UNL     1      49.116  23.532   9.765  1.00  0.00     0.227 C 
HETATM   17  C   UNL     1      49.875  24.461   4.313  1.00  0.00     0.227 C 
HETATM   18  C   UNL     1      53.961  21.134   7.240  1.00  0.00     0.227 C 
HETATM   19  C   UNL     1      48.921  22.709   8.489  1.00  0.00     0.250 C 
HETATM   20  C   UNL     1      53.193  21.423   8.528  1.00  0.00     0.250 C 
HETATM   21  C   UNL     1      51.139  23.670   3.943  1.00  0.00     0.250 C 
HETATM   22  C   UNL     1      51.505  23.685   9.896  1.00  0.00     0.283 C 
HETATM   23  C   UNL     1      48.519  22.644   5.204  1.00  0.00     0.283 C 
HETATM   24  C   UNL     1      54.247  22.396   5.229  1.00  0.00     0.283 C 
HETATM   25  C   UNL     1      47.118  24.321   7.718  1.00  0.00     0.153 C 
HETATM   26  C   UNL     1      54.599  23.516   8.860  1.00  0.00     0.153 C 
HETATM   27  C   UNL     1      52.300  24.842   5.849  1.00  0.00     0.153 C 
ENDROOT
BRANCH  16  28
HETATM   28  C   UNL     1      48.017  23.230  10.773  1.00  0.00     0.016 C 
HETATM   29  C   UNL     1      48.486  22.188  11.787  1.00  0.00     0.012 C 
HETATM   30  C   UNL     1      47.571  24.506  11.486  1.00  0.00     0.012 C 
ENDBRANCH  16  28
BRANCH  14  31
HETATM   31  C   UNL     1      53.411  23.737  11.507  1.00  0.00     0.010 C 
HETATM   32  C   UNL     1      52.390  24.344  12.467  1.00  0.00     0.012 C 
HETATM   33  C   UNL     1      54.411  22.869  12.266  1.00  0.00     0.012 C 
ENDBRANCH  14  31
BRANCH  13  34
HETATM   34  C   UNL     1      46.210  22.137   6.011  1.00  0.00     0.010 C 
HETATM   35  C   UNL     1      45.839  20.692   5.680  1.00  0.00     0.012 C 
HETATM   36  C   UNL     1      45.911  23.050   4.824  1.00  0.00     0.012 C 
ENDBRANCH  13  34
BRANCH  18  37
HETATM   37  C   UNL     1      53.711  19.713   6.742  1.00  0.00     0.016 C 
HETATM   38  C   UNL     1      52.780  19.723   5.530  1.00  0.00     0.012 C 
HETATM   39  C   UNL     1      55.029  19.021   6.398  1.00  0.00     0.012 C 
ENDBRANCH  18  37
BRANCH  17  40
HETATM   40  C   UNL     1      48.980  24.742   3.106  1.00  0.00     0.016 C 
HETATM   41  C   UNL     1      49.791  25.358   1.968  1.00  0.00     0.012 C 
HETATM   42  C   UNL     1      47.823  25.659   3.498  1.00  0.00     0.012 C 
ENDBRANCH  17  40
BRANCH  15  43
HETATM   43  C   UNL     1      54.558  24.496   3.887  1.00  0.00     0.010 C 
HETATM   44  C   UNL     1      55.593  24.695   4.992  1.00  0.00     0.012 C 
HETATM   45  C   UNL     1      55.241  24.189   2.558  1.00  0.00     0.012 C 
ENDBRANCH  15  43
TORSDOF 6
ENDMDL
MODEL 2
REMARK VINA RESULT:    -5.691      1.797      6.578
REMARK INTER + INTRA:          -6.966
REMARK INTER:                  -7.935
REMARK INTRA:                   0.969
REMARK UNBOUND:                 0.721
REMARK  6 active torsions:
REMARK  status: ('A' for Active; 'I' for Inactive)
REMARK    1  A    between atoms: C_13  and  C_16 
REMARK    2  A    between atoms: C_14  and  C_17 
REMARK    3  A    between atoms: C_15  and  C_18 
REMARK    4  A    between atoms: C_19  and  C_22 
REMARK    5  A    between atoms: C_20  and  C_23 
REMARK    6  A    between atoms: C_21  and  C_24 
ROOT
HETATM    1  O   UNL     1      51.617  23.731  10.678  1.00  0.00    -0.304 OA
HETATM    2  O   UNL     1      53.580  21.208   6.609  1.00  0.00    -0.304 OA
HETATM    3  O   UNL     1      49.220  22.963   6.099  1.00  0.00    -0.304 OA
HETATM    4  O   UNL     1      52.661  24.249   8.363  1.00  0.00    -0.270 OA
HETATM    5  O   UNL     1      49.937  25.338   8.110  1.00  0.00    -0.270 OA
HETATM    6  O   UNL     1      52.017  21.069   3.773  1.00  0.00    -0.270 OA
HETATM    7  O   UNL     1      50.604  21.778   9.985  1.00  0.00    -0.263 OA
HETATM    8  O   UNL     1      54.363  22.507   4.876  1.00  0.00    -0.263 OA
HETATM    9  O   UNL     1      47.499  22.496   4.652  1.00  0.00    -0.263 OA
HETATM   10  N   UNL     1      54.457  22.799   8.511  1.00  0.00    -0.340 N 
HETATM   11  N   UNL     1      48.668  23.607   8.992  1.00  0.00    -0.340 N 
HETATM   12  N   UNL     1      50.580  20.712   5.567  1.00  0.00    -0.340 N 
HETATM   13  C   UNL     1      54.882  23.155   7.140  1.00  0.00     0.190 C 
HETATM   14  C   UNL     1      49.285  23.796  10.321  1.00  0.00     0.190 C 
HETATM   15  C   UNL     1      49.372  20.972   4.757  1.00  0.00     0.190 C 
HETATM   16  C   UNL     1      52.934  23.172  10.482  1.00  0.00     0.227 C 
HETATM   17  C   UNL     1      53.021  20.185   5.767  1.00  0.00     0.227 C 
HETATM   18  C   UNL     1      48.560  24.162   6.547  1.00  0.00     0.227 C 
HETATM   19  C   UNL     1      53.331  23.452   9.030  1.00  0.00     0.250 C 
HETATM   20  C   UNL     1      49.116  24.430   7.943  1.00  0.00     0.250 C 
HETATM   21  C   UNL     1      51.837  20.706   4.939  1.00  0.00     0.250 C 
HETATM   22  C   UNL     1      50.552  22.957  10.311  1.00  0.00     0.283 C 
HETATM   23  C   UNL     1      54.238  22.272   6.073  1.00  0.00     0.283 C 
HETATM   24  C   UNL     1      48.578  22.212   5.162  1.00  0.00     0.283 C 
HETATM   25  C   UNL     1      55.218  21.764   9.216  1.00  0.00     0.153 C 
HETATM   26  C   UNL     1      47.657  22.554   8.850  1.00  0.00     0.153 C 
HETATM   27  C   UNL     1      50.385  20.296   6.958  1.00  0.00     0.153 C 
ENDROOT
BRANCH  16  28
HETATM   28  C   UNL     1      53.866  23.894  11.444  1.00  0.00     0.016 C 
HETATM   29  C   UNL     1      53.104  24.951  12.243  1.00  0.00     0.012 C 
HETATM   30  C   UNL     1      54.548  22.902  12.385  1.00  0.00     0.012 C 
ENDBRANCH  16  28
BRANCH  14  31
HETATM   31  C   UNL     1      48.419  23.427  11.519  1.00  0.00     0.010 C 
HETATM   32  C   UNL     1      49.261  23.365  12.791  1.00  0.00     0.012 C 
HETATM   33  C   UNL     1      47.274  24.424  11.682  1.00  0.00     0.012 C 
ENDBRANCH  14  31
BRANCH  13  34
HETATM   34  C   UNL     1      56.398  23.170   6.950  1.00  0.00     0.010 C 
HETATM   35  C   UNL     1      56.856  24.507   6.369  1.00  0.00     0.012 C 
HETATM   36  C   UNL     1      56.842  22.017   6.051  1.00  0.00     0.012 C 
ENDBRANCH  13  34
BRANCH  18  37
HETATM   37  C   UNL     1      48.896  25.294   5.580  1.00  0.00     0.016 C 
HETATM   38  C   UNL     1      50.001  24.867   4.613  1.00  0.00     0.012 C 
HETATM   39  C   UNL     1      47.652  25.735   4.810  1.00  0.00     0.012 C 
ENDBRANCH  18  37
BRANCH  17  40
HETATM   40  C   UNL     1      54.090  19.509   4.908  1.00  0.00     0.016 C 
HETATM   41  C   UNL     1      53.461  18.456   3.999  1.00  0.00     0.012 C 
HETATM   42  C   UNL     1      55.170  18.883   5.789  1.00  0.00     0.012 C 
ENDBRANCH  17  40
BRANCH  15  43
HETATM   43  C   UNL     1      48.460  19.745   4.708  1.00  0.00     0.010 C 
HETATM   44  C   UNL     1      47.320  19.967   3.718  1.00  0.00     0.012 C 
HETATM   45  C   UNL     1      49.261  18.500   4.338  1.00  0.00     0.012 C 
ENDBRANCH  15  43
TORSDOF 6
ENDMDL
MODEL 3
REMARK VINA RESULT:    -5.562      2.013      7.682
REMARK INTER + INTRA:          -6.792
REMARK INTER:                  -7.784
REMARK INTRA:                   0.991
REMARK UNBOUND:                 0.721
REMARK  6 active torsions:
REMARK  status: ('A' for Active; 'I' for Inactive)
REMARK    1  A    between atoms: C_13  and  C_16 
REMARK    2  A    between atoms: C_14  and  C_17 
REMARK    3  A    between atoms: C_15  and  C_18 
REMARK    4  A    between atoms: C_19  and  C_22 
REMARK    5  A    between atoms: C_20  and  C_23 
REMARK    6  A    between atoms: C_21  and  C_24 
ROOT
HETATM    1  O   UNL     1      53.510  25.946   5.287  1.00  0.00    -0.304 OA
HETATM    2  O   UNL     1      52.110  23.975   9.862  1.00  0.00    -0.304 OA
HETATM    3  O   UNL     1      49.612  22.564   6.104  1.00  0.00    -0.304 OA
HETATM    4  O   UNL     1      53.732  23.737   6.625  1.00  0.00    -0.270 OA
HETATM    5  O   UNL     1      52.191  22.913   4.254  1.00  0.00    -0.270 OA
HETATM    6  O   UNL     1      49.821  21.692  10.106  1.00  0.00    -0.270 OA
HETATM    7  O   UNL     1      51.422  26.454   6.126  1.00  0.00    -0.263 OA
HETATM    8  O   UNL     1      52.777  21.814  10.296  1.00  0.00    -0.263 OA
HETATM    9  O   UNL     1      47.533  21.617   5.866  1.00  0.00    -0.263 OA
HETATM   10  N   UNL     1      54.339  24.671   8.652  1.00  0.00    -0.340 N 
HETATM   11  N   UNL     1      50.609  24.607   4.124  1.00  0.00    -0.340 N 
HETATM   12  N   UNL     1      49.202  23.378   8.627  1.00  0.00    -0.340 N 
HETATM   13  C   UNL     1      54.352  23.335   9.285  1.00  0.00     0.190 C 
HETATM   14  C   UNL     1      51.663  25.607   3.857  1.00  0.00     0.190 C 
HETATM   15  C   UNL     1      48.141  22.557   8.008  1.00  0.00     0.190 C 
HETATM   16  C   UNL     1      54.120  26.098   6.587  1.00  0.00     0.227 C 
HETATM   17  C   UNL     1      50.820  23.843  10.484  1.00  0.00     0.227 C 
HETATM   18  C   UNL     1      49.939  22.266   4.733  1.00  0.00     0.227 C 
HETATM   19  C   UNL     1      54.041  24.737   7.283  1.00  0.00     0.250 C 
HETATM   20  C   UNL     1      51.015  23.279   4.348  1.00  0.00     0.250 C 
HETATM   21  C   UNL     1      49.913  22.863   9.725  1.00  0.00     0.250 C 
HETATM   22  C   UNL     1      52.150  26.069   5.220  1.00  0.00     0.283 C 
HETATM   23  C   UNL     1      52.992  22.939   9.858  1.00  0.00     0.283 C 
HETATM   24  C   UNL     1      48.374  22.201   6.541  1.00  0.00     0.283 C 
HETATM   25  C   UNL     1      54.600  25.835   9.503  1.00  0.00     0.153 C 
HETATM   26  C   UNL     1      49.220  25.073   4.174  1.00  0.00     0.153 C 
HETATM   27  C   UNL     1      49.336  24.764   8.174  1.00  0.00     0.153 C 
ENDROOT
BRANCH  16  28
HETATM   28  C   UNL     1      55.569  26.496   6.348  1.00  0.00     0.016 C 
HETATM   29  C   UNL     1      55.991  26.168   4.917  1.00  0.00     0.012 C 
HETATM   30  C   UNL     1      55.776  27.983   6.638  1.00  0.00     0.012 C 
ENDBRANCH  16  28
BRANCH  14  31
HETATM   31  C   UNL     1      51.248  26.806   3.013  1.00  0.00     0.010 C 
HETATM   32  C   UNL     1      52.212  27.971   3.225  1.00  0.00     0.012 C 
HETATM   33  C   UNL     1      51.183  26.426   1.536  1.00  0.00     0.012 C 
ENDBRANCH  14  31
BRANCH  13  34
HETATM   34  C   UNL     1      55.429  23.172  10.357  1.00  0.00     0.010 C 
HETATM   35  C   UNL     1      56.355  22.005  10.017  1.00  0.00     0.012 C 
HETATM   36  C   UNL     1      54.798  22.971  11.733  1.00  0.00     0.012 C 
ENDBRANCH  13  34
BRANCH  18  37
HETATM   37  C   UNL     1      50.459  20.833   4.655  1.00  0.00     0.016 C 
HETATM   38  C   UNL     1      50.748  20.288   6.054  1.00  0.00     0.012 C 
HETATM   39  C   UNL     1      49.462  19.935   3.927  1.00  0.00     0.012 C 
ENDBRANCH  18  37
BRANCH  17  40
HETATM   40  C   UNL     1      50.937  23.509  11.971  1.00  0.00     0.016 C 
HETATM   41  C   UNL     1      49.584  23.658  12.663  1.00  0.00     0.012 C 
HETATM   42  C   UNL     1      51.984  24.396  12.640  1.00  0.00     0.012 C 
ENDBRANCH  17  40
BRANCH  15  43
HETATM   43  C   UNL     1      46.764  23.197   8.192  1.00  0.00     0.010 C 
HETATM   44  C   UNL     1      46.473  23.420   9.673  1.00  0.00     0.012 C 
HETATM   45  C   UNL     1      46.680  24.512   7.422  1.00  0.00     0.012 C 
ENDBRANCH  15  43
TORSDOF 6
ENDMDL
MODEL 4
REMARK VINA RESULT:    -5.455      1.957      2.393
REMARK INTER + INTRA:          -6.648
REMARK INTER:                  -7.521
REMARK INTRA:                   0.873
REMARK UNBOUND:                 0.721
REMARK  6 active torsions:
REMARK  status: ('A' for Active; 'I' for Inactive)
REMARK    1  A    between atoms: C_13  and  C_16 
REMARK    2  A    between atoms: C_14  and  C_17 
REMARK    3  A    between atoms: C_15  and  C_18 
REMARK    4  A    between atoms: C_19  and  C_22 
REMARK    5  A    between atoms: C_20  and  C_23 
REMARK    6  A    between atoms: C_21  and  C_24 
ROOT
HETATM    1  O   UNL     1      51.756  22.225   9.993  1.00  0.00    -0.304 OA
HETATM    2  O   UNL     1      50.708  23.264   5.033  1.00  0.00    -0.304 OA
HETATM    3  O   UNL     1      55.247  23.528   6.330  1.00  0.00    -0.304 OA
HETATM    4  O   UNL     1      51.943  21.095   7.668  1.00  0.00    -0.270 OA
HETATM    5  O   UNL     1      54.751  21.273   8.536  1.00  0.00    -0.270 OA
HETATM    6  O   UNL     1      53.061  23.803   2.870  1.00  0.00    -0.270 OA
HETATM    7  O   UNL     1      52.158  24.350   9.192  1.00  0.00    -0.263 OA
HETATM    8  O   UNL     1      51.184  21.600   3.514  1.00  0.00    -0.263 OA
HETATM    9  O   UNL     1      57.084  24.557   5.414  1.00  0.00    -0.263 OA
HETATM   10  N   UNL     1      49.829  21.633   6.900  1.00  0.00    -0.340 N 
HETATM   11  N   UNL     1      54.853  23.455   9.318  1.00  0.00    -0.340 N 
HETATM   12  N   UNL     1      53.465  24.910   4.876  1.00  0.00    -0.340 N 
HETATM   13  C   UNL     1      50.121  21.004   5.595  1.00  0.00     0.190 C 
HETATM   14  C   UNL     1      53.893  23.141  10.397  1.00  0.00     0.190 C 
HETATM   15  C   UNL     1      54.894  25.124   4.565  1.00  0.00     0.190 C 
HETATM   16  C   UNL     1      50.508  22.139   9.273  1.00  0.00     0.227 C 
HETATM   17  C   UNL     1      51.124  24.345   4.182  1.00  0.00     0.227 C 
HETATM   18  C   UNL     1      56.079  22.778   7.235  1.00  0.00     0.227 C 
HETATM   19  C   UNL     1      50.827  21.582   7.883  1.00  0.00     0.250 C 
HETATM   20  C   UNL     1      55.175  22.427   8.414  1.00  0.00     0.250 C 
HETATM   21  C   UNL     1      52.636  24.314   3.911  1.00  0.00     0.250 C 
HETATM   22  C   UNL     1      52.513  23.346   9.795  1.00  0.00     0.283 C 
HETATM   23  C   UNL     1      50.747  21.976   4.597  1.00  0.00     0.283 C 
HETATM   24  C   UNL     1      55.870  24.392   5.482  1.00  0.00     0.283 C 
HETATM   25  C   UNL     1      48.533  22.298   7.064  1.00  0.00     0.153 C 
HETATM   26  C   UNL     1      55.374  24.823   9.242  1.00  0.00     0.153 C 
HETATM   27  C   UNL     1      52.948  25.495   6.115  1.00  0.00     0.153 C 
ENDROOT
BRANCH  16  28
HETATM   28  C   UNL     1      49.619  21.177  10.046  1.00  0.00     0.016 C 
HETATM   29  C   UNL     1      50.442  20.025  10.622  1.00  0.00     0.012 C 
HETATM   30  C   UNL     1      48.871  21.908  11.161  1.00  0.00     0.012 C 
ENDBRANCH  16  28
BRANCH  14  31
HETATM   31  C   UNL     1      54.035  23.957  11.675  1.00  0.00     0.010 C 
HETATM   32  C   UNL     1      52.671  24.180  12.325  1.00  0.00     0.012 C 
HETATM   33  C   UNL     1      54.987  23.268  12.650  1.00  0.00     0.012 C 
ENDBRANCH  14  31
BRANCH  13  34
HETATM   34  C   UNL     1      48.914  20.317   4.957  1.00  0.00     0.010 C 
HETATM   35  C   UNL     1      49.266  18.892   4.532  1.00  0.00     0.012 C 
HETATM   36  C   UNL     1      48.404  21.120   3.762  1.00  0.00     0.012 C 
ENDBRANCH  13  34
BRANCH  18  37
HETATM   37  C   UNL     1      56.581  21.528   6.517  1.00  0.00     0.016 C 
HETATM   38  C   UNL     1      55.837  21.332   5.196  1.00  0.00     0.012 C 
HETATM   39  C   UNL     1      58.087  21.610   6.277  1.00  0.00     0.012 C 
ENDBRANCH  18  37
BRANCH  17  40
HETATM   40  C   UNL     1      50.295  24.411   2.899  1.00  0.00     0.016 C 
HETATM   41  C   UNL     1      50.794  25.535   1.994  1.00  0.00     0.012 C 
HETATM   42  C   UNL     1      48.815  24.600   3.225  1.00  0.00     0.012 C 
ENDBRANCH  17  40
BRANCH  15  43
HETATM   43  C   UNL     1      55.232  26.614   4.502  1.00  0.00     0.010 C 
HETATM   44  C   UNL     1      56.533  26.834   3.735  1.00  0.00     0.012 C 
HETATM   45  C   UNL     1      54.089  27.394   3.859  1.00  0.00     0.012 C 
ENDBRANCH  15  43
TORSDOF 6
ENDMDL
MODEL 5
REMARK VINA RESULT:    -5.289      7.343     11.817
REMARK INTER + INTRA:          -6.422
REMARK INTER:                  -7.488
REMARK INTRA:                   1.066
REMARK UNBOUND:                 0.721
REMARK  6 active torsions:
REMARK  status: ('A' for Active; 'I' for Inactive)
REMARK    1  A    between atoms: C_13  and  C_16 
REMARK    2  A    between atoms: C_14  and  C_17 
REMARK    3  A    between atoms: C_15  and  C_18 
REMARK    4  A    between atoms: C_19  and  C_22 
REMARK    5  A    between atoms: C_20  and  C_23 
REMARK    6  A    between atoms: C_21  and  C_24 
ROOT
HETATM    1  O   UNL     1      46.993  30.719   0.131  1.00  0.00    -0.304 OA
HETATM    2  O   UNL     1      45.945  28.027   4.425  1.00  0.00    -0.304 OA
HETATM    3  O   UNL     1      46.312  32.716   4.911  1.00  0.00    -0.304 OA
HETATM    4  O   UNL     1      44.980  30.190   1.676  1.00  0.00    -0.270 OA
HETATM    5  O   UNL     1      45.247  33.112   1.927  1.00  0.00    -0.270 OA
HETATM    6  O   UNL     1      45.309  29.495   7.244  1.00  0.00    -0.270 OA
HETATM    7  O   UNL     1      48.539  30.707   1.843  1.00  0.00    -0.263 OA
HETATM    8  O   UNL     1      43.762  28.069   5.156  1.00  0.00    -0.263 OA
HETATM    9  O   UNL     1      46.688  34.082   6.718  1.00  0.00    -0.263 OA
HETATM   10  N   UNL     1      45.337  27.913   1.869  1.00  0.00    -0.340 N 
HETATM   11  N   UNL     1      47.537  33.339   2.228  1.00  0.00    -0.340 N 
HETATM   12  N   UNL     1      47.113  30.476   6.151  1.00  0.00    -0.340 N 
HETATM   13  C   UNL     1      44.194  27.793   2.799  1.00  0.00     0.190 C 
HETATM   14  C   UNL     1      47.794  32.811   0.872  1.00  0.00     0.190 C 
HETATM   15  C   UNL     1      47.045  31.705   6.968  1.00  0.00     0.190 C 
HETATM   16  C   UNL     1      46.727  29.309   0.299  1.00  0.00     0.227 C 
HETATM   17  C   UNL     1      46.527  28.074   5.739  1.00  0.00     0.227 C 
HETATM   18  C   UNL     1      45.939  33.844   4.097  1.00  0.00     0.227 C 
HETATM   19  C   UNL     1      45.612  29.182   1.340  1.00  0.00     0.250 C 
HETATM   20  C   UNL     1      46.199  33.403   2.658  1.00  0.00     0.250 C 
HETATM   21  C   UNL     1      46.246  29.409   6.445  1.00  0.00     0.250 C 
HETATM   22  C   UNL     1      47.852  31.300   1.021  1.00  0.00     0.283 C 
HETATM   23  C   UNL     1      44.595  27.995   4.259  1.00  0.00     0.283 C 
HETATM   24  C   UNL     1      46.680  32.972   6.197  1.00  0.00     0.283 C 
HETATM   25  C   UNL     1      46.125  26.708   1.594  1.00  0.00     0.153 C 
HETATM   26  C   UNL     1      48.692  33.725   3.043  1.00  0.00     0.153 C 
HETATM   27  C   UNL     1      48.209  30.365   5.186  1.00  0.00     0.153 C 
ENDROOT
BRANCH  16  28
HETATM   28  C   UNL     1      46.265  28.784  -1.052  1.00  0.00     0.016 C 
HETATM   29  C   UNL     1      45.775  29.930  -1.937  1.00  0.00     0.012 C 
HETATM   30  C   UNL     1      47.388  28.015  -1.747  1.00  0.00     0.012 C 
ENDBRANCH  16  28
BRANCH  14  31
HETATM   31  C   UNL     1      49.055  33.321   0.185  1.00  0.00     0.010 C 
HETATM   32  C   UNL     1      49.483  32.367  -0.928  1.00  0.00     0.012 C 
HETATM   33  C   UNL     1      48.833  34.726  -0.369  1.00  0.00     0.012 C 
ENDBRANCH  14  31
BRANCH  13  34
HETATM   34  C   UNL     1      43.417  26.485   2.655  1.00  0.00     0.010 C 
HETATM   35  C   UNL     1      42.201  26.677   1.750  1.00  0.00     0.012 C 
HETATM   36  C   UNL     1      42.988  25.957   4.022  1.00  0.00     0.012 C 
ENDBRANCH  13  34
BRANCH  18  37
HETATM   37  C   UNL     1      44.463  34.151   4.334  1.00  0.00     0.016 C 
HETATM   38  C   UNL     1      43.796  33.018   5.115  1.00  0.00     0.012 C 
HETATM   39  C   UNL     1      44.298  35.478   5.071  1.00  0.00     0.012 C 
ENDBRANCH  18  37
BRANCH  17  40
HETATM   40  C   UNL     1      46.123  26.865   6.583  1.00  0.00     0.016 C 
HETATM   41  C   UNL     1      46.993  26.767   7.834  1.00  0.00     0.012 C 
HETATM   42  C   UNL     1      46.219  25.581   5.761  1.00  0.00     0.012 C 
ENDBRANCH  17  40
BRANCH  15  43
HETATM   43  C   UNL     1      48.333  31.915   7.765  1.00  0.00     0.010 C 
HETATM   44  C   UNL     1      48.776  30.609   8.418  1.00  0.00     0.012 C 
HETATM   45  C   UNL     1      49.433  32.468   6.864  1.00  0.00     0.012 C 
ENDBRANCH  15  43
TORSDOF 6
ENDMDL
MODEL 6
REMARK VINA RESULT:    -5.225      2.719      5.817
REMARK INTER + INTRA:          -6.336
REMARK INTER:                  -7.390
REMARK INTRA:                   1.054
REMARK UNBOUND:                 0.721
REMARK  6 active torsions:
REMARK  status: ('A' for Active; 'I' for Inactive)
REMARK    1  A    between atoms: C_13  and  C_16 
REMARK    2  A    between atoms: C_14  and  C_17 
REMARK    3  A    between atoms: C_15  and  C_18 
REMARK    4  A    between atoms: C_19  and  C_22 
REMARK    5  A    between atoms: C_20  and  C_23 
REMARK    6  A    between atoms: C_21  and  C_24 
ROOT
HETATM    1  O   UNL     1      53.424  26.896   6.372  1.00  0.00    -0.304 OA
HETATM    2  O   UNL     1      52.435  21.853   5.756  1.00  0.00    -0.304 OA
HETATM    3  O   UNL     1      55.285  23.021   9.343  1.00  0.00    -0.304 OA
HETATM    4  O   UNL     1      51.974  25.033   7.443  1.00  0.00    -0.270 OA
HETATM    5  O   UNL     1      53.766  25.814   9.645  1.00  0.00    -0.270 OA
HETATM    6  O   UNL     1      53.492  19.638   7.873  1.00  0.00    -0.270 OA
HETATM    7  O   UNL     1      55.160  25.479   5.828  1.00  0.00    -0.263 OA
HETATM    8  O   UNL     1      50.905  20.923   7.205  1.00  0.00    -0.263 OA
HETATM    9  O   UNL     1      56.815  21.838  10.582  1.00  0.00    -0.263 OA
HETATM   10  N   UNL     1      51.145  24.130   5.482  1.00  0.00    -0.340 N 
HETATM   11  N   UNL     1      55.818  25.884   8.564  1.00  0.00    -0.340 N 
HETATM   12  N   UNL     1      55.137  21.206   7.373  1.00  0.00    -0.340 N 
HETATM   13  C   UNL     1      50.430  23.083   6.243  1.00  0.00     0.190 C 
HETATM   14  C   UNL     1      55.362  27.004   7.714  1.00  0.00     0.190 C 
HETATM   15  C   UNL     1      55.951  20.848   8.554  1.00  0.00     0.190 C 
HETATM   16  C   UNL     1      52.532  26.233   5.450  1.00  0.00     0.227 C 
HETATM   17  C   UNL     1      53.308  20.712   5.733  1.00  0.00     0.227 C 
HETATM   18  C   UNL     1      55.329  24.117  10.277  1.00  0.00     0.227 C 
HETATM   19  C   UNL     1      51.868  25.083   6.212  1.00  0.00     0.250 C 
HETATM   20  C   UNL     1      54.896  25.344   9.478  1.00  0.00     0.250 C 
HETATM   21  C   UNL     1      53.973  20.468   7.096  1.00  0.00     0.250 C 
HETATM   22  C   UNL     1      54.674  26.363   6.520  1.00  0.00     0.283 C 
HETATM   23  C   UNL     1      51.280  21.836   6.476  1.00  0.00     0.283 C 
HETATM   24  C   UNL     1      56.085  21.950   9.602  1.00  0.00     0.283 C 
HETATM   25  C   UNL     1      51.081  24.076   4.019  1.00  0.00     0.153 C 
HETATM   26  C   UNL     1      57.185  25.391   8.371  1.00  0.00     0.153 C 
HETATM   27  C   UNL     1      55.685  22.201   6.450  1.00  0.00     0.153 C 
ENDROOT
BRANCH  16  28
HETATM   28  C   UNL     1      51.498  27.262   5.020  1.00  0.00     0.016 C 
HETATM   29  C   UNL     1      51.772  28.612   5.683  1.00  0.00     0.012 C 
HETATM   30  C   UNL     1      51.479  27.408   3.499  1.00  0.00     0.012 C 
ENDBRANCH  16  28
BRANCH  14  31
HETATM   31  C   UNL     1      56.443  27.969   7.243  1.00  0.00     0.010 C 
HETATM   32  C   UNL     1      55.897  28.900   6.163  1.00  0.00     0.012 C 
HETATM   33  C   UNL     1      56.993  28.774   8.418  1.00  0.00     0.012 C 
ENDBRANCH  14  31
BRANCH  13  34
HETATM   34  C   UNL     1      49.088  22.684   5.630  1.00  0.00     0.010 C 
HETATM   35  C   UNL     1      47.953  22.900   6.631  1.00  0.00     0.012 C 
HETATM   36  C   UNL     1      49.118  21.232   5.161  1.00  0.00     0.012 C 
ENDBRANCH  13  34
BRANCH  18  37
HETATM   37  C   UNL     1      54.364  23.821  11.423  1.00  0.00     0.016 C 
HETATM   38  C   UNL     1      53.305  22.808  10.987  1.00  0.00     0.012 C 
HETATM   39  C   UNL     1      55.120  23.312  12.648  1.00  0.00     0.012 C 
ENDBRANCH  18  37
BRANCH  17  40
HETATM   40  C   UNL     1      52.604  19.468   5.189  1.00  0.00     0.016 C 
HETATM   41  C   UNL     1      53.584  18.303   5.073  1.00  0.00     0.012 C 
HETATM   42  C   UNL     1      51.959  19.765   3.837  1.00  0.00     0.012 C 
ENDBRANCH  17  40
BRANCH  15  43
HETATM   43  C   UNL     1      57.329  20.330   8.142  1.00  0.00     0.010 C 
HETATM   44  C   UNL     1      58.351  21.463   8.155  1.00  0.00     0.012 C 
HETATM   45  C   UNL     1      57.770  19.196   9.063  1.00  0.00     0.012 C 
ENDBRANCH  15  43
TORSDOF 6
ENDMDL
MODEL 7
REMARK VINA RESULT:    -5.216      2.343      7.310
REMARK INTER + INTRA:          -6.325
REMARK INTER:                  -7.230
REMARK INTRA:                   0.905
REMARK UNBOUND:                 0.721
REMARK  6 active torsions:
REMARK  status: ('A' for Active; 'I' for Inactive)
REMARK    1  A    between atoms: C_13  and  C_16 
REMARK    2  A    between atoms: C_14  and  C_17 
REMARK    3  A    between atoms: C_15  and  C_18 
REMARK    4  A    between atoms: C_19  and  C_22 
REMARK    5  A    between atoms: C_20  and  C_23 
REMARK    6  A    between atoms: C_21  and  C_24 
ROOT
HETATM    1  O   UNL     1      52.926  24.390   5.684  1.00  0.00    -0.304 OA
HETATM    2  O   UNL     1      49.243  23.865   9.281  1.00  0.00    -0.304 OA
HETATM    3  O   UNL     1      47.791  24.980   4.921  1.00  0.00    -0.304 OA
HETATM    4  O   UNL     1      51.122  22.678   6.413  1.00  0.00    -0.270 OA
HETATM    5  O   UNL     1      50.275  23.399   3.686  1.00  0.00    -0.270 OA
HETATM    6  O   UNL     1      46.093  24.026   8.531  1.00  0.00    -0.270 OA
HETATM    7  O   UNL     1      51.668  26.233   6.266  1.00  0.00    -0.263 OA
HETATM    8  O   UNL     1      48.038  21.903   9.237  1.00  0.00    -0.263 OA
HETATM    9  O   UNL     1      45.856  25.903   4.099  1.00  0.00    -0.263 OA
HETATM   10  N   UNL     1      51.545  22.742   8.685  1.00  0.00    -0.340 N 
HETATM   11  N   UNL     1      50.468  25.711   3.743  1.00  0.00    -0.340 N 
HETATM   12  N   UNL     1      47.319  25.691   7.464  1.00  0.00    -0.340 N 
HETATM   13  C   UNL     1      50.430  21.806   8.939  1.00  0.00     0.190 C 
HETATM   14  C   UNL     1      51.930  25.611   3.928  1.00  0.00     0.190 C 
HETATM   15  C   UNL     1      46.248  25.964   6.483  1.00  0.00     0.190 C 
HETATM   16  C   UNL     1      53.030  23.968   7.061  1.00  0.00     0.227 C 
HETATM   17  C   UNL     1      48.124  24.701   9.621  1.00  0.00     0.227 C 
HETATM   18  C   UNL     1      48.216  24.612   3.595  1.00  0.00     0.227 C 
HETATM   19  C   UNL     1      51.817  23.080   7.353  1.00  0.00     0.250 C 
HETATM   20  C   UNL     1      49.737  24.511   3.675  1.00  0.00     0.250 C 
HETATM   21  C   UNL     1      47.085  24.760   8.491  1.00  0.00     0.250 C 
HETATM   22  C   UNL     1      52.150  25.485   5.426  1.00  0.00     0.283 C 
HETATM   23  C   UNL     1      49.096  22.519   9.152  1.00  0.00     0.283 C 
HETATM   24  C   UNL     1      46.601  25.632   5.035  1.00  0.00     0.283 C 
HETATM   25  C   UNL     1      52.264  23.280   9.844  1.00  0.00     0.153 C 
HETATM   26  C   UNL     1      49.875  27.050   3.679  1.00  0.00     0.153 C 
HETATM   27  C   UNL     1      48.509  26.542   7.420  1.00  0.00     0.153 C 
ENDROOT
BRANCH  16  28
HETATM   28  C   UNL     1      54.321  23.172   7.182  1.00  0.00     0.016 C 
HETATM   29  C   UNL     1      54.862  22.809   5.799  1.00  0.00     0.012 C 
HETATM   30  C   UNL     1      55.366  23.955   7.976  1.00  0.00     0.012 C 
ENDBRANCH  16  28
BRANCH  14  31
HETATM   31  C   UNL     1      52.754  26.766   3.371  1.00  0.00     0.010 C 
HETATM   32  C   UNL     1      54.122  26.825   4.047  1.00  0.00     0.012 C 
HETATM   33  C   UNL     1      52.910  26.633   1.858  1.00  0.00     0.012 C 
ENDBRANCH  14  31
BRANCH  13  34
HETATM   34  C   UNL     1      50.687  20.839  10.095  1.00  0.00     0.010 C 
HETATM   35  C   UNL     1      51.031  19.447   9.567  1.00  0.00     0.012 C 
HETATM   36  C   UNL     1      49.478  20.775  11.026  1.00  0.00     0.012 C 
ENDBRANCH  13  34
BRANCH  18  37
HETATM   37  C   UNL     1      47.580  23.273   3.232  1.00  0.00     0.016 C 
HETATM   38  C   UNL     1      46.936  22.631   4.461  1.00  0.00     0.012 C 
HETATM   39  C   UNL     1      46.550  23.448   2.118  1.00  0.00     0.012 C 
ENDBRANCH  18  37
BRANCH  17  40
HETATM   40  C   UNL     1      47.511  24.311  10.966  1.00  0.00     0.016 C 
HETATM   41  C   UNL     1      46.515  25.371  11.431  1.00  0.00     0.012 C 
HETATM   42  C   UNL     1      48.603  24.103  12.014  1.00  0.00     0.012 C 
ENDBRANCH  17  40
BRANCH  15  43
HETATM   43  C   UNL     1      45.744  27.403   6.595  1.00  0.00     0.010 C 
HETATM   44  C   UNL     1      46.472  28.303   5.600  1.00  0.00     0.012 C 
HETATM   45  C   UNL     1      44.236  27.460   6.370  1.00  0.00     0.012 C 
ENDBRANCH  15  43
TORSDOF 6
ENDMDL
MODEL 8
REMARK VINA RESULT:    -4.984      3.217      6.241
REMARK INTER + INTRA:          -6.011
REMARK INTER:                  -7.111
REMARK INTRA:                   1.101
REMARK UNBOUND:                 0.721
REMARK  6 active torsions:
REMARK  status: ('A' for Active; 'I' for Inactive)
REMARK    1  A    between atoms: C_13  and  C_16 
REMARK    2  A    between atoms: C_14  and  C_17 
REMARK    3  A    between atoms: C_15  and  C_18 
REMARK    4  A    between atoms: C_19  and  C_22 
REMARK    5  A    between atoms: C_20  and  C_23 
REMARK    6  A    between atoms: C_21  and  C_24 
ROOT
HETATM    1  O   UNL     1      57.916  22.963   9.148  1.00  0.00    -0.304 OA
HETATM    2  O   UNL     1      52.962  23.039   7.650  1.00  0.00    -0.304 OA
HETATM    3  O   UNL     1      55.521  19.303   6.290  1.00  0.00    -0.304 OA
HETATM    4  O   UNL     1      55.658  21.851   9.769  1.00  0.00    -0.270 OA
HETATM    5  O   UNL     1      57.305  19.560   8.925  1.00  0.00    -0.270 OA
HETATM    6  O   UNL     1      51.614  20.536   6.094  1.00  0.00    -0.270 OA
HETATM    7  O   UNL     1      57.436  23.095   6.896  1.00  0.00    -0.263 OA
HETATM    8  O   UNL     1      51.515  21.687   8.824  1.00  0.00    -0.263 OA
HETATM    9  O   UNL     1      55.254  17.738   4.630  1.00  0.00    -0.263 OA
HETATM   10  N   UNL     1      54.363  23.767   9.754  1.00  0.00    -0.340 N 
HETATM   11  N   UNL     1      58.255  20.374   6.971  1.00  0.00    -0.340 N 
HETATM   12  N   UNL     1      53.733  21.023   5.268  1.00  0.00    -0.340 N 
HETATM   13  C   UNL     1      53.150  22.973  10.044  1.00  0.00     0.190 C 
HETATM   14  C   UNL     1      58.985  21.413   7.727  1.00  0.00     0.190 C 
HETATM   15  C   UNL     1      53.862  19.713   4.596  1.00  0.00     0.190 C 
HETATM   16  C   UNL     1      56.863  23.897   9.474  1.00  0.00     0.227 C 
HETATM   17  C   UNL     1      52.356  22.804   6.369  1.00  0.00     0.227 C 
HETATM   18  C   UNL     1      56.563  18.521   6.903  1.00  0.00     0.227 C 
HETATM   19  C   UNL     1      55.583  23.082   9.674  1.00  0.00     0.250 C 
HETATM   20  C   UNL     1      57.402  19.522   7.695  1.00  0.00     0.250 C 
HETATM   21  C   UNL     1      52.526  21.348   5.911  1.00  0.00     0.250 C 
HETATM   22  C   UNL     1      58.032  22.591   7.838  1.00  0.00     0.283 C 
HETATM   23  C   UNL     1      52.454  22.475   8.779  1.00  0.00     0.283 C 
HETATM   24  C   UNL     1      54.959  18.809   5.152  1.00  0.00     0.283 C 
HETATM   25  C   UNL     1      54.202  25.208   9.535  1.00  0.00     0.153 C 
HETATM   26  C   UNL     1      58.441  20.327   5.518  1.00  0.00     0.153 C 
HETATM   27  C   UNL     1      54.815  21.992   5.074  1.00  0.00     0.153 C 
ENDROOT
BRANCH  16  28
HETATM   28  C   UNL     1      57.271  24.584  10.770  1.00  0.00     0.016 C 
HETATM   29  C   UNL     1      57.290  23.586  11.927  1.00  0.00     0.012 C 
HETATM   30  C   UNL     1      58.636  25.254  10.620  1.00  0.00     0.012 C 
ENDBRANCH  16  28
BRANCH  14  31
HETATM   31  C   UNL     1      60.312  21.864   7.130  1.00  0.00     0.010 C 
HETATM   32  C   UNL     1      60.728  23.216   7.707  1.00  0.00     0.012 C 
HETATM   33  C   UNL     1      61.397  20.819   7.379  1.00  0.00     0.012 C 
ENDBRANCH  14  31
BRANCH  13  34
HETATM   34  C   UNL     1      52.141  23.694  10.937  1.00  0.00     0.010 C 
HETATM   35  C   UNL     1      52.802  24.154  12.236  1.00  0.00     0.012 C 
HETATM   36  C   UNL     1      50.944  22.793  11.237  1.00  0.00     0.012 C 
ENDBRANCH  13  34
BRANCH  18  37
HETATM   37  C   UNL     1      55.921  17.478   7.813  1.00  0.00     0.016 C 
HETATM   38  C   UNL     1      54.452  17.817   8.068  1.00  0.00     0.012 C 
HETATM   39  C   UNL     1      56.051  16.081   7.211  1.00  0.00     0.012 C 
ENDBRANCH  18  37
BRANCH  17  40
HETATM   40  C   UNL     1      50.899  23.266   6.336  1.00  0.00     0.016 C 
HETATM   41  C   UNL     1      50.372  23.281   4.903  1.00  0.00     0.012 C 
HETATM   42  C   UNL     1      50.759  24.646   6.975  1.00  0.00     0.012 C 
ENDBRANCH  17  40
BRANCH  15  43
HETATM   43  C   UNL     1      54.018  19.877   3.084  1.00  0.00     0.010 C 
HETATM   44  C   UNL     1      55.472  19.666   2.672  1.00  0.00     0.012 C 
HETATM   45  C   UNL     1      53.102  18.906   2.345  1.00  0.00     0.012 C 
ENDBRANCH  15  43
TORSDOF 6
ENDMDL
MODEL 9
REMARK VINA RESULT:    -4.952      8.807     12.843
REMARK INTER + INTRA:          -5.968
REMARK INTER:                  -6.949
REMARK INTRA:                   0.981
REMARK UNBOUND:                 0.721
REMARK  6 active torsions:
REMARK  status: ('A' for Active; 'I' for Inactive)
REMARK    1  A    between atoms: C_13  and  C_16 
REMARK    2  A    between atoms: C_14  and  C_17 
REMARK    3  A    between atoms: C_15  and  C_18 
REMARK    4  A    between atoms: C_19  and  C_22 
REMARK    5  A    between atoms: C_20  and  C_23 
REMARK    6  A    between atoms: C_21  and  C_24 
ROOT
HETATM    1  O   UNL     1      50.584  32.840   1.211  1.00  0.00    -0.304 OA
HETATM    2  O   UNL     1      46.018  34.687   2.800  1.00  0.00    -0.304 OA
HETATM    3  O   UNL     1      47.844  31.123   5.315  1.00  0.00    -0.304 OA
HETATM    4  O   UNL     1      49.622  34.357   3.079  1.00  0.00    -0.270 OA
HETATM    5  O   UNL     1      50.790  32.118   4.593  1.00  0.00    -0.270 OA
HETATM    6  O   UNL     1      44.613  33.640   5.527  1.00  0.00    -0.270 OA
HETATM    7  O   UNL     1      48.737  31.461   1.131  1.00  0.00    -0.263 OA
HETATM    8  O   UNL     1      46.056  36.073   4.639  1.00  0.00    -0.263 OA
HETATM    9  O   UNL     1      46.932  29.606   6.779  1.00  0.00    -0.263 OA
HETATM   10  N   UNL     1      48.232  35.636   1.744  1.00  0.00    -0.340 N 
HETATM   11  N   UNL     1      50.010  30.294   3.389  1.00  0.00    -0.340 N 
HETATM   12  N   UNL     1      45.488  31.882   4.280  1.00  0.00    -0.340 N 
HETATM   13  C   UNL     1      47.732  36.365   2.929  1.00  0.00     0.190 C 
HETATM   14  C   UNL     1      50.788  30.709   2.204  1.00  0.00     0.190 C 
HETATM   15  C   UNL     1      45.447  30.945   5.422  1.00  0.00     0.190 C 
HETATM   16  C   UNL     1      49.821  33.967   0.727  1.00  0.00     0.227 C 
HETATM   17  C   UNL     1      44.799  34.017   3.163  1.00  0.00     0.227 C 
HETATM   18  C   UNL     1      49.177  30.752   5.712  1.00  0.00     0.227 C 
HETATM   19  C   UNL     1      49.218  34.662   1.951  1.00  0.00     0.250 C 
HETATM   20  C   UNL     1      50.066  31.119   4.526  1.00  0.00     0.250 C 
HETATM   21  C   UNL     1      44.962  33.176   4.438  1.00  0.00     0.250 C 
HETATM   22  C   UNL     1      49.900  31.681   1.445  1.00  0.00     0.283 C 
HETATM   23  C   UNL     1      46.520  35.690   3.570  1.00  0.00     0.283 C 
HETATM   24  C   UNL     1      46.811  30.465   5.911  1.00  0.00     0.283 C 
HETATM   25  C   UNL     1      47.638  35.955   0.443  1.00  0.00     0.153 C 
HETATM   26  C   UNL     1      49.206  29.072   3.287  1.00  0.00     0.153 C 
HETATM   27  C   UNL     1      45.915  31.352   2.984  1.00  0.00     0.153 C 
ENDROOT
BRANCH  16  28
HETATM   28  C   UNL     1      50.801  34.887   0.014  1.00  0.00     0.016 C 
HETATM   29  C   UNL     1      52.235  34.590   0.448  1.00  0.00     0.012 C 
HETATM   30  C   UNL     1      50.663  34.753  -1.502  1.00  0.00     0.012 C 
ENDBRANCH  16  28
BRANCH  14  31
HETATM   31  C   UNL     1      51.250  29.588   1.281  1.00  0.00     0.010 C 
HETATM   32  C   UNL     1      51.568  30.133  -0.109  1.00  0.00     0.012 C 
HETATM   33  C   UNL     1      52.465  28.875   1.869  1.00  0.00     0.012 C 
ENDBRANCH  14  31
BRANCH  13  34
HETATM   34  C   UNL     1      47.420  37.837   2.661  1.00  0.00     0.010 C 
HETATM   35  C   UNL     1      48.678  38.691   2.813  1.00  0.00     0.012 C 
HETATM   36  C   UNL     1      46.319  38.335   3.595  1.00  0.00     0.012 C 
ENDBRANCH  13  34
BRANCH  18  37
HETATM   37  C   UNL     1      49.552  31.542   6.963  1.00  0.00     0.016 C 
HETATM   38  C   UNL     1      48.586  32.708   7.173  1.00  0.00     0.012 C 
HETATM   39  C   UNL     1      49.568  30.634   8.191  1.00  0.00     0.012 C 
ENDBRANCH  18  37
BRANCH  17  40
HETATM   40  C   UNL     1      43.620  34.987   3.242  1.00  0.00     0.016 C 
HETATM   41  C   UNL     1      42.301  34.223   3.335  1.00  0.00     0.012 C 
HETATM   42  C   UNL     1      43.614  35.925   2.037  1.00  0.00     0.012 C 
ENDBRANCH  17  40
BRANCH  15  43
HETATM   43  C   UNL     1      44.534  29.753   5.130  1.00  0.00     0.010 C 
HETATM   44  C   UNL     1      45.348  28.572   4.609  1.00  0.00     0.012 C 
HETATM   45  C   UNL     1      43.753  29.360   6.380  1.00  0.00     0.012 C 
ENDBRANCH  15  43
TORSDOF 6
ENDMDL
MODEL 10
REMARK VINA RESULT:    -4.894      2.427      5.271
REMARK INTER + INTRA:          -5.890
REMARK INTER:                  -6.588
REMARK INTRA:                   0.698
REMARK UNBOUND:                 0.721
REMARK  6 active torsions:
REMARK  status: ('A' for Active; 'I' for Inactive)
REMARK    1  A    between atoms: C_13  and  C_16 
REMARK    2  A    between atoms: C_14  and  C_17 
REMARK    3  A    between atoms: C_15  and  C_18 
REMARK    4  A    between atoms: C_19  and  C_22 
REMARK    5  A    between atoms: C_20  and  C_23 
REMARK    6  A    between atoms: C_21  and  C_24 
ROOT
HETATM    1  O   UNL     1      49.260  23.917   7.774  1.00  0.00    -0.304 OA
HETATM    2  O   UNL     1      53.508  26.380   6.139  1.00  0.00    -0.304 OA
HETATM    3  O   UNL     1      54.185  22.302   8.434  1.00  0.00    -0.304 OA
HETATM    4  O   UNL     1      51.022  23.749   5.880  1.00  0.00    -0.270 OA
HETATM    5  O   UNL     1      51.388  21.218   7.340  1.00  0.00    -0.270 OA
HETATM    6  O   UNL     1      56.458  25.069   6.434  1.00  0.00    -0.270 OA
HETATM    7  O   UNL     1      50.755  24.716   9.338  1.00  0.00    -0.263 OA
HETATM    8  O   UNL     1      54.515  25.543   4.245  1.00  0.00    -0.263 OA
HETATM    9  O   UNL     1      55.997  21.388   9.508  1.00  0.00    -0.263 OA
HETATM   10  N   UNL     1      51.049  25.986   5.292  1.00  0.00    -0.340 N 
HETATM   11  N   UNL     1      51.402  21.956   9.540  1.00  0.00    -0.340 N 
HETATM   12  N   UNL     1      55.193  24.787   8.366  1.00  0.00    -0.340 N 
HETATM   13  C   UNL     1      52.111  25.732   4.296  1.00  0.00     0.190 C 
HETATM   14  C   UNL     1      49.999  22.404   9.427  1.00  0.00     0.190 C 
HETATM   15  C   UNL     1      56.075  23.721   8.885  1.00  0.00     0.190 C 
HETATM   16  C   UNL     1      49.388  25.112   6.973  1.00  0.00     0.227 C 
HETATM   17  C   UNL     1      54.737  26.700   6.813  1.00  0.00     0.227 C 
HETATM   18  C   UNL     1      53.485  21.044   8.477  1.00  0.00     0.227 C 
HETATM   19  C   UNL     1      50.556  24.887   6.009  1.00  0.00     0.250 C 
HETATM   20  C   UNL     1      52.004  21.406   8.394  1.00  0.00     0.250 C 
HETATM   21  C   UNL     1      55.541  25.442   7.172  1.00  0.00     0.250 C 
HETATM   22  C   UNL     1      50.060  23.819   8.877  1.00  0.00     0.283 C 
HETATM   23  C   UNL     1      53.515  25.854   4.885  1.00  0.00     0.283 C 
HETATM   24  C   UNL     1      55.424  22.344   8.996  1.00  0.00     0.283 C 
HETATM   25  C   UNL     1      50.612  27.371   5.489  1.00  0.00     0.153 C 
HETATM   26  C   UNL     1      52.080  22.147  10.825  1.00  0.00     0.153 C 
HETATM   27  C   UNL     1      54.090  25.230   9.222  1.00  0.00     0.153 C 
ENDROOT
BRANCH  16  28
HETATM   28  C   UNL     1      48.082  25.271   6.208  1.00  0.00     0.016 C 
HETATM   29  C   UNL     1      47.346  23.935   6.114  1.00  0.00     0.012 C 
HETATM   30  C   UNL     1      47.194  26.325   6.867  1.00  0.00     0.012 C 
ENDBRANCH  16  28
BRANCH  14  31
HETATM   31  C   UNL     1      49.182  22.374  10.712  1.00  0.00     0.010 C 
HETATM   32  C   UNL     1      47.919  23.219  10.566  1.00  0.00     0.012 C 
HETATM   33  C   UNL     1      48.826  20.939  11.089  1.00  0.00     0.012 C 
ENDBRANCH  14  31
BRANCH  13  34
HETATM   34  C   UNL     1      52.001  26.599   3.043  1.00  0.00     0.010 C 
HETATM   35  C   UNL     1      52.015  25.733   1.784  1.00  0.00     0.012 C 
HETATM   36  C   UNL     1      53.128  27.628   2.996  1.00  0.00     0.012 C 
ENDBRANCH  13  34
BRANCH  18  37
HETATM   37  C   UNL     1      53.927  20.198   7.285  1.00  0.00     0.016 C 
HETATM   38  C   UNL     1      54.768  21.029   6.317  1.00  0.00     0.012 C 
HETATM   39  C   UNL     1      54.705  18.970   7.753  1.00  0.00     0.012 C 
ENDBRANCH  18  37
BRANCH  17  40
HETATM   40  C   UNL     1      55.561  27.726   6.035  1.00  0.00     0.016 C 
HETATM   41  C   UNL     1      56.849  28.061   6.785  1.00  0.00     0.012 C 
HETATM   42  C   UNL     1      54.744  28.990   5.779  1.00  0.00     0.012 C 
ENDBRANCH  17  40
BRANCH  15  43
HETATM   43  C   UNL     1      56.708  24.123  10.218  1.00  0.00     0.010 C 
HETATM   44  C   UNL     1      56.022  23.401  11.374  1.00  0.00     0.012 C 
HETATM   45  C   UNL     1      58.205  23.826  10.208  1.00  0.00     0.012 C 
ENDBRANCH  15  43
TORSDOF 6
ENDMDL
MODEL 11
REMARK VINA RESULT:    -4.864      2.069      6.075
REMARK INTER + INTRA:          -5.849
REMARK INTER:                  -6.736
REMARK INTRA:                   0.888
REMARK UNBOUND:                 0.721
REMARK  6 active torsions:
REMARK  status: ('A' for Active; 'I' for Inactive)
REMARK    1  A    between atoms: C_13  and  C_16 
REMARK    2  A    between atoms: C_14  and  C_17 
REMARK    3  A    between atoms: C_15  and  C_18 
REMARK    4  A    between atoms: C_19  and  C_22 
REMARK    5  A    between atoms: C_20  and  C_23 
REMARK    6  A    between atoms: C_21  and  C_24 
ROOT
HETATM    1  O   UNL     1      53.588  19.388   5.065  1.00  0.00    -0.304 OA
HETATM    2  O   UNL     1      49.613  22.267   6.708  1.00  0.00    -0.304 OA
HETATM    3  O   UNL     1      53.903  23.515   8.254  1.00  0.00    -0.304 OA
HETATM    4  O   UNL     1      52.510  21.698   4.597  1.00  0.00    -0.270 OA
HETATM    5  O   UNL     1      55.201  22.415   5.553  1.00  0.00    -0.270 OA
HETATM    6  O   UNL     1      50.064  24.941   8.483  1.00  0.00    -0.270 OA
HETATM    7  O   UNL     1      53.083  19.409   7.316  1.00  0.00    -0.263 OA
HETATM    8  O   UNL     1      49.331  24.308   5.681  1.00  0.00    -0.263 OA
HETATM    9  O   UNL     1      54.625  24.779  10.030  1.00  0.00    -0.263 OA
HETATM   10  N   UNL     1      50.308  20.993   4.514  1.00  0.00    -0.340 N 
HETATM   11  N   UNL     1      55.408  21.042   7.412  1.00  0.00    -0.340 N 
HETATM   12  N   UNL     1      51.415  23.190   9.205  1.00  0.00    -0.340 N 
HETATM   13  C   UNL     1      49.849  22.385   4.321  1.00  0.00     0.190 C 
HETATM   14  C   UNL     1      55.357  19.835   6.561  1.00  0.00     0.190 C 
HETATM   15  C   UNL     1      52.311  24.087   9.965  1.00  0.00     0.190 C 
HETATM   16  C   UNL     1      52.190  19.329   4.705  1.00  0.00     0.227 C 
HETATM   17  C   UNL     1      49.255  22.728   8.022  1.00  0.00     0.227 C 
HETATM   18  C   UNL     1      55.218  23.532   7.667  1.00  0.00     0.227 C 
HETATM   19  C   UNL     1      51.690  20.773   4.606  1.00  0.00     0.250 C 
HETATM   20  C   UNL     1      55.277  22.291   6.779  1.00  0.00     0.250 C 
HETATM   21  C   UNL     1      50.278  23.729   8.578  1.00  0.00     0.250 C 
HETATM   22  C   UNL     1      53.883  19.508   6.394  1.00  0.00     0.283 C 
HETATM   23  C   UNL     1      49.584  23.109   5.639  1.00  0.00     0.283 C 
HETATM   24  C   UNL     1      53.743  24.162   9.442  1.00  0.00     0.283 C 
HETATM   25  C   UNL     1      49.289  19.946   4.633  1.00  0.00     0.153 C 
HETATM   26  C   UNL     1      55.554  20.853   8.859  1.00  0.00     0.153 C 
HETATM   27  C   UNL     1      51.665  21.750   9.294  1.00  0.00     0.153 C 
ENDROOT
BRANCH  16  28
HETATM   28  C   UNL     1      52.113  18.638   3.352  1.00  0.00     0.016 C 
HETATM   29  C   UNL     1      53.470  18.673   2.650  1.00  0.00     0.012 C 
HETATM   30  C   UNL     1      51.628  17.197   3.507  1.00  0.00     0.012 C 
ENDBRANCH  16  28
BRANCH  14  31
HETATM   31  C   UNL     1      56.111  18.618   7.082  1.00  0.00     0.010 C 
HETATM   32  C   UNL     1      55.527  17.334   6.496  1.00  0.00     0.012 C 
HETATM   33  C   UNL     1      57.598  18.727   6.756  1.00  0.00     0.012 C 
ENDBRANCH  14  31
BRANCH  13  34
HETATM   34  C   UNL     1      48.629  22.511   3.409  1.00  0.00     0.010 C 
HETATM   35  C   UNL     1      48.907  23.488   2.268  1.00  0.00     0.012 C 
HETATM   36  C   UNL     1      47.403  22.953   4.205  1.00  0.00     0.012 C 
ENDBRANCH  13  34
BRANCH  18  37
HETATM   37  C   UNL     1      55.374  24.815   6.855  1.00  0.00     0.016 C 
HETATM   38  C   UNL     1      54.023  25.506   6.675  1.00  0.00     0.012 C 
HETATM   39  C   UNL     1      56.373  25.758   7.521  1.00  0.00     0.012 C 
ENDBRANCH  18  37
BRANCH  17  40
HETATM   40  C   UNL     1      47.823  23.261   8.066  1.00  0.00     0.016 C 
HETATM   41  C   UNL     1      47.421  23.601   9.499  1.00  0.00     0.012 C 
HETATM   42  C   UNL     1      46.853  22.247   7.462  1.00  0.00     0.012 C 
ENDBRANCH  17  40
BRANCH  15  43
HETATM   43  C   UNL     1      52.302  23.747  11.456  1.00  0.00     0.010 C 
HETATM   44  C   UNL     1      53.147  24.751  12.237  1.00  0.00     0.012 C 
HETATM   45  C   UNL     1      50.873  23.716  11.988  1.00  0.00     0.012 C 
ENDBRANCH  15  43
TORSDOF 6
ENDMDL
MODEL 12
REMARK VINA RESULT:    -4.853      2.138      6.393
REMARK INTER + INTRA:          -5.834
REMARK INTER:                  -6.928
REMARK INTRA:                   1.094
REMARK UNBOUND:                 0.721
REMARK  6 active torsions:
REMARK  status: ('A' for Active; 'I' for Inactive)
REMARK    1  A    between atoms: C_13  and  C_16 
REMARK    2  A    between atoms: C_14  and  C_17 
REMARK    3  A    between atoms: C_15  and  C_18 
REMARK    4  A    between atoms: C_19  and  C_22 
REMARK    5  A    between atoms: C_20  and  C_23 
REMARK    6  A    between atoms: C_21  and  C_24 
ROOT
HETATM    1  O   UNL     1      47.537  24.716   7.919  1.00  0.00    -0.304 OA
HETATM    2  O   UNL     1      52.034  22.158   7.786  1.00  0.00    -0.304 OA
HETATM    3  O   UNL     1      51.309  25.330   4.355  1.00  0.00    -0.304 OA
HETATM    4  O   UNL     1      50.039  25.110   8.473  1.00  0.00    -0.270 OA
HETATM    5  O   UNL     1      49.524  27.077   6.344  1.00  0.00    -0.270 OA
HETATM    6  O   UNL     1      54.342  22.879   5.627  1.00  0.00    -0.270 OA
HETATM    7  O   UNL     1      47.968  23.313   6.140  1.00  0.00    -0.263 OA
HETATM    8  O   UNL     1      53.889  23.304   8.526  1.00  0.00    -0.263 OA
HETATM    9  O   UNL     1      52.244  25.640   2.281  1.00  0.00    -0.263 OA
HETATM   10  N   UNL     1      50.411  23.132   9.612  1.00  0.00    -0.340 N 
HETATM   11  N   UNL     1      48.363  25.790   4.801  1.00  0.00    -0.340 N 
HETATM   12  N   UNL     1      52.232  22.828   4.648  1.00  0.00    -0.340 N 
HETATM   13  C   UNL     1      51.838  23.476   9.784  1.00  0.00     0.190 C 
HETATM   14  C   UNL     1      47.248  25.606   5.753  1.00  0.00     0.190 C 
HETATM   15  C   UNL     1      52.680  23.571   3.452  1.00  0.00     0.190 C 
HETATM   16  C   UNL     1      48.094  23.771   8.859  1.00  0.00     0.227 C 
HETATM   17  C   UNL     1      52.712  21.487   6.710  1.00  0.00     0.227 C 
HETATM   18  C   UNL     1      50.677  26.623   4.298  1.00  0.00     0.227 C 
HETATM   19  C   UNL     1      49.593  24.063   8.958  1.00  0.00     0.250 C 
HETATM   20  C   UNL     1      49.479  26.525   5.240  1.00  0.00     0.250 C 
HETATM   21  C   UNL     1      53.178  22.468   5.624  1.00  0.00     0.250 C 
HETATM   22  C   UNL     1      47.617  24.395   6.593  1.00  0.00     0.283 C 
HETATM   23  C   UNL     1      52.707  22.990   8.625  1.00  0.00     0.283 C 
HETATM   24  C   UNL     1      52.051  24.952   3.278  1.00  0.00     0.283 C 
HETATM   25  C   UNL     1      49.958  21.827  10.103  1.00  0.00     0.153 C 
HETATM   26  C   UNL     1      48.246  25.163   3.481  1.00  0.00     0.153 C 
HETATM   27  C   UNL     1      50.849  22.347   4.667  1.00  0.00     0.153 C 
ENDROOT
BRANCH  16  28
HETATM   28  C   UNL     1      47.407  24.021  10.193  1.00  0.00     0.016 C 
HETATM   29  C   UNL     1      46.980  25.483  10.315  1.00  0.00     0.012 C 
HETATM   30  C   UNL     1      46.202  23.097  10.364  1.00  0.00     0.012 C 
ENDBRANCH  16  28
BRANCH  14  31
HETATM   31  C   UNL     1      45.868  25.418   5.137  1.00  0.00     0.010 C 
HETATM   32  C   UNL     1      45.027  24.463   5.982  1.00  0.00     0.012 C 
HETATM   33  C   UNL     1      45.160  26.762   4.983  1.00  0.00     0.012 C 
ENDBRANCH  14  31
BRANCH  13  34
HETATM   34  C   UNL     1      52.433  22.999  11.108  1.00  0.00     0.010 C 
HETATM   35  C   UNL     1      52.038  23.939  12.246  1.00  0.00     0.012 C 
HETATM   36  C   UNL     1      53.953  22.888  11.011  1.00  0.00     0.012 C 
ENDBRANCH  13  34
BRANCH  18  37
HETATM   37  C   UNL     1      51.677  27.676   4.766  1.00  0.00     0.016 C 
HETATM   38  C   UNL     1      52.911  27.014   5.377  1.00  0.00     0.012 C 
HETATM   39  C   UNL     1      52.078  28.591   3.610  1.00  0.00     0.012 C 
ENDBRANCH  18  37
BRANCH  17  40
HETATM   40  C   UNL     1      53.841  20.592   7.220  1.00  0.00     0.016 C 
HETATM   41  C   UNL     1      54.520  19.869   6.059  1.00  0.00     0.012 C 
HETATM   42  C   UNL     1      53.311  19.588   8.241  1.00  0.00     0.012 C 
ENDBRANCH  17  40
BRANCH  15  43
HETATM   43  C   UNL     1      52.503  22.739   2.181  1.00  0.00     0.010 C 
HETATM   44  C   UNL     1      51.280  23.211   1.400  1.00  0.00     0.012 C 
HETATM   45  C   UNL     1      53.757  22.813   1.315  1.00  0.00     0.012 C 
ENDBRANCH  15  43
TORSDOF 6
ENDMDL
MODEL 13
REMARK VINA RESULT:    -4.839      4.500      8.396
REMARK INTER + INTRA:          -5.815
REMARK INTER:                  -6.542
REMARK INTRA:                   0.727
REMARK UNBOUND:                 0.721
REMARK  6 active torsions:
REMARK  status: ('A' for Active; 'I' for Inactive)
REMARK    1  A    between atoms: C_13  and  C_16 
REMARK    2  A    between atoms: C_14  and  C_17 
REMARK    3  A    between atoms: C_15  and  C_18 
REMARK    4  A    between atoms: C_19  and  C_22 
REMARK    5  A    between atoms: C_20  and  C_23 
REMARK    6  A    between atoms: C_21  and  C_24 
ROOT
HETATM    1  O   UNL     1      44.823  27.916   4.486  1.00  0.00    -0.304 OA
HETATM    2  O   UNL     1      48.942  25.088   5.832  1.00  0.00    -0.304 OA
HETATM    3  O   UNL     1      49.741  29.643   4.848  1.00  0.00    -0.304 OA
HETATM    4  O   UNL     1      46.367  27.547   6.534  1.00  0.00    -0.270 OA
HETATM    5  O   UNL     1      46.813  30.384   5.884  1.00  0.00    -0.270 OA
HETATM    6  O   UNL     1      51.867  26.424   6.241  1.00  0.00    -0.270 OA
HETATM    7  O   UNL     1      46.498  27.583   2.937  1.00  0.00    -0.263 OA
HETATM    8  O   UNL     1      49.717  25.362   7.983  1.00  0.00    -0.263 OA
HETATM    9  O   UNL     1      51.630  30.818   4.277  1.00  0.00    -0.263 OA
HETATM   10  N   UNL     1      46.397  25.235   6.478  1.00  0.00    -0.340 N 
HETATM   11  N   UNL     1      47.083  30.289   3.581  1.00  0.00    -0.340 N 
HETATM   12  N   UNL     1      50.808  27.236   4.335  1.00  0.00    -0.340 N 
HETATM   13  C   UNL     1      47.339  25.199   7.616  1.00  0.00     0.190 C 
HETATM   14  C   UNL     1      45.689  29.829   3.409  1.00  0.00     0.190 C 
HETATM   15  C   UNL     1      51.709  28.403   4.233  1.00  0.00     0.190 C 
HETATM   16  C   UNL     1      44.899  26.545   4.933  1.00  0.00     0.227 C 
HETATM   17  C   UNL     1      50.245  24.966   5.236  1.00  0.00     0.227 C 
HETATM   18  C   UNL     1      49.013  30.865   5.079  1.00  0.00     0.227 C 
HETATM   19  C   UNL     1      45.951  26.491   6.044  1.00  0.00     0.250 C 
HETATM   20  C   UNL     1      47.543  30.496   4.894  1.00  0.00     0.250 C 
HETATM   21  C   UNL     1      51.045  26.273   5.332  1.00  0.00     0.250 C 
HETATM   22  C   UNL     1      45.733  28.317   3.548  1.00  0.00     0.283 C 
HETATM   23  C   UNL     1      48.800  25.244   7.176  1.00  0.00     0.283 C 
HETATM   24  C   UNL     1      51.034  29.758   4.437  1.00  0.00     0.283 C 
HETATM   25  C   UNL     1      46.024  23.960   5.857  1.00  0.00     0.153 C 
HETATM   26  C   UNL     1      47.900  30.463   2.376  1.00  0.00     0.153 C 
HETATM   27  C   UNL     1      49.817  27.051   3.273  1.00  0.00     0.153 C 
ENDROOT
BRANCH  16  28
HETATM   28  C   UNL     1      43.525  26.182   5.474  1.00  0.00     0.016 C 
HETATM   29  C   UNL     1      42.911  27.363   6.225  1.00  0.00     0.012 C 
HETATM   30  C   UNL     1      42.600  25.729   4.345  1.00  0.00     0.012 C 
ENDBRANCH  16  28
BRANCH  14  31
HETATM   31  C   UNL     1      45.014  30.218   2.100  1.00  0.00     0.010 C 
HETATM   32  C   UNL     1      43.962  29.181   1.710  1.00  0.00     0.012 C 
HETATM   33  C   UNL     1      44.385  31.604   2.211  1.00  0.00     0.012 C 
ENDBRANCH  14  31
BRANCH  13  34
HETATM   34  C   UNL     1      47.120  24.017   8.560  1.00  0.00     0.010 C 
HETATM   35  C   UNL     1      47.079  24.487  10.013  1.00  0.00     0.012 C 
HETATM   36  C   UNL     1      48.211  22.964   8.369  1.00  0.00     0.012 C 
ENDBRANCH  13  34
BRANCH  18  37
HETATM   37  C   UNL     1      49.300  31.344   6.499  1.00  0.00     0.016 C 
HETATM   38  C   UNL     1      50.020  30.258   7.299  1.00  0.00     0.012 C 
HETATM   39  C   UNL     1      50.124  32.629   6.480  1.00  0.00     0.012 C 
ENDBRANCH  18  37
BRANCH  17  40
HETATM   40  C   UNL     1      51.011  23.763   5.786  1.00  0.00     0.016 C 
HETATM   41  C   UNL     1      52.410  23.692   5.176  1.00  0.00     0.012 C 
HETATM   42  C   UNL     1      50.243  22.470   5.520  1.00  0.00     0.012 C 
ENDBRANCH  17  40
BRANCH  15  43
HETATM   43  C   UNL     1      52.492  28.387   2.920  1.00  0.00     0.010 C 
HETATM   44  C   UNL     1      51.906  29.398   1.937  1.00  0.00     0.012 C 
HETATM   45  C   UNL     1      53.968  28.677   3.175  1.00  0.00     0.012 C 
ENDBRANCH  15  43
TORSDOF 6
ENDMDL
MODEL 14
REMARK VINA RESULT:    -4.809      2.530      3.696
REMARK INTER + INTRA:          -5.774
REMARK INTER:                  -6.507
REMARK INTRA:                   0.733
REMARK UNBOUND:                 0.721
REMARK  6 active torsions:
REMARK  status: ('A' for Active; 'I' for Inactive)
REMARK    1  A    between atoms: C_13  and  C_16 
REMARK    2  A    between atoms: C_14  and  C_17 
REMARK    3  A    between atoms: C_15  and  C_18 
REMARK    4  A    between atoms: C_19  and  C_22 
REMARK    5  A    between atoms: C_20  and  C_23 
REMARK    6  A    between atoms: C_21  and  C_24 
ROOT
HETATM    1  O   UNL     1      48.345  22.823   8.939  1.00  0.00    -0.304 OA
HETATM    2  O   UNL     1      48.242  26.676   5.486  1.00  0.00    -0.304 OA
HETATM    3  O   UNL     1      50.640  22.795   4.245  1.00  0.00    -0.304 OA
HETATM    4  O   UNL     1      47.161  23.438   6.717  1.00  0.00    -0.270 OA
HETATM    5  O   UNL     1      48.665  21.008   6.006  1.00  0.00    -0.270 OA
HETATM    6  O   UNL     1      49.522  26.347   2.526  1.00  0.00    -0.270 OA
HETATM    7  O   UNL     1      50.321  23.875   8.386  1.00  0.00    -0.263 OA
HETATM    8  O   UNL     1      46.803  26.421   3.706  1.00  0.00    -0.263 OA
HETATM    9  O   UNL     1      52.267  22.390   2.676  1.00  0.00    -0.263 OA
HETATM   10  N   UNL     1      46.613  25.618   7.259  1.00  0.00    -0.340 N 
HETATM   11  N   UNL     1      50.738  21.460   6.946  1.00  0.00    -0.340 N 
HETATM   12  N   UNL     1      50.912  25.463   4.169  1.00  0.00    -0.340 N 
HETATM   13  C   UNL     1      46.036  25.829   5.914  1.00  0.00     0.190 C 
HETATM   14  C   UNL     1      50.154  21.449   8.304  1.00  0.00     0.190 C 
HETATM   15  C   UNL     1      51.702  24.682   3.195  1.00  0.00     0.190 C 
HETATM   16  C   UNL     1      47.632  24.079   8.973  1.00  0.00     0.227 C 
HETATM   17  C   UNL     1      49.292  27.293   4.722  1.00  0.00     0.227 C 
HETATM   18  C   UNL     1      50.446  21.383   4.454  1.00  0.00     0.227 C 
HETATM   19  C   UNL     1      47.122  24.346   7.554  1.00  0.00     0.250 C 
HETATM   20  C   UNL     1      49.865  21.262   5.861  1.00  0.00     0.250 C 
HETATM   21  C   UNL     1      49.905  26.324   3.700  1.00  0.00     0.250 C 
HETATM   22  C   UNL     1      49.655  22.862   8.550  1.00  0.00     0.283 C 
HETATM   23  C   UNL     1      47.065  26.324   4.900  1.00  0.00     0.283 C 
HETATM   24  C   UNL     1      51.589  23.166   3.342  1.00  0.00     0.283 C 
HETATM   25  C   UNL     1      46.646  26.761   8.176  1.00  0.00     0.153 C 
HETATM   26  C   UNL     1      52.177  21.712   6.821  1.00  0.00     0.153 C 
HETATM   27  C   UNL     1      51.342  25.433   5.569  1.00  0.00     0.153 C 
ENDROOT
BRANCH  16  28
HETATM   28  C   UNL     1      46.469  23.899   9.938  1.00  0.00     0.016 C 
HETATM   29  C   UNL     1      46.271  22.421  10.274  1.00  0.00     0.012 C 
HETATM   30  C   UNL     1      46.694  24.711  11.213  1.00  0.00     0.012 C 
ENDBRANCH  16  28
BRANCH  14  31
HETATM   31  C   UNL     1      51.087  21.017   9.428  1.00  0.00     0.010 C 
HETATM   32  C   UNL     1      50.715  21.717  10.733  1.00  0.00     0.012 C 
HETATM   33  C   UNL     1      51.051  19.501   9.604  1.00  0.00     0.012 C 
ENDBRANCH  14  31
BRANCH  13  34
HETATM   34  C   UNL     1      44.817  26.751   5.904  1.00  0.00     0.010 C 
HETATM   35  C   UNL     1      43.620  26.055   5.257  1.00  0.00     0.012 C 
HETATM   36  C   UNL     1      45.133  28.057   5.177  1.00  0.00     0.012 C 
ENDBRANCH  13  34
BRANCH  18  37
HETATM   37  C   UNL     1      49.477  20.861   3.397  1.00  0.00     0.016 C 
HETATM   38  C   UNL     1      48.822  22.021   2.647  1.00  0.00     0.012 C 
HETATM   39  C   UNL     1      50.192  19.929   2.421  1.00  0.00     0.012 C 
ENDBRANCH  18  37
BRANCH  17  40
HETATM   40  C   UNL     1      48.837  28.608   4.088  1.00  0.00     0.016 C 
HETATM   41  C   UNL     1      49.966  29.230   3.270  1.00  0.00     0.012 C 
HETATM   42  C   UNL     1      48.352  29.581   5.161  1.00  0.00     0.012 C 
ENDBRANCH  17  40
BRANCH  15  43
HETATM   43  C   UNL     1      53.169  25.112   3.196  1.00  0.00     0.010 C 
HETATM   44  C   UNL     1      54.024  24.091   3.942  1.00  0.00     0.012 C 
HETATM   45  C   UNL     1      53.672  25.296   1.768  1.00  0.00     0.012 C 
ENDBRANCH  15  43
TORSDOF 6
ENDMDL
MODEL 15
REMARK VINA RESULT:    -4.770      2.413      6.725
REMARK INTER + INTRA:          -5.722
REMARK INTER:                  -6.662
REMARK INTRA:                   0.940
REMARK UNBOUND:                 0.721
REMARK  6 active torsions:
REMARK  status: ('A' for Active; 'I' for Inactive)
REMARK    1  A    between atoms: C_13  and  C_16 
REMARK    2  A    between atoms: C_14  and  C_17 
REMARK    3  A    between atoms: C_15  and  C_18 
REMARK    4  A    between atoms: C_19  and  C_22 
REMARK    5  A    between atoms: C_20  and  C_23 
REMARK    6  A    between atoms: C_21  and  C_24 
ROOT
HETATM    1  O   UNL     1      53.884  19.942   4.809  1.00  0.00    -0.304 OA
HETATM    2  O   UNL     1      51.791  22.680   8.670  1.00  0.00    -0.304 OA
HETATM    3  O   UNL     1      56.288  23.657   7.588  1.00  0.00    -0.304 OA
HETATM    4  O   UNL     1      52.925  22.311   5.243  1.00  0.00    -0.270 OA
HETATM    5  O   UNL     1      55.733  22.860   4.546  1.00  0.00    -0.270 OA
HETATM    6  O   UNL     1      53.386  25.117  10.092  1.00  0.00    -0.270 OA
HETATM    7  O   UNL     1      54.746  19.707   6.936  1.00  0.00    -0.263 OA
HETATM    8  O   UNL     1      51.147  24.833   8.170  1.00  0.00    -0.263 OA
HETATM    9  O   UNL     1      57.989  24.690   8.734  1.00  0.00    -0.263 OA
HETATM   10  N   UNL     1      51.014  21.661   6.372  1.00  0.00    -0.340 N 
HETATM   11  N   UNL     1      56.842  21.274   5.827  1.00  0.00    -0.340 N 
HETATM   12  N   UNL     1      54.758  23.268   9.757  1.00  0.00    -0.340 N 
HETATM   13  C   UNL     1      50.643  23.074   6.597  1.00  0.00     0.190 C 
HETATM   14  C   UNL     1      56.219  20.178   5.057  1.00  0.00     0.190 C 
HETATM   15  C   UNL     1      55.997  24.053   9.943  1.00  0.00     0.190 C 
HETATM   16  C   UNL     1      52.529  19.952   5.309  1.00  0.00     0.227 C 
HETATM   17  C   UNL     1      52.279  22.989   9.987  1.00  0.00     0.227 C 
HETATM   18  C   UNL     1      57.036  23.719   6.359  1.00  0.00     0.227 C 
HETATM   19  C   UNL     1      52.181  21.406   5.639  1.00  0.00     0.250 C 
HETATM   20  C   UNL     1      56.480  22.591   5.493  1.00  0.00     0.250 C 
HETATM   21  C   UNL     1      53.515  23.898   9.942  1.00  0.00     0.250 C 
HETATM   22  C   UNL     1      54.888  19.900   5.735  1.00  0.00     0.283 C 
HETATM   23  C   UNL     1      51.231  23.642   7.888  1.00  0.00     0.283 C 
HETATM   24  C   UNL     1      56.882  24.163   8.704  1.00  0.00     0.283 C 
HETATM   25  C   UNL     1      50.160  20.627   6.962  1.00  0.00     0.153 C 
HETATM   26  C   UNL     1      57.765  20.913   6.907  1.00  0.00     0.153 C 
HETATM   27  C   UNL     1      54.895  21.824   9.563  1.00  0.00     0.153 C 
ENDROOT
BRANCH  16  28
HETATM   28  C   UNL     1      51.643  19.428   4.189  1.00  0.00     0.016 C 
HETATM   29  C   UNL     1      51.713  20.347   2.971  1.00  0.00     0.012 C 
HETATM   30  C   UNL     1      52.042  18.003   3.807  1.00  0.00     0.012 C 
ENDBRANCH  16  28
BRANCH  14  31
HETATM   31  C   UNL     1      57.032  18.894   4.946  1.00  0.00     0.010 C 
HETATM   32  C   UNL     1      56.122  17.708   4.633  1.00  0.00     0.012 C 
HETATM   33  C   UNL     1      58.115  19.034   3.879  1.00  0.00     0.012 C 
ENDBRANCH  14  31
BRANCH  13  34
HETATM   34  C   UNL     1      49.137  23.329   6.562  1.00  0.00     0.010 C 
HETATM   35  C   UNL     1      48.811  24.509   5.647  1.00  0.00     0.012 C 
HETATM   36  C   UNL     1      48.597  23.579   7.969  1.00  0.00     0.012 C 
ENDBRANCH  13  34
BRANCH  18  37
HETATM   37  C   UNL     1      56.810  25.086   5.718  1.00  0.00     0.016 C 
HETATM   38  C   UNL     1      55.696  25.843   6.441  1.00  0.00     0.012 C 
HETATM   39  C   UNL     1      58.100  25.904   5.719  1.00  0.00     0.012 C 
ENDBRANCH  18  37
BRANCH  17  40
HETATM   40  C   UNL     1      51.173  23.539  10.888  1.00  0.00     0.016 C 
HETATM   41  C   UNL     1      51.752  24.019  12.217  1.00  0.00     0.012 C 
HETATM   42  C   UNL     1      50.095  22.483  11.121  1.00  0.00     0.012 C 
ENDBRANCH  17  40
BRANCH  15  43
HETATM   43  C   UNL     1      56.806  23.540  11.135  1.00  0.00     0.010 C 
HETATM   44  C   UNL     1      57.935  24.511  11.472  1.00  0.00     0.012 C 
HETATM   45  C   UNL     1      55.899  23.328  12.344  1.00  0.00     0.012 C 
ENDBRANCH  15  43
TORSDOF 6
ENDMDL
MODEL 16
REMARK VINA RESULT:    -4.603      2.247      8.017
REMARK INTER + INTRA:          -5.497
REMARK INTER:                  -6.343
REMARK INTRA:                   0.846
REMARK UNBOUND:                 0.721
REMARK  6 active torsions:
REMARK  status: ('A' for Active; 'I' for Inactive)
REMARK    1  A    between atoms: C_13  and  C_16 
REMARK    2  A    between atoms: C_14  and  C_17 
REMARK    3  A    between atoms: C_15  and  C_18 
REMARK    4  A    between atoms: C_19  and  C_22 
REMARK    5  A    between atoms: C_20  and  C_23 
REMARK    6  A    between atoms: C_21  and  C_24 
ROOT
HETATM    1  O   UNL     1      49.948  27.240   4.523  1.00  0.00    -0.304 OA
HETATM    2  O   UNL     1      52.438  24.382   8.046  1.00  0.00    -0.304 OA
HETATM    3  O   UNL     1      47.901  23.298   7.276  1.00  0.00    -0.304 OA
HETATM    4  O   UNL     1      51.015  24.888   4.747  1.00  0.00    -0.270 OA
HETATM    5  O   UNL     1      48.178  24.273   4.249  1.00  0.00    -0.270 OA
HETATM    6  O   UNL     1      51.045  21.817   9.455  1.00  0.00    -0.270 OA
HETATM    7  O   UNL     1      49.256  27.332   6.721  1.00  0.00    -0.263 OA
HETATM    8  O   UNL     1      53.108  22.283   7.378  1.00  0.00    -0.263 OA
HETATM    9  O   UNL     1      46.334  22.146   8.496  1.00  0.00    -0.263 OA
HETATM   10  N   UNL     1      52.990  25.547   5.753  1.00  0.00    -0.340 N 
HETATM   11  N   UNL     1      47.128  25.749   5.699  1.00  0.00    -0.340 N 
HETATM   12  N   UNL     1      49.591  23.629   9.334  1.00  0.00    -0.340 N 
HETATM   13  C   UNL     1      53.424  24.139   5.870  1.00  0.00     0.190 C 
HETATM   14  C   UNL     1      47.650  26.906   4.943  1.00  0.00     0.190 C 
HETATM   15  C   UNL     1      48.397  22.791   9.575  1.00  0.00     0.190 C 
HETATM   16  C   UNL     1      51.339  27.253   4.911  1.00  0.00     0.227 C 
HETATM   17  C   UNL     1      52.070  23.987   9.379  1.00  0.00     0.227 C 
HETATM   18  C   UNL     1      47.057  23.274   6.109  1.00  0.00     0.227 C 
HETATM   19  C   UNL     1      51.759  25.797   5.131  1.00  0.00     0.250 C 
HETATM   20  C   UNL     1      47.504  24.465   5.265  1.00  0.00     0.250 C 
HETATM   21  C   UNL     1      50.864  23.036   9.384  1.00  0.00     0.250 C 
HETATM   22  C   UNL     1      49.022  27.197   5.527  1.00  0.00     0.283 C 
HETATM   23  C   UNL     1      52.962  23.483   7.170  1.00  0.00     0.283 C 
HETATM   24  C   UNL     1      47.417  22.714   8.407  1.00  0.00     0.283 C 
HETATM   25  C   UNL     1      53.857  26.580   6.329  1.00  0.00     0.153 C 
HETATM   26  C   UNL     1      46.286  26.018   6.869  1.00  0.00     0.153 C 
HETATM   27  C   UNL     1      49.392  25.076   9.231  1.00  0.00     0.153 C 
ENDROOT
BRANCH  16  28
HETATM   28  C   UNL     1      52.113  27.867   3.754  1.00  0.00     0.016 C 
HETATM   29  C   UNL     1      51.286  27.826   2.469  1.00  0.00     0.012 C 
HETATM   30  C   UNL     1      52.522  29.303   4.079  1.00  0.00     0.012 C 
ENDBRANCH  16  28
BRANCH  14  31
HETATM   31  C   UNL     1      46.790  28.163   4.969  1.00  0.00     0.010 C 
HETATM   32  C   UNL     1      47.620  29.389   4.594  1.00  0.00     0.012 C 
HETATM   33  C   UNL     1      45.596  28.017   4.029  1.00  0.00     0.012 C 
ENDBRANCH  14  31
BRANCH  13  34
HETATM   34  C   UNL     1      54.930  23.941   5.700  1.00  0.00     0.010 C 
HETATM   35  C   UNL     1      55.218  22.875   4.644  1.00  0.00     0.012 C 
HETATM   36  C   UNL     1      55.580  23.566   7.030  1.00  0.00     0.012 C 
ENDBRANCH  13  34
BRANCH  18  37
HETATM   37  C   UNL     1      47.274  21.951   5.378  1.00  0.00     0.016 C 
HETATM   38  C   UNL     1      48.552  21.270   5.865  1.00  0.00     0.012 C 
HETATM   39  C   UNL     1      46.071  21.028   5.563  1.00  0.00     0.012 C 
ENDBRANCH  18  37
BRANCH  17  40
HETATM   40  C   UNL     1      53.263  23.431  10.156  1.00  0.00     0.016 C 
HETATM   41  C   UNL     1      52.839  23.008  11.561  1.00  0.00     0.012 C 
HETATM   42  C   UNL     1      54.388  24.462  10.223  1.00  0.00     0.012 C 
ENDBRANCH  17  40
BRANCH  15  43
HETATM   43  C   UNL     1      47.673  23.212  10.855  1.00  0.00     0.010 C 
HETATM   44  C   UNL     1      48.631  23.185  12.043  1.00  0.00     0.012 C 
HETATM   45  C   UNL     1      47.058  24.598  10.689  1.00  0.00     0.012 C 
ENDBRANCH  15  43
TORSDOF 6
ENDMDL
MODEL 17
REMARK VINA RESULT:    -4.465      3.201      6.587
REMARK INTER + INTRA:          -5.310
REMARK INTER:                  -6.208
REMARK INTRA:                   0.899
REMARK UNBOUND:                 0.721
REMARK  6 active torsions:
REMARK  status: ('A' for Active; 'I' for Inactive)
REMARK    1  A    between atoms: C_13  and  C_16 
REMARK    2  A    between atoms: C_14  and  C_17 
REMARK    3  A    between atoms: C_15  and  C_18 
REMARK    4  A    between atoms: C_19  and  C_22 
REMARK    5  A    between atoms: C_20  and  C_23 
REMARK    6  A    between atoms: C_21  and  C_24 
ROOT
HETATM    1  O   UNL     1      56.597  26.384   9.284  1.00  0.00    -0.304 OA
HETATM    2  O   UNL     1      54.472  25.870   4.593  1.00  0.00    -0.304 OA
HETATM    3  O   UNL     1      52.737  23.101   8.010  1.00  0.00    -0.304 OA
HETATM    4  O   UNL     1      54.440  27.066   8.019  1.00  0.00    -0.270 OA
HETATM    5  O   UNL     1      53.415  25.345  10.178  1.00  0.00    -0.270 OA
HETATM    6  O   UNL     1      51.912  23.949   4.084  1.00  0.00    -0.270 OA
HETATM    7  O   UNL     1      56.831  24.379   8.171  1.00  0.00    -0.263 OA
HETATM    8  O   UNL     1      52.419  26.864   4.283  1.00  0.00    -0.263 OA
HETATM    9  O   UNL     1      51.527  21.150   7.986  1.00  0.00    -0.263 OA
HETATM   10  N   UNL     1      55.450  27.810   6.077  1.00  0.00    -0.340 N 
HETATM   11  N   UNL     1      54.888  23.554  10.074  1.00  0.00    -0.340 N 
HETATM   12  N   UNL     1      53.498  22.927   5.444  1.00  0.00    -0.340 N 
HETATM   13  C   UNL     1      54.130  28.080   5.470  1.00  0.00     0.190 C 
HETATM   14  C   UNL     1      56.016  24.425  10.463  1.00  0.00     0.190 C 
HETATM   15  C   UNL     1      52.544  21.909   5.930  1.00  0.00     0.190 C 
HETATM   16  C   UNL     1      56.831  27.137   8.074  1.00  0.00     0.227 C 
HETATM   17  C   UNL     1      54.176  24.702   3.810  1.00  0.00     0.227 C 
HETATM   18  C   UNL     1      52.481  23.279   9.416  1.00  0.00     0.227 C 
HETATM   19  C   UNL     1      55.473  27.328   7.393  1.00  0.00     0.250 C 
HETATM   20  C   UNL     1      53.624  24.154   9.925  1.00  0.00     0.250 C 
HETATM   21  C   UNL     1      53.083  23.838   4.457  1.00  0.00     0.250 C 
HETATM   22  C   UNL     1      56.541  25.024   9.170  1.00  0.00     0.283 C 
HETATM   23  C   UNL     1      53.561  26.871   4.729  1.00  0.00     0.283 C 
HETATM   24  C   UNL     1      52.218  21.990   7.419  1.00  0.00     0.283 C 
HETATM   25  C   UNL     1      56.641  28.028   5.250  1.00  0.00     0.153 C 
HETATM   26  C   UNL     1      55.168  22.135   9.836  1.00  0.00     0.153 C 
HETATM   27  C   UNL     1      54.889  22.819   5.890  1.00  0.00     0.153 C 
ENDROOT
BRANCH  16  28
HETATM   28  C   UNL     1      57.414  28.478   8.495  1.00  0.00     0.016 C 
HETATM   29  C   UNL     1      56.918  28.870   9.886  1.00  0.00     0.012 C 
HETATM   30  C   UNL     1      58.942  28.435   8.466  1.00  0.00     0.012 C 
ENDBRANCH  16  28
BRANCH  14  31
HETATM   31  C   UNL     1      57.148  23.750  11.228  1.00  0.00     0.010 C 
HETATM   32  C   UNL     1      58.319  24.712  11.413  1.00  0.00     0.012 C 
HETATM   33  C   UNL     1      56.654  23.241  12.580  1.00  0.00     0.012 C 
ENDBRANCH  14  31
BRANCH  13  34
HETATM   34  C   UNL     1      54.112  29.302   4.552  1.00  0.00     0.010 C 
HETATM   35  C   UNL     1      52.818  30.094   4.735  1.00  0.00     0.012 C 
HETATM   36  C   UNL     1      54.281  28.884   3.092  1.00  0.00     0.012 C 
ENDBRANCH  13  34
BRANCH  18  37
HETATM   37  C   UNL     1      51.128  23.967   9.583  1.00  0.00     0.016 C 
HETATM   38  C   UNL     1      50.551  24.357   8.222  1.00  0.00     0.012 C 
HETATM   39  C   UNL     1      50.154  23.066  10.339  1.00  0.00     0.012 C 
ENDBRANCH  18  37
BRANCH  17  40
HETATM   40  C   UNL     1      53.863  25.057   2.356  1.00  0.00     0.016 C 
HETATM   41  C   UNL     1      53.454  23.811   1.574  1.00  0.00     0.012 C 
HETATM   42  C   UNL     1      55.065  25.733   1.698  1.00  0.00     0.012 C 
ENDBRANCH  17  40
BRANCH  15  43
HETATM   43  C   UNL     1      52.999  20.497   5.557  1.00  0.00     0.010 C 
HETATM   44  C   UNL     1      53.532  19.766   6.788  1.00  0.00     0.012 C 
HETATM   45  C   UNL     1      51.853  19.717   4.921  1.00  0.00     0.012 C 
ENDBRANCH  15  43
TORSDOF 6
ENDMDL
MODEL 18
REMARK VINA RESULT:    -4.407      1.730      7.886
REMARK INTER + INTRA:          -5.231
REMARK INTER:                  -6.588
REMARK INTRA:                   1.356
REMARK UNBOUND:                 0.721
REMARK  6 active torsions:
REMARK  status: ('A' for Active; 'I' for Inactive)
REMARK    1  A    between atoms: C_13  and  C_16 
REMARK    2  A    between atoms: C_14  and  C_17 
REMARK    3  A    between atoms: C_15  and  C_18 
REMARK    4  A    between atoms: C_19  and  C_22 
REMARK    5  A    between atoms: C_20  and  C_23 
REMARK    6  A    between atoms: C_21  and  C_24 
ROOT
HETATM    1  O   UNL     1      52.667  24.455   3.620  1.00  0.00    -0.304 OA
HETATM    2  O   UNL     1      52.490  23.433   8.691  1.00  0.00    -0.304 OA
HETATM    3  O   UNL     1      48.592  22.447   6.203  1.00  0.00    -0.304 OA
HETATM    4  O   UNL     1      52.794  22.419   5.220  1.00  0.00    -0.270 OA
HETATM    5  O   UNL     1      50.383  21.850   3.628  1.00  0.00    -0.270 OA
HETATM    6  O   UNL     1      49.945  21.949  10.043  1.00  0.00    -0.270 OA
HETATM    7  O   UNL     1      51.183  25.626   4.941  1.00  0.00    -0.263 OA
HETATM    8  O   UNL     1      52.723  21.225   9.301  1.00  0.00    -0.263 OA
HETATM    9  O   UNL     1      46.395  22.126   6.789  1.00  0.00    -0.263 OA
HETATM   10  N   UNL     1      54.266  23.330   6.753  1.00  0.00    -0.340 N 
HETATM   11  N   UNL     1      49.312  23.908   3.666  1.00  0.00    -0.340 N 
HETATM   12  N   UNL     1      49.283  23.588   8.530  1.00  0.00    -0.340 N 
HETATM   13  C   UNL     1      54.173  22.117   7.593  1.00  0.00     0.190 C 
HETATM   14  C   UNL     1      50.419  24.528   2.908  1.00  0.00     0.190 C 
HETATM   15  C   UNL     1      47.909  23.054   8.428  1.00  0.00     0.190 C 
HETATM   16  C   UNL     1      53.704  24.549   4.621  1.00  0.00     0.227 C 
HETATM   17  C   UNL     1      51.501  23.743   9.687  1.00  0.00     0.227 C 
HETATM   18  C   UNL     1      48.347  21.934   4.879  1.00  0.00     0.227 C 
HETATM   19  C   UNL     1      53.542  23.345   5.553  1.00  0.00     0.250 C 
HETATM   20  C   UNL     1      49.436  22.548   4.003  1.00  0.00     0.250 C 
HETATM   21  C   UNL     1      50.181  22.999   9.437  1.00  0.00     0.250 C 
HETATM   22  C   UNL     1      51.440  24.960   3.947  1.00  0.00     0.283 C 
HETATM   23  C   UNL     1      53.040  22.191   8.615  1.00  0.00     0.283 C 
HETATM   24  C   UNL     1      47.531  22.504   7.055  1.00  0.00     0.283 C 
HETATM   25  C   UNL     1      55.076  24.446   7.250  1.00  0.00     0.153 C 
HETATM   26  C   UNL     1      48.180  24.759   4.045  1.00  0.00     0.153 C 
HETATM   27  C   UNL     1      49.584  24.824   7.805  1.00  0.00     0.153 C 
ENDROOT
BRANCH  16  28
HETATM   28  C   UNL     1      55.034  24.485   3.885  1.00  0.00     0.016 C 
HETATM   29  C   UNL     1      54.852  23.877   2.494  1.00  0.00     0.012 C 
HETATM   30  C   UNL     1      55.663  25.874   3.782  1.00  0.00     0.012 C 
ENDBRANCH  16  28
BRANCH  14  31
HETATM   31  C   UNL     1      50.042  25.706   2.019  1.00  0.00     0.010 C 
HETATM   32  C   UNL     1      51.265  26.572   1.728  1.00  0.00     0.012 C 
HETATM   33  C   UNL     1      49.409  25.217   0.719  1.00  0.00     0.012 C 
ENDBRANCH  14  31
BRANCH  13  34
HETATM   34  C   UNL     1      55.479  21.754   8.299  1.00  0.00     0.010 C 
HETATM   35  C   UNL     1      55.728  20.248   8.230  1.00  0.00     0.012 C 
HETATM   36  C   UNL     1      55.460  22.227   9.750  1.00  0.00     0.012 C 
ENDBRANCH  13  34
BRANCH  18  37
HETATM   37  C   UNL     1      48.447  20.411   4.919  1.00  0.00     0.016 C 
HETATM   38  C   UNL     1      48.224  19.820   3.527  1.00  0.00     0.012 C 
HETATM   39  C   UNL     1      49.799  19.973   5.477  1.00  0.00     0.012 C 
ENDBRANCH  18  37
BRANCH  17  40
HETATM   40  C   UNL     1      52.036  23.537  11.103  1.00  0.00     0.016 C 
HETATM   41  C   UNL     1      50.936  23.777  12.135  1.00  0.00     0.012 C 
HETATM   42  C   UNL     1      53.228  24.455  11.367  1.00  0.00     0.012 C 
ENDBRANCH  17  40
BRANCH  15  43
HETATM   43  C   UNL     1      46.877  24.081   8.896  1.00  0.00     0.010 C 
HETATM   44  C   UNL     1      47.193  24.547  10.315  1.00  0.00     0.012 C 
HETATM   45  C   UNL     1      46.832  25.267   7.937  1.00  0.00     0.012 C 
ENDBRANCH  15  43
TORSDOF 6
ENDMDL
MODEL 19
REMARK VINA RESULT:    -4.402      9.768     13.387
REMARK INTER + INTRA:          -5.225
REMARK INTER:                  -6.015
REMARK INTRA:                   0.791
REMARK UNBOUND:                 0.721
REMARK  6 active torsions:
REMARK  status: ('A' for Active; 'I' for Inactive)
REMARK    1  A    between atoms: C_13  and  C_16 
REMARK    2  A    between atoms: C_14  and  C_17 
REMARK    3  A    between atoms: C_15  and  C_18 
REMARK    4  A    between atoms: C_19  and  C_22 
REMARK    5  A    between atoms: C_20  and  C_23 
REMARK    6  A    between atoms: C_21  and  C_24 
ROOT
HETATM    1  O   UNL     1      46.602  30.340   4.080  1.00  0.00    -0.304 OA
HETATM    2  O   UNL     1      43.575  32.694   0.605  1.00  0.00    -0.304 OA
HETATM    3  O   UNL     1      46.649  35.435   2.926  1.00  0.00    -0.304 OA
HETATM    4  O   UNL     1      46.751  31.305   1.679  1.00  0.00    -0.270 OA
HETATM    5  O   UNL     1      48.665  32.971   3.174  1.00  0.00    -0.270 OA
HETATM    6  O   UNL     1      43.949  35.827  -0.136  1.00  0.00    -0.270 OA
HETATM    7  O   UNL     1      45.083  31.914   4.812  1.00  0.00    -0.263 OA
HETATM    8  O   UNL     1      44.549  33.220  -1.414  1.00  0.00    -0.263 OA
HETATM    9  O   UNL     1      46.764  37.699   3.297  1.00  0.00    -0.263 OA
HETATM   10  N   UNL     1      44.797  30.378   0.859  1.00  0.00    -0.340 N 
HETATM   11  N   UNL     1      47.440  33.479   5.079  1.00  0.00    -0.340 N 
HETATM   12  N   UNL     1      44.079  35.463   2.158  1.00  0.00    -0.340 N 
HETATM   13  C   UNL     1      44.995  31.061  -0.437  1.00  0.00     0.190 C 
HETATM   14  C   UNL     1      47.419  32.056   5.477  1.00  0.00     0.190 C 
HETATM   15  C   UNL     1      44.716  36.772   2.411  1.00  0.00     0.190 C 
HETATM   16  C   UNL     1      45.646  29.779   3.154  1.00  0.00     0.227 C 
HETATM   17  C   UNL     1      42.789  33.894   0.691  1.00  0.00     0.227 C 
HETATM   18  C   UNL     1      47.998  35.257   3.398  1.00  0.00     0.227 C 
HETATM   19  C   UNL     1      45.781  30.557   1.842  1.00  0.00     0.250 C 
HETATM   20  C   UNL     1      48.072  33.806   3.865  1.00  0.00     0.250 C 
HETATM   21  C   UNL     1      43.664  35.145   0.853  1.00  0.00     0.250 C 
HETATM   22  C   UNL     1      46.215  31.449   4.778  1.00  0.00     0.283 C 
HETATM   23  C   UNL     1      44.368  32.453  -0.475  1.00  0.00     0.283 C 
HETATM   24  C   UNL     1      46.146  36.701   2.941  1.00  0.00     0.283 C 
HETATM   25  C   UNL     1      43.572  29.595   1.040  1.00  0.00     0.153 C 
HETATM   26  C   UNL     1      46.772  34.445   5.955  1.00  0.00     0.153 C 
HETATM   27  C   UNL     1      43.750  34.634   3.319  1.00  0.00     0.153 C 
ENDROOT
BRANCH  16  28
HETATM   28  C   UNL     1      46.028  28.320   2.957  1.00  0.00     0.016 C 
HETATM   29  C   UNL     1      47.471  28.076   3.394  1.00  0.00     0.012 C 
HETATM   30  C   UNL     1      45.075  27.403   3.723  1.00  0.00     0.012 C 
ENDBRANCH  16  28
BRANCH  14  31
HETATM   31  C   UNL     1      47.352  31.783   6.974  1.00  0.00     0.010 C 
HETATM   32  C   UNL     1      46.772  30.396   7.242  1.00  0.00     0.012 C 
HETATM   33  C   UNL     1      48.735  31.917   7.608  1.00  0.00     0.012 C 
ENDBRANCH  14  31
BRANCH  13  34
HETATM   34  C   UNL     1      44.517  30.249  -1.641  1.00  0.00     0.010 C 
HETATM   35  C   UNL     1      45.621  30.142  -2.692  1.00  0.00     0.012 C 
HETATM   36  C   UNL     1      43.260  30.868  -2.247  1.00  0.00     0.012 C 
ENDBRANCH  13  34
BRANCH  18  37
HETATM   37  C   UNL     1      48.959  35.527   2.243  1.00  0.00     0.016 C 
HETATM   38  C   UNL     1      48.203  35.589   0.916  1.00  0.00     0.012 C 
HETATM   39  C   UNL     1      49.736  36.821   2.477  1.00  0.00     0.012 C 
ENDBRANCH  18  37
BRANCH  17  40
HETATM   40  C   UNL     1      41.802  34.011  -0.471  1.00  0.00     0.016 C 
HETATM   41  C   UNL     1      41.007  35.311  -0.372  1.00  0.00     0.012 C 
HETATM   42  C   UNL     1      40.861  32.807  -0.501  1.00  0.00     0.012 C 
ENDBRANCH  17  40
BRANCH  15  43
HETATM   43  C   UNL     1      43.851  37.644   3.322  1.00  0.00     0.010 C 
HETATM   44  C   UNL     1      44.363  39.082   3.329  1.00  0.00     0.012 C 
HETATM   45  C   UNL     1      42.391  37.594   2.880  1.00  0.00     0.012 C 
ENDBRANCH  15  43
TORSDOF 6
ENDMDL
MODEL 20
REMARK VINA RESULT:    -4.329      5.067      9.605
REMARK INTER + INTRA:          -5.126
REMARK INTER:                  -5.856
REMARK INTRA:                   0.729
REMARK UNBOUND:                 0.721
REMARK  6 active torsions:
REMARK  status: ('A' for Active; 'I' for Inactive)
REMARK    1  A    between atoms: C_13  and  C_16 
REMARK    2  A    between atoms: C_14  and  C_17 
REMARK    3  A    between atoms: C_15  and  C_18 
REMARK    4  A    between atoms: C_19  and  C_22 
REMARK    5  A    between atoms: C_20  and  C_23 
REMARK    6  A    between atoms: C_21  and  C_24 
ROOT
HETATM    1  O   UNL     1      44.376  26.945   2.858  1.00  0.00    -0.304 OA
HETATM    2  O   UNL     1      48.981  26.065   5.050  1.00  0.00    -0.304 OA
HETATM    3  O   UNL     1      47.754  30.594   4.463  1.00  0.00    -0.304 OA
HETATM    4  O   UNL     1      45.478  27.003   5.203  1.00  0.00    -0.270 OA
HETATM    5  O   UNL     1      44.677  29.806   4.788  1.00  0.00    -0.270 OA
HETATM    6  O   UNL     1      50.808  28.481   6.204  1.00  0.00    -0.270 OA
HETATM    7  O   UNL     1      46.283  27.614   1.748  1.00  0.00    -0.263 OA
HETATM    8  O   UNL     1      49.099  26.338   7.333  1.00  0.00    -0.263 OA
HETATM    9  O   UNL     1      48.954  32.551   4.410  1.00  0.00    -0.263 OA
HETATM   10  N   UNL     1      46.586  24.977   5.067  1.00  0.00    -0.340 N 
HETATM   11  N   UNL     1      45.408  30.175   2.617  1.00  0.00    -0.340 N 
HETATM   12  N   UNL     1      49.892  29.008   4.131  1.00  0.00    -0.340 N 
HETATM   13  C   UNL     1      47.192  25.196   6.397  1.00  0.00     0.190 C 
HETATM   14  C   UNL     1      44.451  29.177   2.097  1.00  0.00     0.190 C 
HETATM   15  C   UNL     1      50.150  30.454   4.295  1.00  0.00     0.190 C 
HETATM   16  C   UNL     1      44.989  25.700   3.257  1.00  0.00     0.227 C 
HETATM   17  C   UNL     1      50.280  26.619   4.782  1.00  0.00     0.227 C 
HETATM   18  C   UNL     1      46.514  31.320   4.558  1.00  0.00     0.227 C 
HETATM   19  C   UNL     1      45.704  25.955   4.586  1.00  0.00     0.250 C 
HETATM   20  C   UNL     1      45.450  30.371   4.009  1.00  0.00     0.250 C 
HETATM   21  C   UNL     1      50.347  28.116   5.118  1.00  0.00     0.250 C 
HETATM   22  C   UNL     1      45.162  27.837   2.184  1.00  0.00     0.283 C 
HETATM   23  C   UNL     1      48.521  25.945   6.325  1.00  0.00     0.283 C 
HETATM   24  C   UNL     1      48.899  31.326   4.381  1.00  0.00     0.283 C 
HETATM   25  C   UNL     1      46.977  23.774   4.326  1.00  0.00     0.153 C 
HETATM   26  C   UNL     1      46.271  30.864   1.653  1.00  0.00     0.153 C 
HETATM   27  C   UNL     1      49.330  28.561   2.855  1.00  0.00     0.153 C 
ENDROOT
BRANCH  16  28
HETATM   28  C   UNL     1      43.863  24.692   3.436  1.00  0.00     0.016 C 
HETATM   29  C   UNL     1      42.526  25.406   3.631  1.00  0.00     0.012 C 
HETATM   30  C   UNL     1      43.792  23.742   2.241  1.00  0.00     0.012 C 
ENDBRANCH  16  28
BRANCH  14  31
HETATM   31  C   UNL     1      43.945  29.413   0.679  1.00  0.00     0.010 C 
HETATM   32  C   UNL     1      43.198  28.184   0.164  1.00  0.00     0.012 C 
HETATM   33  C   UNL     1      43.047  30.646   0.627  1.00  0.00     0.012 C 
ENDBRANCH  14  31
BRANCH  13  34
HETATM   34  C   UNL     1      47.366  23.916   7.214  1.00  0.00     0.010 C 
HETATM   35  C   UNL     1      46.793  24.092   8.619  1.00  0.00     0.012 C 
HETATM   36  C   UNL     1      48.837  23.514   7.283  1.00  0.00     0.012 C 
ENDBRANCH  13  34
BRANCH  18  37
HETATM   37  C   UNL     1      46.260  31.665   6.023  1.00  0.00     0.016 C 
HETATM   38  C   UNL     1      47.196  30.870   6.933  1.00  0.00     0.012 C 
HETATM   39  C   UNL     1      46.427  33.164   6.262  1.00  0.00     0.012 C 
ENDBRANCH  18  37
BRANCH  17  40
HETATM   40  C   UNL     1      51.391  25.813   5.454  1.00  0.00     0.016 C 
HETATM   41  C   UNL     1      52.755  26.438   5.171  1.00  0.00     0.012 C 
HETATM   42  C   UNL     1      51.359  24.359   4.986  1.00  0.00     0.012 C 
ENDBRANCH  17  40
BRANCH  15  43
HETATM   43  C   UNL     1      51.093  30.977   3.210  1.00  0.00     0.010 C 
HETATM   44  C   UNL     1      50.320  31.801   2.183  1.00  0.00     0.012 C 
HETATM   45  C   UNL     1      52.215  31.803   3.831  1.00  0.00     0.012 C 
ENDBRANCH  15  43
TORSDOF 6
ENDMDL
