MODEL 1
REMARK VINA RESULT:    -5.511      0.000      0.000
REMARK INTER + INTRA:          -6.407
REMARK INTER:                  -7.444
REMARK INTRA:                   1.038
REMARK UNBOUND:                 1.038
REMARK  6 active torsions:
REMARK  status: ('A' for Active; 'I' for Inactive)
REMARK    1  A    between atoms: C_13  and  C_16 
REMARK    2  A    between atoms: C_14  and  C_17 
REMARK    3  A    between atoms: C_15  and  C_18 
REMARK    4  A    between atoms: C_19  and  C_22 
REMARK    5  A    between atoms: C_20  and  C_23 
REMARK    6  A    between atoms: C_21  and  C_24 
ROOT
HETATM    1  O   UNL     1      51.659  26.257  40.187  1.00  0.00    -0.304 OA
HETATM    2  O   UNL     1      52.382  31.347  39.593  1.00  0.00    -0.304 OA
HETATM    3  O   UNL     1      52.971  28.668  35.742  1.00  0.00    -0.304 OA
HETATM    4  O   UNL     1      50.425  28.315  39.208  1.00  0.00    -0.270 OA
HETATM    5  O   UNL     1      50.807  26.597  36.847  1.00  0.00    -0.270 OA
HETATM    6  O   UNL     1      52.945  32.660  36.684  1.00  0.00    -0.270 OA
HETATM    7  O   UNL     1      53.760  27.025  39.626  1.00  0.00    -0.263 OA
HETATM    8  O   UNL     1      50.674  32.515  38.584  1.00  0.00    -0.263 OA
HETATM    9  O   UNL     1      54.056  29.006  33.746  1.00  0.00    -0.263 OA
HETATM   10  N   UNL     1      50.801  29.761  40.973  1.00  0.00    -0.340 N 
HETATM   11  N   UNL     1      53.029  25.972  37.089  1.00  0.00    -0.340 N 
HETATM   12  N   UNL     1      54.173  30.710  37.001  1.00  0.00    -0.340 N 
HETATM   13  C   UNL     1      50.124  30.856  40.246  1.00  0.00     0.190 C 
HETATM   14  C   UNL     1      52.716  25.245  38.337  1.00  0.00     0.190 C 
HETATM   15  C   UNL     1      54.453  30.555  35.558  1.00  0.00     0.190 C 
HETATM   16  C   UNL     1      51.465  27.336  41.127  1.00  0.00     0.227 C 
HETATM   17  C   UNL     1      53.441  32.087  38.962  1.00  0.00     0.227 C 
HETATM   18  C   UNL     1      52.318  27.494  35.224  1.00  0.00     0.227 C 
HETATM   19  C   UNL     1      50.857  28.507  40.350  1.00  0.00     0.250 C 
HETATM   20  C   UNL     1      51.976  26.651  36.450  1.00  0.00     0.250 C 
HETATM   21  C   UNL     1      53.482  31.851  37.445  1.00  0.00     0.250 C 
HETATM   22  C   UNL     1      52.810  26.274  39.450  1.00  0.00     0.283 C 
HETATM   23  C   UNL     1      51.078  31.660  39.365  1.00  0.00     0.283 C 
HETATM   24  C   UNL     1      53.826  29.324  34.908  1.00  0.00     0.283 C 
HETATM   25  C   UNL     1      51.398  30.071  42.275  1.00  0.00     0.153 C 
HETATM   26  C   UNL     1      54.419  25.966  36.623  1.00  0.00     0.153 C 
HETATM   27  C   UNL     1      54.790  29.748  37.916  1.00  0.00     0.153 C 
ENDROOT
BRANCH  16  28
HETATM   28  C   UNL     1      50.494  26.830  42.184  1.00  0.00     0.016 C 
HETATM   29  C   UNL     1      49.620  25.710  41.621  1.00  0.00     0.012 C 
HETATM   30  C   UNL     1      51.246  26.349  43.424  1.00  0.00     0.012 C 
ENDBRANCH  16  28
BRANCH  14  31
HETATM   31  C   UNL     1      53.603  24.047  38.651  1.00  0.00     0.010 C 
HETATM   32  C   UNL     1      53.562  23.726  40.144  1.00  0.00     0.012 C 
HETATM   33  C   UNL     1      53.176  22.832  37.830  1.00  0.00     0.012 C 
ENDBRANCH  14  31
BRANCH  13  34
HETATM   34  C   UNL     1      49.338  31.804  41.151  1.00  0.00     0.010 C 
HETATM   35  C   UNL     1      48.208  31.058  41.861  1.00  0.00     0.012 C 
HETATM   36  C   UNL     1      48.782  32.980  40.352  1.00  0.00     0.012 C 
ENDBRANCH  13  34
BRANCH  18  37
HETATM   37  C   UNL     1      51.064  27.926  34.468  1.00  0.00     0.016 C 
HETATM   38  C   UNL     1      50.854  29.435  34.591  1.00  0.00     0.012 C 
HETATM   39  C   UNL     1      51.149  27.514  33.000  1.00  0.00     0.012 C 
ENDBRANCH  18  37
BRANCH  17  40
HETATM   40  C   UNL     1      53.393  33.570  39.328  1.00  0.00     0.016 C 
HETATM   41  C   UNL     1      54.692  34.265  38.925  1.00  0.00     0.012 C 
HETATM   42  C   UNL     1      53.131  33.748  40.822  1.00  0.00     0.012 C 
ENDBRANCH  17  40
BRANCH  15  43
HETATM   43  C   UNL     1      55.955  30.604  35.274  1.00  0.00     0.010 C 
HETATM   44  C   UNL     1      56.499  29.198  35.035  1.00  0.00     0.012 C 
HETATM   45  C   UNL     1      56.243  31.505  34.076  1.00  0.00     0.012 C 
ENDBRANCH  15  43
TORSDOF 6
ENDMDL
MODEL 2
REMARK VINA RESULT:    -5.175      5.186     10.139
REMARK INTER + INTRA:          -5.952
REMARK INTER:                  -6.738
REMARK INTRA:                   0.786
REMARK UNBOUND:                 1.038
REMARK  6 active torsions:
REMARK  status: ('A' for Active; 'I' for Inactive)
REMARK    1  A    between atoms: C_13  and  C_16 
REMARK    2  A    between atoms: C_14  and  C_17 
REMARK    3  A    between atoms: C_15  and  C_18 
REMARK    4  A    between atoms: C_19  and  C_22 
REMARK    5  A    between atoms: C_20  and  C_23 
REMARK    6  A    between atoms: C_21  and  C_24 
ROOT
HETATM    1  O   UNL     1      50.048  29.634  43.199  1.00  0.00    -0.304 OA
HETATM    2  O   UNL     1      47.737  26.969  46.986  1.00  0.00    -0.304 OA
HETATM    3  O   UNL     1      51.795  25.195  45.331  1.00  0.00    -0.304 OA
HETATM    4  O   UNL     1      50.298  29.221  45.746  1.00  0.00    -0.270 OA
HETATM    5  O   UNL     1      52.815  28.145  44.659  1.00  0.00    -0.270 OA
HETATM    6  O   UNL     1      49.129  24.371  48.336  1.00  0.00    -0.270 OA
HETATM    7  O   UNL     1      49.268  27.510  42.750  1.00  0.00    -0.263 OA
HETATM    8  O   UNL     1      48.634  27.194  49.095  1.00  0.00    -0.263 OA
HETATM    9  O   UNL     1      52.744  23.105  45.413  1.00  0.00    -0.263 OA
HETATM   10  N   UNL     1      48.073  29.490  46.316  1.00  0.00    -0.340 N 
HETATM   11  N   UNL     1      52.042  26.902  42.858  1.00  0.00    -0.340 N 
HETATM   12  N   UNL     1      49.342  24.356  46.020  1.00  0.00    -0.340 N 
HETATM   13  C   UNL     1      48.375  29.163  47.726  1.00  0.00     0.190 C 
HETATM   14  C   UNL     1      51.554  28.125  42.188  1.00  0.00     0.190 C 
HETATM   15  C   UNL     1      50.425  23.351  46.045  1.00  0.00     0.190 C 
HETATM   16  C   UNL     1      48.870  29.954  43.972  1.00  0.00     0.227 C 
HETATM   17  C   UNL     1      47.442  25.568  47.116  1.00  0.00     0.227 C 
HETATM   18  C   UNL     1      53.031  25.772  44.870  1.00  0.00     0.227 C 
HETATM   19  C   UNL     1      49.146  29.519  45.414  1.00  0.00     0.250 C 
HETATM   20  C   UNL     1      52.628  27.045  44.129  1.00  0.00     0.250 C 
HETATM   21  C   UNL     1      48.717  24.719  47.226  1.00  0.00     0.250 C 
HETATM   22  C   UNL     1      50.151  28.357  42.722  1.00  0.00     0.283 C 
HETATM   23  C   UNL     1      48.284  27.666  48.018  1.00  0.00     0.283 C 
HETATM   24  C   UNL     1      51.780  23.851  45.551  1.00  0.00     0.283 C 
HETATM   25  C   UNL     1      46.673  29.723  45.952  1.00  0.00     0.153 C 
HETATM   26  C   UNL     1      51.849  25.621  42.170  1.00  0.00     0.153 C 
HETATM   27  C   UNL     1      48.853  24.792  44.710  1.00  0.00     0.153 C 
ENDROOT
BRANCH  16  28
HETATM   28  C   UNL     1      48.686  31.462  43.889  1.00  0.00     0.016 C 
HETATM   29  C   UNL     1      49.991  32.183  44.225  1.00  0.00     0.012 C 
HETATM   30  C   UNL     1      48.191  31.871  42.503  1.00  0.00     0.012 C 
ENDBRANCH  16  28
BRANCH  14  31
HETATM   31  C   UNL     1      51.539  28.092  40.665  1.00  0.00     0.010 C 
HETATM   32  C   UNL     1      50.569  29.134  40.115  1.00  0.00     0.012 C 
HETATM   33  C   UNL     1      52.943  28.319  40.109  1.00  0.00     0.012 C 
ENDBRANCH  14  31
BRANCH  13  34
HETATM   34  C   UNL     1      47.525  29.937  48.733  1.00  0.00     0.010 C 
HETATM   35  C   UNL     1      48.402  30.528  49.837  1.00  0.00     0.012 C 
HETATM   36  C   UNL     1      46.445  29.039  49.333  1.00  0.00     0.012 C 
ENDBRANCH  13  34
BRANCH  18  37
HETATM   37  C   UNL     1      53.909  26.079  46.080  1.00  0.00     0.016 C 
HETATM   38  C   UNL     1      53.108  25.940  47.375  1.00  0.00     0.012 C 
HETATM   39  C   UNL     1      55.132  25.164  46.107  1.00  0.00     0.012 C 
ENDBRANCH  18  37
BRANCH  17  40
HETATM   40  C   UNL     1      46.454  25.298  48.251  1.00  0.00     0.016 C 
HETATM   41  C   UNL     1      46.141  23.807  48.348  1.00  0.00     0.012 C 
HETATM   42  C   UNL     1      45.172  26.104  48.050  1.00  0.00     0.012 C 
ENDBRANCH  17  40
BRANCH  15  43
HETATM   43  C   UNL     1      50.019  22.078  45.299  1.00  0.00     0.010 C 
HETATM   44  C   UNL     1      50.785  21.964  43.984  1.00  0.00     0.012 C 
HETATM   45  C   UNL     1      50.259  20.850  46.171  1.00  0.00     0.012 C 
ENDBRANCH  15  43
TORSDOF 6
ENDMDL
MODEL 3
REMARK VINA RESULT:    -5.094      2.155      6.745
REMARK INTER + INTRA:          -5.843
REMARK INTER:                  -7.067
REMARK INTRA:                   1.223
REMARK UNBOUND:                 1.038
REMARK  6 active torsions:
REMARK  status: ('A' for Active; 'I' for Inactive)
REMARK    1  A    between atoms: C_13  and  C_16 
REMARK    2  A    between atoms: C_14  and  C_17 
REMARK    3  A    between atoms: C_15  and  C_18 
REMARK    4  A    between atoms: C_19  and  C_22 
REMARK    5  A    between atoms: C_20  and  C_23 
REMARK    6  A    between atoms: C_21  and  C_24 
ROOT
HETATM    1  O   UNL     1      51.848  27.145  39.443  1.00  0.00    -0.304 OA
HETATM    2  O   UNL     1      51.864  31.851  37.290  1.00  0.00    -0.304 OA
HETATM    3  O   UNL     1      51.957  31.693  42.014  1.00  0.00    -0.304 OA
HETATM    4  O   UNL     1      53.507  29.076  38.953  1.00  0.00    -0.270 OA
HETATM    5  O   UNL     1      53.536  28.920  41.893  1.00  0.00    -0.270 OA
HETATM    6  O   UNL     1      52.192  34.540  39.071  1.00  0.00    -0.270 OA
HETATM    7  O   UNL     1      50.051  28.543  39.810  1.00  0.00    -0.263 OA
HETATM    8  O   UNL     1      53.888  32.947  37.234  1.00  0.00    -0.263 OA
HETATM    9  O   UNL     1      51.447  33.225  43.646  1.00  0.00    -0.263 OA
HETATM   10  N   UNL     1      52.867  29.477  36.767  1.00  0.00    -0.340 N 
HETATM   11  N   UNL     1      51.268  28.779  42.367  1.00  0.00    -0.340 N 
HETATM   12  N   UNL     1      50.714  33.032  40.050  1.00  0.00    -0.340 N 
HETATM   13  C   UNL     1      53.821  30.603  36.674  1.00  0.00     0.190 C 
HETATM   14  C   UNL     1      51.179  27.473  41.682  1.00  0.00     0.190 C 
HETATM   15  C   UNL     1      50.787  33.694  41.369  1.00  0.00     0.190 C 
HETATM   16  C   UNL     1      51.921  27.527  38.052  1.00  0.00     0.227 C 
HETATM   17  C   UNL     1      51.084  33.026  37.571  1.00  0.00     0.227 C 
HETATM   18  C   UNL     1      52.584  30.827  42.979  1.00  0.00     0.227 C 
HETATM   19  C   UNL     1      52.828  28.758  37.970  1.00  0.00     0.250 C 
HETATM   20  C   UNL     1      52.516  29.429  42.369  1.00  0.00     0.250 C 
HETATM   21  C   UNL     1      51.395  33.603  38.960  1.00  0.00     0.250 C 
HETATM   22  C   UNL     1      50.926  27.791  40.218  1.00  0.00     0.283 C 
HETATM   23  C   UNL     1      53.211  31.932  37.112  1.00  0.00     0.283 C 
HETATM   24  C   UNL     1      51.415  32.852  42.478  1.00  0.00     0.283 C 
HETATM   25  C   UNL     1      52.004  29.214  35.612  1.00  0.00     0.153 C 
HETATM   26  C   UNL     1      50.046  29.323  42.966  1.00  0.00     0.153 C 
HETATM   27  C   UNL     1      49.786  31.909  39.906  1.00  0.00     0.153 C 
ENDROOT
BRANCH  16  28
HETATM   28  C   UNL     1      52.537  26.354  37.305  1.00  0.00     0.016 C 
HETATM   29  C   UNL     1      53.024  25.287  38.284  1.00  0.00     0.012 C 
HETATM   30  C   UNL     1      51.535  25.756  36.318  1.00  0.00     0.012 C 
ENDBRANCH  16  28
BRANCH  14  31
HETATM   31  C   UNL     1      50.114  26.517  42.204  1.00  0.00     0.010 C 
HETATM   32  C   UNL     1      49.898  25.367  41.222  1.00  0.00     0.012 C 
HETATM   33  C   UNL     1      50.502  25.981  43.580  1.00  0.00     0.012 C 
ENDBRANCH  14  31
BRANCH  13  34
HETATM   34  C   UNL     1      54.457  30.758  35.293  1.00  0.00     0.010 C 
HETATM   35  C   UNL     1      55.202  29.484  34.896  1.00  0.00     0.012 C 
HETATM   36  C   UNL     1      55.400  31.960  35.264  1.00  0.00     0.012 C 
ENDBRANCH  13  34
BRANCH  18  37
HETATM   37  C   UNL     1      54.027  31.284  43.181  1.00  0.00     0.016 C 
HETATM   38  C   UNL     1      54.419  32.313  42.121  1.00  0.00     0.012 C 
HETATM   39  C   UNL     1      54.221  31.858  44.582  1.00  0.00     0.012 C 
ENDBRANCH  18  37
BRANCH  17  40
HETATM   40  C   UNL     1      51.204  34.068  36.459  1.00  0.00     0.016 C 
HETATM   41  C   UNL     1      50.106  35.121  36.589  1.00  0.00     0.012 C 
HETATM   42  C   UNL     1      51.146  33.398  35.087  1.00  0.00     0.012 C 
ENDBRANCH  17  40
BRANCH  15  43
HETATM   43  C   UNL     1      49.417  34.217  41.805  1.00  0.00     0.010 C 
HETATM   44  C   UNL     1      48.823  35.118  40.726  1.00  0.00     0.012 C 
HETATM   45  C   UNL     1      48.477  33.057  42.116  1.00  0.00     0.012 C 
ENDBRANCH  15  43
TORSDOF 6
ENDMDL
MODEL 4
REMARK VINA RESULT:    -5.062      4.676      9.704
REMARK INTER + INTRA:          -5.800
REMARK INTER:                  -6.507
REMARK INTRA:                   0.708
REMARK UNBOUND:                 1.038
REMARK  6 active torsions:
REMARK  status: ('A' for Active; 'I' for Inactive)
REMARK    1  A    between atoms: C_13  and  C_16 
REMARK    2  A    between atoms: C_14  and  C_17 
REMARK    3  A    between atoms: C_15  and  C_18 
REMARK    4  A    between atoms: C_19  and  C_22 
REMARK    5  A    between atoms: C_20  and  C_23 
REMARK    6  A    between atoms: C_21  and  C_24 
ROOT
HETATM    1  O   UNL     1      52.419  33.533  46.201  1.00  0.00    -0.304 OA
HETATM    2  O   UNL     1      50.969  31.025  41.913  1.00  0.00    -0.304 OA
HETATM    3  O   UNL     1      49.306  29.340  46.006  1.00  0.00    -0.304 OA
HETATM    4  O   UNL     1      50.344  33.308  44.664  1.00  0.00    -0.270 OA
HETATM    5  O   UNL     1      49.360  32.283  47.243  1.00  0.00    -0.270 OA
HETATM    6  O   UNL     1      48.824  28.597  42.001  1.00  0.00    -0.270 OA
HETATM    7  O   UNL     1      53.097  31.348  45.906  1.00  0.00    -0.263 OA
HETATM    8  O   UNL     1      48.834  31.438  41.155  1.00  0.00    -0.263 OA
HETATM    9  O   UNL     1      48.433  27.310  46.628  1.00  0.00    -0.263 OA
HETATM   10  N   UNL     1      51.445  33.508  42.639  1.00  0.00    -0.340 N 
HETATM   11  N   UNL     1      51.100  30.884  47.874  1.00  0.00    -0.340 N 
HETATM   12  N   UNL     1      50.381  28.433  43.721  1.00  0.00    -0.340 N 
HETATM   13  C   UNL     1      50.179  33.293  41.907  1.00  0.00     0.190 C 
HETATM   14  C   UNL     1      52.022  32.033  47.979  1.00  0.00     0.190 C 
HETATM   15  C   UNL     1      49.550  27.486  44.493  1.00  0.00     0.190 C 
HETATM   16  C   UNL     1      52.670  33.847  44.814  1.00  0.00     0.227 C 
HETATM   17  C   UNL     1      50.955  29.624  41.592  1.00  0.00     0.227 C 
HETATM   18  C   UNL     1      48.861  29.944  47.235  1.00  0.00     0.227 C 
HETATM   19  C   UNL     1      51.389  33.527  44.040  1.00  0.00     0.250 C 
HETATM   20  C   UNL     1      49.784  31.142  47.451  1.00  0.00     0.250 C 
HETATM   21  C   UNL     1      49.946  28.847  42.450  1.00  0.00     0.250 C 
HETATM   22  C   UNL     1      52.594  32.233  46.586  1.00  0.00     0.283 C 
HETATM   23  C   UNL     1      49.900  31.818  41.627  1.00  0.00     0.283 C 
HETATM   24  C   UNL     1      49.043  28.016  45.832  1.00  0.00     0.283 C 
HETATM   25  C   UNL     1      52.675  33.648  41.854  1.00  0.00     0.153 C 
HETATM   26  C   UNL     1      51.628  29.551  48.182  1.00  0.00     0.153 C 
HETATM   27  C   UNL     1      51.709  28.754  44.249  1.00  0.00     0.153 C 
ENDROOT
BRANCH  16  28
HETATM   28  C   UNL     1      52.980  35.336  44.750  1.00  0.00     0.016 C 
HETATM   29  C   UNL     1      52.494  36.043  46.014  1.00  0.00     0.012 C 
HETATM   30  C   UNL     1      54.478  35.568  44.551  1.00  0.00     0.012 C 
ENDBRANCH  16  28
BRANCH  14  31
HETATM   31  C   UNL     1      53.149  31.894  48.995  1.00  0.00     0.010 C 
HETATM   32  C   UNL     1      54.290  32.855  48.667  1.00  0.00     0.012 C 
HETATM   33  C   UNL     1      52.630  32.142  50.410  1.00  0.00     0.012 C 
ENDBRANCH  14  31
BRANCH  13  34
HETATM   34  C   UNL     1      50.075  34.092  40.609  1.00  0.00     0.010 C 
HETATM   35  C   UNL     1      48.847  35.002  40.632  1.00  0.00     0.012 C 
HETATM   36  C   UNL     1      50.026  33.159  39.401  1.00  0.00     0.012 C 
ENDBRANCH  13  34
BRANCH  18  37
HETATM   37  C   UNL     1      47.407  30.375  47.069  1.00  0.00     0.016 C 
HETATM   38  C   UNL     1      46.979  30.275  45.605  1.00  0.00     0.012 C 
HETATM   39  C   UNL     1      46.489  29.534  47.954  1.00  0.00     0.012 C 
ENDBRANCH  18  37
BRANCH  17  40
HETATM   40  C   UNL     1      50.764  29.385  40.095  1.00  0.00     0.016 C 
HETATM   41  C   UNL     1      50.867  27.896  39.770  1.00  0.00     0.012 C 
HETATM   42  C   UNL     1      51.787  30.183  39.288  1.00  0.00     0.012 C 
ENDBRANCH  17  40
BRANCH  15  43
HETATM   43  C   UNL     1      50.265  26.147  44.683  1.00  0.00     0.010 C 
HETATM   44  C   UNL     1      50.837  26.043  46.095  1.00  0.00     0.012 C 
HETATM   45  C   UNL     1      49.313  24.989  44.402  1.00  0.00     0.012 C 
ENDBRANCH  15  43
TORSDOF 6
ENDMDL
MODEL 5
REMARK VINA RESULT:    -4.886      2.735      7.381
REMARK INTER + INTRA:          -5.562
REMARK INTER:                  -6.288
REMARK INTRA:                   0.726
REMARK UNBOUND:                 1.038
REMARK  6 active torsions:
REMARK  status: ('A' for Active; 'I' for Inactive)
REMARK    1  A    between atoms: C_13  and  C_16 
REMARK    2  A    between atoms: C_14  and  C_17 
REMARK    3  A    between atoms: C_15  and  C_18 
REMARK    4  A    between atoms: C_19  and  C_22 
REMARK    5  A    between atoms: C_20  and  C_23 
REMARK    6  A    between atoms: C_21  and  C_24 
ROOT
HETATM    1  O   UNL     1      50.424  27.659  44.443  1.00  0.00    -0.304 OA
HETATM    2  O   UNL     1      52.107  28.074  39.567  1.00  0.00    -0.304 OA
HETATM    3  O   UNL     1      51.764  32.095  42.030  1.00  0.00    -0.304 OA
HETATM    4  O   UNL     1      52.644  28.023  43.156  1.00  0.00    -0.270 OA
HETATM    5  O   UNL     1      52.384  30.501  44.726  1.00  0.00    -0.270 OA
HETATM    6  O   UNL     1      53.127  30.900  38.351  1.00  0.00    -0.270 OA
HETATM    7  O   UNL     1      49.140  28.818  42.918  1.00  0.00    -0.263 OA
HETATM    8  O   UNL     1      54.372  28.377  39.286  1.00  0.00    -0.263 OA
HETATM    9  O   UNL     1      51.637  34.305  41.418  1.00  0.00    -0.263 OA
HETATM   10  N   UNL     1      52.343  26.375  41.561  1.00  0.00    -0.340 N 
HETATM   11  N   UNL     1      50.160  31.047  44.357  1.00  0.00    -0.340 N 
HETATM   12  N   UNL     1      51.173  31.150  39.590  1.00  0.00    -0.340 N 
HETATM   13  C   UNL     1      53.609  26.756  40.900  1.00  0.00     0.190 C 
HETATM   14  C   UNL     1      49.715  29.824  45.057  1.00  0.00     0.190 C 
HETATM   15  C   UNL     1      51.345  32.612  39.718  1.00  0.00     0.190 C 
HETATM   16  C   UNL     1      50.726  26.629  43.477  1.00  0.00     0.227 C 
HETATM   17  C   UNL     1      51.720  28.959  38.503  1.00  0.00     0.227 C 
HETATM   18  C   UNL     1      52.004  32.457  43.403  1.00  0.00     0.227 C 
HETATM   19  C   UNL     1      51.981  27.074  42.721  1.00  0.00     0.250 C 
HETATM   20  C   UNL     1      51.544  31.253  44.222  1.00  0.00     0.250 C 
HETATM   21  C   UNL     1      52.085  30.419  38.808  1.00  0.00     0.250 C 
HETATM   22  C   UNL     1      49.695  28.728  44.005  1.00  0.00     0.283 C 
HETATM   23  C   UNL     1      53.419  27.838  39.839  1.00  0.00     0.283 C 
HETATM   24  C   UNL     1      51.582  33.111  41.141  1.00  0.00     0.283 C 
HETATM   25  C   UNL     1      51.536  25.320  40.940  1.00  0.00     0.153 C 
HETATM   26  C   UNL     1      49.129  31.941  43.821  1.00  0.00     0.153 C 
HETATM   27  C   UNL     1      49.951  30.562  40.142  1.00  0.00     0.153 C 
ENDROOT
BRANCH  16  28
HETATM   28  C   UNL     1      50.995  25.354  44.262  1.00  0.00     0.016 C 
HETATM   29  C   UNL     1      51.397  25.680  45.700  1.00  0.00     0.012 C 
HETATM   30  C   UNL     1      49.771  24.439  44.243  1.00  0.00     0.012 C 
ENDBRANCH  16  28
BRANCH  14  31
HETATM   31  C   UNL     1      48.364  29.907  45.755  1.00  0.00     0.010 C 
HETATM   32  C   UNL     1      47.911  28.524  46.216  1.00  0.00     0.012 C 
HETATM   33  C   UNL     1      48.429  30.871  46.938  1.00  0.00     0.012 C 
ENDBRANCH  14  31
BRANCH  13  34
HETATM   34  C   UNL     1      54.371  25.575  40.300  1.00  0.00     0.010 C 
HETATM   35  C   UNL     1      55.832  25.594  40.746  1.00  0.00     0.012 C 
HETATM   36  C   UNL     1      54.276  25.588  38.776  1.00  0.00     0.012 C 
ENDBRANCH  13  34
BRANCH  18  37
HETATM   37  C   UNL     1      53.496  32.725  43.584  1.00  0.00     0.016 C 
HETATM   38  C   UNL     1      54.279  32.267  42.354  1.00  0.00     0.012 C 
HETATM   39  C   UNL     1      53.749  34.206  43.858  1.00  0.00     0.012 C 
ENDBRANCH  18  37
BRANCH  17  40
HETATM   40  C   UNL     1      52.254  28.488  37.150  1.00  0.00     0.016 C 
HETATM   41  C   UNL     1      51.882  29.481  36.050  1.00  0.00     0.012 C 
HETATM   42  C   UNL     1      51.722  27.095  36.818  1.00  0.00     0.012 C 
ENDBRANCH  17  40
BRANCH  15  43
HETATM   43  C   UNL     1      50.183  33.367  39.072  1.00  0.00     0.010 C 
HETATM   44  C   UNL     1      49.213  33.868  40.140  1.00  0.00     0.012 C 
HETATM   45  C   UNL     1      50.703  34.528  38.230  1.00  0.00     0.012 C 
ENDBRANCH  15  43
TORSDOF 6
ENDMDL
MODEL 6
REMARK VINA RESULT:    -4.858      2.012      8.245
REMARK INTER + INTRA:          -5.524
REMARK INTER:                  -6.244
REMARK INTRA:                   0.721
REMARK UNBOUND:                 1.038
REMARK  6 active torsions:
REMARK  status: ('A' for Active; 'I' for Inactive)
REMARK    1  A    between atoms: C_13  and  C_16 
REMARK    2  A    between atoms: C_14  and  C_17 
REMARK    3  A    between atoms: C_15  and  C_18 
REMARK    4  A    between atoms: C_19  and  C_22 
REMARK    5  A    between atoms: C_20  and  C_23 
REMARK    6  A    between atoms: C_21  and  C_24 
ROOT
HETATM    1  O   UNL     1      53.077  32.372  38.107  1.00  0.00    -0.304 OA
HETATM    2  O   UNL     1      53.064  27.299  39.128  1.00  0.00    -0.304 OA
HETATM    3  O   UNL     1      50.869  30.085  42.254  1.00  0.00    -0.304 OA
HETATM    4  O   UNL     1      51.461  30.348  37.988  1.00  0.00    -0.270 OA
HETATM    5  O   UNL     1      50.133  32.132  39.918  1.00  0.00    -0.270 OA
HETATM    6  O   UNL     1      51.413  26.068  41.631  1.00  0.00    -0.270 OA
HETATM    7  O   UNL     1      54.176  31.612  39.986  1.00  0.00    -0.263 OA
HETATM    8  O   UNL     1      51.109  26.167  38.684  1.00  0.00    -0.263 OA
HETATM    9  O   UNL     1      50.252  29.801  44.448  1.00  0.00    -0.263 OA
HETATM   10  N   UNL     1      52.926  28.850  37.009  1.00  0.00    -0.340 N 
HETATM   11  N   UNL     1      51.910  32.741  41.279  1.00  0.00    -0.340 N 
HETATM   12  N   UNL     1      52.561  28.003  42.224  1.00  0.00    -0.340 N 
HETATM   13  C   UNL     1      51.909  27.780  37.079  1.00  0.00     0.190 C 
HETATM   14  C   UNL     1      52.571  33.433  40.153  1.00  0.00     0.190 C 
HETATM   15  C   UNL     1      51.761  28.198  43.452  1.00  0.00     0.190 C 
HETATM   16  C   UNL     1      53.566  31.267  37.317  1.00  0.00     0.227 C 
HETATM   17  C   UNL     1      53.368  26.573  40.332  1.00  0.00     0.227 C 
HETATM   18  C   UNL     1      50.067  31.277  42.150  1.00  0.00     0.227 C 
HETATM   19  C   UNL     1      52.562  30.122  37.473  1.00  0.00     0.250 C 
HETATM   20  C   UNL     1      50.694  32.085  41.016  1.00  0.00     0.250 C 
HETATM   21  C   UNL     1      52.348  26.852  41.445  1.00  0.00     0.250 C 
HETATM   22  C   UNL     1      53.389  32.372  39.437  1.00  0.00     0.283 C 
HETATM   23  C   UNL     1      51.962  26.998  38.390  1.00  0.00     0.283 C 
HETATM   24  C   UNL     1      50.888  29.451  43.459  1.00  0.00     0.283 C 
HETATM   25  C   UNL     1      54.254  28.500  36.495  1.00  0.00     0.153 C 
HETATM   26  C   UNL     1      52.584  32.755  42.581  1.00  0.00     0.153 C 
HETATM   27  C   UNL     1      53.663  28.935  41.980  1.00  0.00     0.153 C 
ENDROOT
BRANCH  16  28
HETATM   28  C   UNL     1      53.616  31.746  35.873  1.00  0.00     0.016 C 
HETATM   29  C   UNL     1      52.517  32.774  35.608  1.00  0.00     0.012 C 
HETATM   30  C   UNL     1      54.988  32.334  35.546  1.00  0.00     0.012 C 
ENDBRANCH  16  28
BRANCH  14  31
HETATM   31  C   UNL     1      53.454  34.618  40.523  1.00  0.00     0.010 C 
HETATM   32  C   UNL     1      54.469  34.897  39.417  1.00  0.00     0.012 C 
HETATM   33  C   UNL     1      52.605  35.857  40.795  1.00  0.00     0.012 C 
ENDBRANCH  14  31
BRANCH  13  34
HETATM   34  C   UNL     1      51.953  26.809  35.899  1.00  0.00     0.010 C 
HETATM   35  C   UNL     1      50.605  26.775  35.178  1.00  0.00     0.012 C 
HETATM   36  C   UNL     1      52.346  25.409  36.364  1.00  0.00     0.012 C 
ENDBRANCH  13  34
BRANCH  18  37
HETATM   37  C   UNL     1      48.631  30.872  41.827  1.00  0.00     0.016 C 
HETATM   38  C   UNL     1      48.577  29.426  41.335  1.00  0.00     0.012 C 
HETATM   39  C   UNL     1      47.730  31.057  43.046  1.00  0.00     0.012 C 
ENDBRANCH  18  37
BRANCH  17  40
HETATM   40  C   UNL     1      53.554  25.079  40.063  1.00  0.00     0.016 C 
HETATM   41  C   UNL     1      53.883  24.337  41.356  1.00  0.00     0.012 C 
HETATM   42  C   UNL     1      54.647  24.853  39.021  1.00  0.00     0.012 C 
ENDBRANCH  17  40
BRANCH  15  43
HETATM   43  C   UNL     1      52.641  28.151  44.702  1.00  0.00     0.010 C 
HETATM   44  C   UNL     1      52.895  29.561  45.228  1.00  0.00     0.012 C 
HETATM   45  C   UNL     1      51.994  27.283  45.777  1.00  0.00     0.012 C 
ENDBRANCH  15  43
TORSDOF 6
ENDMDL
MODEL 7
REMARK VINA RESULT:    -4.775      4.604      9.819
REMARK INTER + INTRA:          -5.412
REMARK INTER:                  -6.176
REMARK INTRA:                   0.764
REMARK UNBOUND:                 1.038
REMARK  6 active torsions:
REMARK  status: ('A' for Active; 'I' for Inactive)
REMARK    1  A    between atoms: C_13  and  C_16 
REMARK    2  A    between atoms: C_14  and  C_17 
REMARK    3  A    between atoms: C_15  and  C_18 
REMARK    4  A    between atoms: C_19  and  C_22 
REMARK    5  A    between atoms: C_20  and  C_23 
REMARK    6  A    between atoms: C_21  and  C_24 
ROOT
HETATM    1  O   UNL     1      48.266  29.625  44.490  1.00  0.00    -0.304 OA
HETATM    2  O   UNL     1      53.043  27.935  43.439  1.00  0.00    -0.304 OA
HETATM    3  O   UNL     1      50.504  25.337  46.466  1.00  0.00    -0.304 OA
HETATM    4  O   UNL     1      49.435  27.791  43.081  1.00  0.00    -0.270 OA
HETATM    5  O   UNL     1      47.820  26.225  44.982  1.00  0.00    -0.270 OA
HETATM    6  O   UNL     1      54.141  25.108  44.582  1.00  0.00    -0.270 OA
HETATM    7  O   UNL     1      49.824  29.565  46.189  1.00  0.00    -0.263 OA
HETATM    8  O   UNL     1      53.207  26.166  41.975  1.00  0.00    -0.263 OA
HETATM    9  O   UNL     1      51.069  23.769  48.045  1.00  0.00    -0.263 OA
HETATM   10  N   UNL     1      51.081  29.124  42.153  1.00  0.00    -0.340 N 
HETATM   11  N   UNL     1      48.284  27.311  46.979  1.00  0.00    -0.340 N 
HETATM   12  N   UNL     1      52.992  26.308  46.211  1.00  0.00    -0.340 N 
HETATM   13  C   UNL     1      51.671  27.955  41.469  1.00  0.00     0.190 C 
HETATM   14  C   UNL     1      47.635  28.545  46.490  1.00  0.00     0.190 C 
HETATM   15  C   UNL     1      52.821  25.124  47.079  1.00  0.00     0.190 C 
HETATM   16  C   UNL     1      49.241  30.128  43.551  1.00  0.00     0.227 C 
HETATM   17  C   UNL     1      54.104  27.492  44.303  1.00  0.00     0.227 C 
HETATM   18  C   UNL     1      49.113  24.979  46.562  1.00  0.00     0.227 C 
HETATM   19  C   UNL     1      49.924  28.914  42.916  1.00  0.00     0.250 C 
HETATM   20  C   UNL     1      48.347  26.216  46.099  1.00  0.00     0.250 C 
HETATM   21  C   UNL     1      53.746  26.188  45.030  1.00  0.00     0.250 C 
HETATM   22  C   UNL     1      48.714  29.310  45.742  1.00  0.00     0.283 C 
HETATM   23  C   UNL     1      52.713  27.234  42.321  1.00  0.00     0.283 C 
HETATM   24  C   UNL     1      51.376  24.669  47.271  1.00  0.00     0.283 C 
HETATM   25  C   UNL     1      51.766  30.413  42.019  1.00  0.00     0.153 C 
HETATM   26  C   UNL     1      48.848  27.324  48.333  1.00  0.00     0.153 C 
HETATM   27  C   UNL     1      52.515  27.595  46.721  1.00  0.00     0.153 C 
ENDROOT
BRANCH  16  28
HETATM   28  C   UNL     1      48.474  30.923  42.504  1.00  0.00     0.016 C 
HETATM   29  C   UNL     1      46.969  30.704  42.655  1.00  0.00     0.012 C 
HETATM   30  C   UNL     1      48.810  32.411  42.601  1.00  0.00     0.012 C 
ENDBRANCH  16  28
BRANCH  14  31
HETATM   31  C   UNL     1      47.002  29.433  47.554  1.00  0.00     0.010 C 
HETATM   32  C   UNL     1      46.601  30.781  46.959  1.00  0.00     0.012 C 
HETATM   33  C   UNL     1      45.793  28.743  48.180  1.00  0.00     0.012 C 
ENDBRANCH  14  31
BRANCH  13  34
HETATM   34  C   UNL     1      52.261  28.277  40.096  1.00  0.00     0.010 C 
HETATM   35  C   UNL     1      51.652  27.375  39.023  1.00  0.00     0.012 C 
HETATM   36  C   UNL     1      53.781  28.135  40.114  1.00  0.00     0.012 C 
ENDBRANCH  13  34
BRANCH  18  37
HETATM   37  C   UNL     1      48.853  23.781  45.651  1.00  0.00     0.016 C 
HETATM   38  C   UNL     1      50.062  23.514  44.755  1.00  0.00     0.012 C 
HETATM   39  C   UNL     1      48.512  22.541  46.474  1.00  0.00     0.012 C 
ENDBRANCH  18  37
BRANCH  17  40
HETATM   40  C   UNL     1      55.440  27.409  43.565  1.00  0.00     0.016 C 
HETATM   41  C   UNL     1      56.546  26.941  44.508  1.00  0.00     0.012 C 
HETATM   42  C   UNL     1      55.797  28.759  42.947  1.00  0.00     0.012 C 
ENDBRANCH  17  40
BRANCH  15  43
HETATM   43  C   UNL     1      53.504  25.323  48.432  1.00  0.00     0.010 C 
HETATM   44  C   UNL     1      52.466  25.593  49.519  1.00  0.00     0.012 C 
HETATM   45  C   UNL     1      54.351  24.104  48.787  1.00  0.00     0.012 C 
ENDBRANCH  15  43
TORSDOF 6
ENDMDL
MODEL 8
REMARK VINA RESULT:    -4.737      5.299     10.152
REMARK INTER + INTRA:          -5.360
REMARK INTER:                  -6.364
REMARK INTRA:                   1.003
REMARK UNBOUND:                 1.038
REMARK  6 active torsions:
REMARK  status: ('A' for Active; 'I' for Inactive)
REMARK    1  A    between atoms: C_13  and  C_16 
REMARK    2  A    between atoms: C_14  and  C_17 
REMARK    3  A    between atoms: C_15  and  C_18 
REMARK    4  A    between atoms: C_19  and  C_22 
REMARK    5  A    between atoms: C_20  and  C_23 
REMARK    6  A    between atoms: C_21  and  C_24 
ROOT
HETATM    1  O   UNL     1      47.780  26.031  47.783  1.00  0.00    -0.304 OA
HETATM    2  O   UNL     1      50.606  26.843  43.524  1.00  0.00    -0.304 OA
HETATM    3  O   UNL     1      49.758  30.616  46.244  1.00  0.00    -0.304 OA
HETATM    4  O   UNL     1      50.254  26.418  47.111  1.00  0.00    -0.270 OA
HETATM    5  O   UNL     1      49.672  28.740  48.826  1.00  0.00    -0.270 OA
HETATM    6  O   UNL     1      51.948  29.725  42.893  1.00  0.00    -0.270 OA
HETATM    7  O   UNL     1      46.930  27.391  46.126  1.00  0.00    -0.263 OA
HETATM    8  O   UNL     1      52.877  27.069  43.827  1.00  0.00    -0.263 OA
HETATM    9  O   UNL     1      49.829  32.878  45.857  1.00  0.00    -0.263 OA
HETATM   10  N   UNL     1      50.315  24.949  45.326  1.00  0.00    -0.340 N 
HETATM   11  N   UNL     1      47.615  29.420  47.995  1.00  0.00    -0.340 N 
HETATM   12  N   UNL     1      49.758  29.942  43.648  1.00  0.00    -0.340 N 
HETATM   13  C   UNL     1      51.711  25.334  45.031  1.00  0.00     0.190 C 
HETATM   14  C   UNL     1      46.989  28.156  48.436  1.00  0.00     0.190 C 
HETATM   15  C   UNL     1      49.924  31.375  43.967  1.00  0.00     0.190 C 
HETATM   16  C   UNL     1      48.287  25.088  46.814  1.00  0.00     0.227 C 
HETATM   17  C   UNL     1      50.507  27.845  42.498  1.00  0.00     0.227 C 
HETATM   18  C   UNL     1      49.665  30.831  47.666  1.00  0.00     0.227 C 
HETATM   19  C   UNL     1      49.697  25.547  46.432  1.00  0.00     0.250 C 
HETATM   20  C   UNL     1      48.995  29.574  48.218  1.00  0.00     0.250 C 
HETATM   21  C   UNL     1      50.818  29.250  43.035  1.00  0.00     0.250 C 
HETATM   22  C   UNL     1      47.203  27.171  47.299  1.00  0.00     0.283 C 
HETATM   23  C   UNL     1      51.808  26.523  44.076  1.00  0.00     0.283 C 
HETATM   24  C   UNL     1      49.819  31.721  45.451  1.00  0.00     0.283 C 
HETATM   25  C   UNL     1      49.662  23.998  44.421  1.00  0.00     0.153 C 
HETATM   26  C   UNL     1      46.764  30.408  47.326  1.00  0.00     0.153 C 
HETATM   27  C   UNL     1      48.427  29.359  43.826  1.00  0.00     0.153 C 
ENDROOT
BRANCH  16  28
HETATM   28  C   UNL     1      48.331  23.731  47.501  1.00  0.00     0.016 C 
HETATM   29  C   UNL     1      48.920  23.857  48.906  1.00  0.00     0.012 C 
HETATM   30  C   UNL     1      46.936  23.110  47.561  1.00  0.00     0.012 C 
ENDBRANCH  16  28
BRANCH  14  31
HETATM   31  C   UNL     1      45.511  28.233  48.794  1.00  0.00     0.010 C 
HETATM   32  C   UNL     1      44.826  26.892  48.539  1.00  0.00     0.012 C 
HETATM   33  C   UNL     1      45.332  28.656  50.250  1.00  0.00     0.012 C 
ENDBRANCH  14  31
BRANCH  13  34
HETATM   34  C   UNL     1      52.571  24.184  44.509  1.00  0.00     0.010 C 
HETATM   35  C   UNL     1      53.873  24.081  45.303  1.00  0.00     0.012 C 
HETATM   36  C   UNL     1      52.865  24.359  43.021  1.00  0.00     0.012 C 
ENDBRANCH  13  34
BRANCH  18  37
HETATM   37  C   UNL     1      51.073  31.012  48.226  1.00  0.00     0.016 C 
HETATM   38  C   UNL     1      52.122  30.627  47.182  1.00  0.00     0.012 C 
HETATM   39  C   UNL     1      51.288  32.449  48.695  1.00  0.00     0.012 C 
ENDBRANCH  18  37
BRANCH  17  40
HETATM   40  C   UNL     1      51.344  27.485  41.270  1.00  0.00     0.016 C 
HETATM   41  C   UNL     1      51.253  28.586  40.216  1.00  0.00     0.012 C 
HETATM   42  C   UNL     1      50.894  26.146  40.688  1.00  0.00     0.012 C 
ENDBRANCH  17  40
BRANCH  15  43
HETATM   43  C   UNL     1      48.969  32.242  43.146  1.00  0.00     0.010 C 
HETATM   44  C   UNL     1      49.679  33.502  42.658  1.00  0.00     0.012 C 
HETATM   45  C   UNL     1      48.408  31.450  41.969  1.00  0.00     0.012 C 
ENDBRANCH  15  43
TORSDOF 6
ENDMDL
MODEL 9
REMARK VINA RESULT:    -4.667      5.462     10.682
REMARK INTER + INTRA:          -5.266
REMARK INTER:                  -5.994
REMARK INTRA:                   0.728
REMARK UNBOUND:                 1.038
REMARK  6 active torsions:
REMARK  status: ('A' for Active; 'I' for Inactive)
REMARK    1  A    between atoms: C_13  and  C_16 
REMARK    2  A    between atoms: C_14  and  C_17 
REMARK    3  A    between atoms: C_15  and  C_18 
REMARK    4  A    between atoms: C_19  and  C_22 
REMARK    5  A    between atoms: C_20  and  C_23 
REMARK    6  A    between atoms: C_21  and  C_24 
ROOT
HETATM    1  O   UNL     1      51.728  31.498  47.128  1.00  0.00    -0.304 OA
HETATM    2  O   UNL     1      50.771  28.199  43.257  1.00  0.00    -0.304 OA
HETATM    3  O   UNL     1      48.436  27.444  47.298  1.00  0.00    -0.304 OA
HETATM    4  O   UNL     1      49.890  31.018  45.365  1.00  0.00    -0.270 OA
HETATM    5  O   UNL     1      48.483  30.576  47.914  1.00  0.00    -0.270 OA
HETATM    6  O   UNL     1      48.497  25.902  43.498  1.00  0.00    -0.270 OA
HETATM    7  O   UNL     1      52.313  29.281  47.384  1.00  0.00    -0.263 OA
HETATM    8  O   UNL     1      48.797  28.506  42.112  1.00  0.00    -0.263 OA
HETATM    9  O   UNL     1      47.363  25.611  48.172  1.00  0.00    -0.263 OA
HETATM   10  N   UNL     1      51.282  30.764  43.537  1.00  0.00    -0.340 N 
HETATM   11  N   UNL     1      50.027  29.290  49.073  1.00  0.00    -0.340 N 
HETATM   12  N   UNL     1      49.776  26.054  45.435  1.00  0.00    -0.340 N 
HETATM   13  C   UNL     1      50.126  30.438  42.676  1.00  0.00     0.190 C 
HETATM   14  C   UNL     1      50.990  30.410  49.087  1.00  0.00     0.190 C 
HETATM   15  C   UNL     1      48.787  25.310  46.243  1.00  0.00     0.190 C 
HETATM   16  C   UNL     1      52.197  31.512  45.762  1.00  0.00     0.227 C 
HETATM   17  C   UNL     1      50.722  26.762  43.226  1.00  0.00     0.227 C 
HETATM   18  C   UNL     1      47.854  28.301  48.298  1.00  0.00     0.227 C 
HETATM   19  C   UNL     1      51.025  31.074  44.879  1.00  0.00     0.250 C 
HETATM   20  C   UNL     1      48.804  29.491  48.409  1.00  0.00     0.250 C 
HETATM   21  C   UNL     1      49.555  26.209  44.056  1.00  0.00     0.250 C 
HETATM   22  C   UNL     1      51.769  30.301  47.787  1.00  0.00     0.283 C 
HETATM   23  C   UNL     1      49.804  28.945  42.658  1.00  0.00     0.283 C 
HETATM   24  C   UNL     1      48.123  26.120  47.355  1.00  0.00     0.283 C 
HETATM   25  C   UNL     1      52.619  30.704  42.938  1.00  0.00     0.153 C 
HETATM   26  C   UNL     1      50.425  28.036  49.720  1.00  0.00     0.153 C 
HETATM   27  C   UNL     1      51.030  26.440  46.086  1.00  0.00     0.153 C 
ENDROOT
BRANCH  16  28
HETATM   28  C   UNL     1      52.600  32.945  45.449  1.00  0.00     0.016 C 
HETATM   29  C   UNL     1      51.772  33.930  46.274  1.00  0.00     0.012 C 
HETATM   30  C   UNL     1      54.092  33.155  45.706  1.00  0.00     0.012 C 
ENDBRANCH  16  28
BRANCH  14  31
HETATM   31  C   UNL     1      51.947  30.453  50.272  1.00  0.00     0.010 C 
HETATM   32  C   UNL     1      53.178  31.293  49.937  1.00  0.00     0.012 C 
HETATM   33  C   UNL     1      51.244  31.002  51.511  1.00  0.00     0.012 C 
ENDBRANCH  14  31
BRANCH  13  34
HETATM   34  C   UNL     1      50.259  30.954  41.244  1.00  0.00     0.010 C 
HETATM   35  C   UNL     1      49.094  31.880  40.894  1.00  0.00     0.012 C 
HETATM   36  C   UNL     1      50.333  29.792  40.255  1.00  0.00     0.012 C 
ENDBRANCH  13  34
BRANCH  18  37
HETATM   37  C   UNL     1      46.466  28.729  47.827  1.00  0.00     0.016 C 
HETATM   38  C   UNL     1      46.217  28.263  46.393  1.00  0.00     0.012 C 
HETATM   39  C   UNL     1      45.387  28.186  48.762  1.00  0.00     0.012 C 
ENDBRANCH  18  37
BRANCH  17  40
HETATM   40  C   UNL     1      50.736  26.224  41.795  1.00  0.00     0.016 C 
HETATM   41  C   UNL     1      50.644  24.700  41.792  1.00  0.00     0.012 C 
HETATM   42  C   UNL     1      51.992  26.688  41.059  1.00  0.00     0.012 C 
ENDBRANCH  17  40
BRANCH  15  43
HETATM   43  C   UNL     1      49.387  24.020  46.806  1.00  0.00     0.010 C 
HETATM   44  C   UNL     1      49.693  24.178  48.293  1.00  0.00     0.012 C 
HETATM   45  C   UNL     1      48.441  22.846  46.572  1.00  0.00     0.012 C 
ENDBRANCH  15  43
TORSDOF 6
ENDMDL
MODEL 10
REMARK VINA RESULT:    -4.645      3.485      9.335
REMARK INTER + INTRA:          -5.237
REMARK INTER:                  -6.393
REMARK INTRA:                   1.156
REMARK UNBOUND:                 1.038
REMARK  6 active torsions:
REMARK  status: ('A' for Active; 'I' for Inactive)
REMARK    1  A    between atoms: C_13  and  C_16 
REMARK    2  A    between atoms: C_14  and  C_17 
REMARK    3  A    between atoms: C_15  and  C_18 
REMARK    4  A    between atoms: C_19  and  C_22 
REMARK    5  A    between atoms: C_20  and  C_23 
REMARK    6  A    between atoms: C_21  and  C_24 
ROOT
HETATM    1  O   UNL     1      56.853  34.825  39.870  1.00  0.00    -0.304 OA
HETATM    2  O   UNL     1      52.989  31.497  38.988  1.00  0.00    -0.304 OA
HETATM    3  O   UNL     1      51.835  35.549  41.133  1.00  0.00    -0.304 OA
HETATM    4  O   UNL     1      54.862  34.513  38.239  1.00  0.00    -0.270 OA
HETATM    5  O   UNL     1      54.203  37.041  39.598  1.00  0.00    -0.270 OA
HETATM    6  O   UNL     1      49.904  32.259  39.627  1.00  0.00    -0.270 OA
HETATM    7  O   UNL     1      55.756  33.891  41.670  1.00  0.00    -0.263 OA
HETATM    8  O   UNL     1      51.603  31.980  37.214  1.00  0.00    -0.263 OA
HETATM    9  O   UNL     1      50.034  36.195  42.403  1.00  0.00    -0.263 OA
HETATM   10  N   UNL     1      55.194  32.270  37.782  1.00  0.00    -0.340 N 
HETATM   11  N   UNL     1      54.616  36.491  41.814  1.00  0.00    -0.340 N 
HETATM   12  N   UNL     1      51.328  32.923  41.343  1.00  0.00    -0.340 N 
HETATM   13  C   UNL     1      53.984  32.244  36.934  1.00  0.00     0.190 C 
HETATM   14  C   UNL     1      56.053  36.302  41.527  1.00  0.00     0.190 C 
HETATM   15  C   UNL     1      50.330  33.845  41.923  1.00  0.00     0.190 C 
HETATM   16  C   UNL     1      56.857  33.567  39.160  1.00  0.00     0.227 C 
HETATM   17  C   UNL     1      51.943  31.010  39.846  1.00  0.00     0.227 C 
HETATM   18  C   UNL     1      52.277  36.914  41.009  1.00  0.00     0.227 C 
HETATM   19  C   UNL     1      55.553  33.495  38.361  1.00  0.00     0.250 C 
HETATM   20  C   UNL     1      53.777  36.827  40.737  1.00  0.00     0.250 C 
HETATM   21  C   UNL     1      50.963  32.122  40.246  1.00  0.00     0.250 C 
HETATM   22  C   UNL     1      56.197  34.860  41.068  1.00  0.00     0.283 C 
HETATM   23  C   UNL     1      52.718  31.911  37.721  1.00  0.00     0.283 C 
HETATM   24  C   UNL     1      50.710  35.323  41.868  1.00  0.00     0.283 C 
HETATM   25  C   UNL     1      55.913  31.010  37.988  1.00  0.00     0.153 C 
HETATM   26  C   UNL     1      54.159  36.280  43.191  1.00  0.00     0.153 C 
HETATM   27  C   UNL     1      52.596  32.761  42.056  1.00  0.00     0.153 C 
ENDROOT
BRANCH  16  28
HETATM   28  C   UNL     1      58.059  33.592  38.228  1.00  0.00     0.016 C 
HETATM   29  C   UNL     1      58.524  35.027  37.985  1.00  0.00     0.012 C 
HETATM   30  C   UNL     1      59.201  32.749  38.794  1.00  0.00     0.012 C 
ENDBRANCH  16  28
BRANCH  14  31
HETATM   31  C   UNL     1      57.007  36.584  42.681  1.00  0.00     0.010 C 
HETATM   32  C   UNL     1      58.345  35.882  42.456  1.00  0.00     0.012 C 
HETATM   33  C   UNL     1      57.214  38.087  42.852  1.00  0.00     0.012 C 
ENDBRANCH  14  31
BRANCH  13  34
HETATM   34  C   UNL     1      54.098  31.314  35.726  1.00  0.00     0.010 C 
HETATM   35  C   UNL     1      55.342  31.649  34.904  1.00  0.00     0.012 C 
HETATM   36  C   UNL     1      52.845  31.400  34.857  1.00  0.00     0.012 C 
ENDBRANCH  13  34
BRANCH  18  37
HETATM   37  C   UNL     1      51.530  37.566  39.849  1.00  0.00     0.016 C 
HETATM   38  C   UNL     1      50.761  36.517  39.046  1.00  0.00     0.012 C 
HETATM   39  C   UNL     1      50.583  38.651  40.357  1.00  0.00     0.012 C 
ENDBRANCH  18  37
BRANCH  17  40
HETATM   40  C   UNL     1      51.239  29.791  39.248  1.00  0.00     0.016 C 
HETATM   41  C   UNL     1      50.351  29.117  40.291  1.00  0.00     0.012 C 
HETATM   42  C   UNL     1      52.261  28.800  38.692  1.00  0.00     0.012 C 
ENDBRANCH  17  40
BRANCH  15  43
HETATM   43  C   UNL     1      49.964  33.440  43.352  1.00  0.00     0.010 C 
HETATM   44  C   UNL     1      49.517  31.981  43.395  1.00  0.00     0.012 C 
HETATM   45  C   UNL     1      51.144  33.671  44.291  1.00  0.00     0.012 C 
ENDBRANCH  15  43
TORSDOF 6
ENDMDL
MODEL 11
REMARK VINA RESULT:    -4.643     12.207     16.466
REMARK INTER + INTRA:          -5.233
REMARK INTER:                  -6.243
REMARK INTRA:                   1.009
REMARK UNBOUND:                 1.038
REMARK  6 active torsions:
REMARK  status: ('A' for Active; 'I' for Inactive)
REMARK    1  A    between atoms: C_13  and  C_16 
REMARK    2  A    between atoms: C_14  and  C_17 
REMARK    3  A    between atoms: C_15  and  C_18 
REMARK    4  A    between atoms: C_19  and  C_22 
REMARK    5  A    between atoms: C_20  and  C_23 
REMARK    6  A    between atoms: C_21  and  C_24 
ROOT
HETATM    1  O   UNL     1      46.362  21.255  51.072  1.00  0.00    -0.304 OA
HETATM    2  O   UNL     1      43.240  24.562  53.541  1.00  0.00    -0.304 OA
HETATM    3  O   UNL     1      46.118  26.414  50.278  1.00  0.00    -0.304 OA
HETATM    4  O   UNL     1      44.174  22.579  50.649  1.00  0.00    -0.270 OA
HETATM    5  O   UNL     1      46.007  23.683  48.626  1.00  0.00    -0.270 OA
HETATM    6  O   UNL     1      43.072  27.691  52.710  1.00  0.00    -0.270 OA
HETATM    7  O   UNL     1      47.300  22.882  52.410  1.00  0.00    -0.263 OA
HETATM    8  O   UNL     1      41.382  25.277  52.385  1.00  0.00    -0.263 OA
HETATM    9  O   UNL     1      46.882  28.543  49.886  1.00  0.00    -0.263 OA
HETATM   10  N   UNL     1      43.132  22.088  52.655  1.00  0.00    -0.340 N 
HETATM   11  N   UNL     1      47.924  24.032  49.886  1.00  0.00    -0.340 N 
HETATM   12  N   UNL     1      45.271  26.932  52.770  1.00  0.00    -0.340 N 
HETATM   13  C   UNL     1      41.983  22.944  52.289  1.00  0.00     0.190 C 
HETATM   14  C   UNL     1      48.067  22.580  50.120  1.00  0.00     0.190 C 
HETATM   15  C   UNL     1      45.773  28.077  51.982  1.00  0.00     0.190 C 
HETATM   16  C   UNL     1      45.317  20.999  52.035  1.00  0.00     0.227 C 
HETATM   17  C   UNL     1      43.505  25.830  54.165  1.00  0.00     0.227 C 
HETATM   18  C   UNL     1      46.601  25.970  48.996  1.00  0.00     0.227 C 
HETATM   19  C   UNL     1      44.167  21.958  51.718  1.00  0.00     0.250 C 
HETATM   20  C   UNL     1      46.811  24.465  49.144  1.00  0.00     0.250 C 
HETATM   21  C   UNL     1      43.916  26.900  53.143  1.00  0.00     0.250 C 
HETATM   22  C   UNL     1      47.228  22.275  51.350  1.00  0.00     0.283 C 
HETATM   23  C   UNL     1      42.166  24.397  52.723  1.00  0.00     0.283 C 
HETATM   24  C   UNL     1      46.334  27.717  50.608  1.00  0.00     0.283 C 
HETATM   25  C   UNL     1      43.128  21.467  53.982  1.00  0.00     0.153 C 
HETATM   26  C   UNL     1      48.930  24.922  50.473  1.00  0.00     0.153 C 
HETATM   27  C   UNL     1      46.257  25.975  53.276  1.00  0.00     0.153 C 
ENDROOT
BRANCH  16  28
HETATM   28  C   UNL     1      44.882  19.554  51.839  1.00  0.00     0.016 C 
HETATM   29  C   UNL     1      45.498  18.973  50.567  1.00  0.00     0.012 C 
HETATM   30  C   UNL     1      45.262  18.706  53.052  1.00  0.00     0.012 C 
ENDBRANCH  16  28
BRANCH  14  31
HETATM   31  C   UNL     1      49.490  22.072  50.314  1.00  0.00     0.010 C 
HETATM   32  C   UNL     1      49.485  20.723  51.031  1.00  0.00     0.012 C 
HETATM   33  C   UNL     1      50.210  21.963  48.972  1.00  0.00     0.012 C 
ENDBRANCH  14  31
BRANCH  13  34
HETATM   34  C   UNL     1      40.639  22.421  52.796  1.00  0.00     0.010 C 
HETATM   35  C   UNL     1      40.286  21.096  52.120  1.00  0.00     0.012 C 
HETATM   36  C   UNL     1      39.535  23.450  52.564  1.00  0.00     0.012 C 
ENDBRANCH  13  34
BRANCH  18  37
HETATM   37  C   UNL     1      45.548  26.292  47.938  1.00  0.00     0.016 C 
HETATM   38  C   UNL     1      44.234  26.713  48.597  1.00  0.00     0.012 C 
HETATM   39  C   UNL     1      46.046  27.383  46.993  1.00  0.00     0.012 C 
ENDBRANCH  18  37
BRANCH  17  40
HETATM   40  C   UNL     1      42.346  26.279  55.055  1.00  0.00     0.016 C 
HETATM   41  C   UNL     1      42.767  27.453  55.936  1.00  0.00     0.012 C 
HETATM   42  C   UNL     1      41.846  25.117  55.912  1.00  0.00     0.012 C 
ENDBRANCH  17  40
BRANCH  15  43
HETATM   43  C   UNL     1      46.789  28.897  52.777  1.00  0.00     0.010 C 
HETATM   44  C   UNL     1      48.201  28.657  52.247  1.00  0.00     0.012 C 
HETATM   45  C   UNL     1      46.438  30.381  52.723  1.00  0.00     0.012 C 
ENDBRANCH  15  43
TORSDOF 6
ENDMDL
MODEL 12
REMARK VINA RESULT:    -4.538      2.194      6.883
REMARK INTER + INTRA:          -5.091
REMARK INTER:                  -6.424
REMARK INTRA:                   1.333
REMARK UNBOUND:                 1.038
REMARK  6 active torsions:
REMARK  status: ('A' for Active; 'I' for Inactive)
REMARK    1  A    between atoms: C_13  and  C_16 
REMARK    2  A    between atoms: C_14  and  C_17 
REMARK    3  A    between atoms: C_15  and  C_18 
REMARK    4  A    between atoms: C_19  and  C_22 
REMARK    5  A    between atoms: C_20  and  C_23 
REMARK    6  A    between atoms: C_21  and  C_24 
ROOT
HETATM    1  O   UNL     1      49.828  32.161  41.977  1.00  0.00    -0.304 OA
HETATM    2  O   UNL     1      51.903  28.365  39.135  1.00  0.00    -0.304 OA
HETATM    3  O   UNL     1      54.349  32.405  39.368  1.00  0.00    -0.304 OA
HETATM    4  O   UNL     1      51.720  30.395  42.138  1.00  0.00    -0.270 OA
HETATM    5  O   UNL     1      53.189  32.943  42.294  1.00  0.00    -0.270 OA
HETATM    6  O   UNL     1      54.846  28.645  37.806  1.00  0.00    -0.270 OA
HETATM    7  O   UNL     1      50.072  32.477  39.706  1.00  0.00    -0.263 OA
HETATM    8  O   UNL     1      53.639  27.197  40.095  1.00  0.00    -0.263 OA
HETATM    9  O   UNL     1      56.003  33.315  38.062  1.00  0.00    -0.263 OA
HETATM   10  N   UNL     1      50.511  28.585  41.356  1.00  0.00    -0.340 N 
HETATM   11  N   UNL     1      52.203  34.146  40.572  1.00  0.00    -0.340 N 
HETATM   12  N   UNL     1      53.594  30.588  37.544  1.00  0.00    -0.340 N 
HETATM   13  C   UNL     1      51.709  27.723  41.441  1.00  0.00     0.190 C 
HETATM   14  C   UNL     1      50.904  34.140  41.275  1.00  0.00     0.190 C 
HETATM   15  C   UNL     1      54.782  31.407  37.222  1.00  0.00     0.190 C 
HETATM   16  C   UNL     1      49.388  30.798  41.787  1.00  0.00     0.227 C 
HETATM   17  C   UNL     1      52.461  28.370  37.810  1.00  0.00     0.227 C 
HETATM   18  C   UNL     1      54.587  33.378  40.403  1.00  0.00     0.227 C 
HETATM   19  C   UNL     1      50.640  29.917  41.773  1.00  0.00     0.250 C 
HETATM   20  C   UNL     1      53.275  33.467  41.179  1.00  0.00     0.250 C 
HETATM   21  C   UNL     1      53.748  29.203  37.731  1.00  0.00     0.250 C 
HETATM   22  C   UNL     1      50.216  32.850  40.863  1.00  0.00     0.283 C 
HETATM   23  C   UNL     1      52.541  27.739  40.161  1.00  0.00     0.283 C 
HETATM   24  C   UNL     1      55.113  32.492  38.244  1.00  0.00     0.283 C 
HETATM   25  C   UNL     1      49.284  27.999  40.808  1.00  0.00     0.153 C 
HETATM   26  C   UNL     1      52.276  34.827  39.276  1.00  0.00     0.153 C 
HETATM   27  C   UNL     1      52.285  31.240  37.474  1.00  0.00     0.153 C 
ENDROOT
BRANCH  16  28
HETATM   28  C   UNL     1      48.501  30.453  42.974  1.00  0.00     0.016 C 
HETATM   29  C   UNL     1      48.965  31.194  44.228  1.00  0.00     0.012 C 
HETATM   30  C   UNL     1      47.039  30.782  42.671  1.00  0.00     0.012 C 
ENDBRANCH  16  28
BRANCH  14  31
HETATM   31  C   UNL     1      49.993  35.331  41.006  1.00  0.00     0.010 C 
HETATM   32  C   UNL     1      48.546  34.991  41.357  1.00  0.00     0.012 C 
HETATM   33  C   UNL     1      50.461  36.554  41.791  1.00  0.00     0.012 C 
ENDBRANCH  14  31
BRANCH  13  34
HETATM   34  C   UNL     1      51.403  26.279  41.838  1.00  0.00     0.010 C 
HETATM   35  C   UNL     1      50.615  25.573  40.735  1.00  0.00     0.012 C 
HETATM   36  C   UNL     1      50.635  26.232  43.157  1.00  0.00     0.012 C 
ENDBRANCH  13  34
BRANCH  18  37
HETATM   37  C   UNL     1      55.731  32.885  41.284  1.00  0.00     0.016 C 
HETATM   38  C   UNL     1      56.079  31.434  40.953  1.00  0.00     0.012 C 
HETATM   39  C   UNL     1      56.959  33.779  41.126  1.00  0.00     0.012 C 
ENDBRANCH  18  37
BRANCH  17  40
HETATM   40  C   UNL     1      52.641  26.953  37.265  1.00  0.00     0.016 C 
HETATM   41  C   UNL     1      53.198  26.990  35.844  1.00  0.00     0.012 C 
HETATM   42  C   UNL     1      51.318  26.190  37.304  1.00  0.00     0.012 C 
ENDBRANCH  17  40
BRANCH  15  43
HETATM   43  C   UNL     1      54.681  32.006  35.819  1.00  0.00     0.010 C 
HETATM   44  C   UNL     1      56.031  32.566  35.380  1.00  0.00     0.012 C 
HETATM   45  C   UNL     1      54.183  30.959  34.826  1.00  0.00     0.012 C 
ENDBRANCH  15  43
TORSDOF 6
ENDMDL
MODEL 13
REMARK VINA RESULT:    -4.531      3.735      8.533
REMARK INTER + INTRA:          -5.083
REMARK INTER:                  -5.776
REMARK INTRA:                   0.693
REMARK UNBOUND:                 1.038
REMARK  6 active torsions:
REMARK  status: ('A' for Active; 'I' for Inactive)
REMARK    1  A    between atoms: C_13  and  C_16 
REMARK    2  A    between atoms: C_14  and  C_17 
REMARK    3  A    between atoms: C_15  and  C_18 
REMARK    4  A    between atoms: C_19  and  C_22 
REMARK    5  A    between atoms: C_20  and  C_23 
REMARK    6  A    between atoms: C_21  and  C_24 
ROOT
HETATM    1  O   UNL     1      49.781  26.369  46.322  1.00  0.00    -0.304 OA
HETATM    2  O   UNL     1      51.804  26.899  41.588  1.00  0.00    -0.304 OA
HETATM    3  O   UNL     1      50.662  30.889  43.853  1.00  0.00    -0.304 OA
HETATM    4  O   UNL     1      52.027  27.026  45.207  1.00  0.00    -0.270 OA
HETATM    5  O   UNL     1      51.272  29.479  46.652  1.00  0.00    -0.270 OA
HETATM    6  O   UNL     1      52.501  29.813  40.349  1.00  0.00    -0.270 OA
HETATM    7  O   UNL     1      48.480  27.282  44.651  1.00  0.00    -0.263 OA
HETATM    8  O   UNL     1      54.016  27.530  41.482  1.00  0.00    -0.263 OA
HETATM    9  O   UNL     1      50.266  33.038  43.146  1.00  0.00    -0.263 OA
HETATM   10  N   UNL     1      52.112  25.309  43.660  1.00  0.00    -0.340 N 
HETATM   11  N   UNL     1      49.032  29.676  46.080  1.00  0.00    -0.340 N 
HETATM   12  N   UNL     1      50.431  29.801  41.412  1.00  0.00    -0.340 N 
HETATM   13  C   UNL     1      53.361  25.858  43.091  1.00  0.00     0.190 C 
HETATM   14  C   UNL     1      48.712  28.420  46.789  1.00  0.00     0.190 C 
HETATM   15  C   UNL     1      50.375  31.275  41.496  1.00  0.00     0.190 C 
HETATM   16  C   UNL     1      50.314  25.370  45.425  1.00  0.00     0.227 C 
HETATM   17  C   UNL     1      51.386  27.688  40.461  1.00  0.00     0.227 C 
HETATM   18  C   UNL     1      50.725  31.320  45.226  1.00  0.00     0.227 C 
HETATM   19  C   UNL     1      51.551  25.978  44.758  1.00  0.00     0.250 C 
HETATM   20  C   UNL     1      50.378  30.083  46.051  1.00  0.00     0.250 C 
HETATM   21  C   UNL     1      51.505  29.194  40.738  1.00  0.00     0.250 C 
HETATM   22  C   UNL     1      48.945  27.306  45.783  1.00  0.00     0.283 C 
HETATM   23  C   UNL     1      53.108  26.870  41.976  1.00  0.00     0.283 C 
HETATM   24  C   UNL     1      50.411  31.842  42.913  1.00  0.00     0.283 C 
HETATM   25  C   UNL     1      51.526  24.130  43.017  1.00  0.00     0.153 C 
HETATM   26  C   UNL     1      47.932  30.391  45.426  1.00  0.00     0.153 C 
HETATM   27  C   UNL     1      49.265  29.052  41.884  1.00  0.00     0.153 C 
ENDROOT
BRANCH  16  28
HETATM   28  C   UNL     1      50.698  24.171  46.279  1.00  0.00     0.016 C 
HETATM   29  C   UNL     1      50.806  24.569  47.750  1.00  0.00     0.012 C 
HETATM   30  C   UNL     1      49.688  23.038  46.105  1.00  0.00     0.012 C 
ENDBRANCH  16  28
BRANCH  14  31
HETATM   31  C   UNL     1      47.307  28.319  47.370  1.00  0.00     0.010 C 
HETATM   32  C   UNL     1      46.931  26.860  47.615  1.00  0.00     0.012 C 
HETATM   33  C   UNL     1      47.201  29.124  48.663  1.00  0.00     0.012 C 
ENDBRANCH  14  31
BRANCH  13  34
HETATM   34  C   UNL     1      54.337  24.788  42.603  1.00  0.00     0.010 C 
HETATM   35  C   UNL     1      55.733  25.031  43.175  1.00  0.00     0.012 C 
HETATM   36  C   UNL     1      54.383  24.752  41.077  1.00  0.00     0.012 C 
ENDBRANCH  13  34
BRANCH  18  37
HETATM   37  C   UNL     1      52.140  31.813  45.518  1.00  0.00     0.016 C 
HETATM   38  C   UNL     1      53.086  31.446  44.374  1.00  0.00     0.012 C 
HETATM   39  C   UNL     1      52.148  33.321  45.757  1.00  0.00     0.012 C 
ENDBRANCH  18  37
BRANCH  17  40
HETATM   40  C   UNL     1      52.099  27.266  39.176  1.00  0.00     0.016 C 
HETATM   41  C   UNL     1      51.748  28.213  38.031  1.00  0.00     0.012 C 
HETATM   42  C   UNL     1      51.741  25.827  38.811  1.00  0.00     0.012 C 
ENDBRANCH  17  40
BRANCH  15  43
HETATM   43  C   UNL     1      49.175  31.831  40.727  1.00  0.00     0.010 C 
HETATM   44  C   UNL     1      48.079  32.269  41.695  1.00  0.00     0.012 C 
HETATM   45  C   UNL     1      49.604  32.993  39.836  1.00  0.00     0.012 C 
ENDBRANCH  15  43
TORSDOF 6
ENDMDL
MODEL 14
REMARK VINA RESULT:    -4.443      2.774      8.361
REMARK INTER + INTRA:          -4.964
REMARK INTER:                  -5.654
REMARK INTRA:                   0.691
REMARK UNBOUND:                 1.038
REMARK  6 active torsions:
REMARK  status: ('A' for Active; 'I' for Inactive)
REMARK    1  A    between atoms: C_13  and  C_16 
REMARK    2  A    between atoms: C_14  and  C_17 
REMARK    3  A    between atoms: C_15  and  C_18 
REMARK    4  A    between atoms: C_19  and  C_22 
REMARK    5  A    between atoms: C_20  and  C_23 
REMARK    6  A    between atoms: C_21  and  C_24 
ROOT
HETATM    1  O   UNL     1      55.712  30.946  40.960  1.00  0.00    -0.304 OA
HETATM    2  O   UNL     1      51.982  27.365  41.178  1.00  0.00    -0.304 OA
HETATM    3  O   UNL     1      50.685  31.821  42.084  1.00  0.00    -0.304 OA
HETATM    4  O   UNL     1      53.715  30.100  39.540  1.00  0.00    -0.270 OA
HETATM    5  O   UNL     1      52.968  32.887  40.123  1.00  0.00    -0.270 OA
HETATM    6  O   UNL     1      48.876  28.166  41.646  1.00  0.00    -0.270 OA
HETATM    7  O   UNL     1      54.679  30.536  42.981  1.00  0.00    -0.263 OA
HETATM    8  O   UNL     1      50.553  27.260  39.375  1.00  0.00    -0.263 OA
HETATM    9  O   UNL     1      48.875  32.742  43.157  1.00  0.00    -0.263 OA
HETATM   10  N   UNL     1      54.136  27.835  39.745  1.00  0.00    -0.340 N 
HETATM   11  N   UNL     1      53.433  33.022  42.392  1.00  0.00    -0.340 N 
HETATM   12  N   UNL     1      50.293  29.352  43.059  1.00  0.00    -0.340 N 
HETATM   13  C   UNL     1      52.917  27.518  38.972  1.00  0.00     0.190 C 
HETATM   14  C   UNL     1      54.873  32.810  42.137  1.00  0.00     0.190 C 
HETATM   15  C   UNL     1      49.265  30.366  43.372  1.00  0.00     0.190 C 
HETATM   16  C   UNL     1      55.761  29.537  40.646  1.00  0.00     0.227 C 
HETATM   17  C   UNL     1      50.969  27.110  42.166  1.00  0.00     0.227 C 
HETATM   18  C   UNL     1      51.067  33.106  41.558  1.00  0.00     0.227 C 
HETATM   19  C   UNL     1      54.450  29.188  39.935  1.00  0.00     0.250 C 
HETATM   20  C   UNL     1      52.565  32.999  41.286  1.00  0.00     0.250 C 
HETATM   21  C   UNL     1      49.948  28.254  42.251  1.00  0.00     0.250 C 
HETATM   22  C   UNL     1      55.072  31.304  42.113  1.00  0.00     0.283 C 
HETATM   23  C   UNL     1      51.677  27.383  39.852  1.00  0.00     0.283 C 
HETATM   24  C   UNL     1      49.581  31.777  42.880  1.00  0.00     0.283 C 
HETATM   25  C   UNL     1      54.911  26.716  40.290  1.00  0.00     0.153 C 
HETATM   26  C   UNL     1      53.003  33.204  43.782  1.00  0.00     0.153 C 
HETATM   27  C   UNL     1      51.576  29.452  43.757  1.00  0.00     0.153 C 
ENDROOT
BRANCH  16  28
HETATM   28  C   UNL     1      56.948  29.334  39.716  1.00  0.00     0.016 C 
HETATM   29  C   UNL     1      57.328  30.646  39.032  1.00  0.00     0.012 C 
HETATM   30  C   UNL     1      58.143  28.765  40.481  1.00  0.00     0.012 C 
ENDBRANCH  16  28
BRANCH  14  31
HETATM   31  C   UNL     1      55.829  33.451  43.135  1.00  0.00     0.010 C 
HETATM   32  C   UNL     1      57.192  32.764  43.090  1.00  0.00     0.012 C 
HETATM   33  C   UNL     1      55.973  34.945  42.857  1.00  0.00     0.012 C 
ENDBRANCH  14  31
BRANCH  13  34
HETATM   34  C   UNL     1      53.055  26.283  38.083  1.00  0.00     0.010 C 
HETATM   35  C   UNL     1      52.633  26.600  36.649  1.00  0.00     0.012 C 
HETATM   36  C   UNL     1      52.231  25.122  38.637  1.00  0.00     0.012 C 
ENDBRANCH  13  34
BRANCH  18  37
HETATM   37  C   UNL     1      50.278  33.364  40.278  1.00  0.00     0.016 C 
HETATM   38  C   UNL     1      49.625  32.075  39.778  1.00  0.00     0.012 C 
HETATM   39  C   UNL     1      49.223  34.446  40.501  1.00  0.00     0.012 C 
ENDBRANCH  18  37
BRANCH  17  40
HETATM   40  C   UNL     1      50.310  25.745  41.966  1.00  0.00     0.016 C 
HETATM   41  C   UNL     1      49.250  25.497  43.036  1.00  0.00     0.012 C 
HETATM   42  C   UNL     1      51.359  24.635  41.981  1.00  0.00     0.012 C 
ENDBRANCH  17  40
BRANCH  15  43
HETATM   43  C   UNL     1      48.935  30.381  44.865  1.00  0.00     0.010 C 
HETATM   44  C   UNL     1      49.569  31.595  45.539  1.00  0.00     0.012 C 
HETATM   45  C   UNL     1      47.424  30.375  45.078  1.00  0.00     0.012 C 
ENDBRANCH  15  43
TORSDOF 6
ENDMDL
MODEL 15
REMARK VINA RESULT:    -4.350      5.458      8.496
REMARK INTER + INTRA:          -4.838
REMARK INTER:                  -6.350
REMARK INTRA:                   1.512
REMARK UNBOUND:                 1.038
REMARK  6 active torsions:
REMARK  status: ('A' for Active; 'I' for Inactive)
REMARK    1  A    between atoms: C_13  and  C_16 
REMARK    2  A    between atoms: C_14  and  C_17 
REMARK    3  A    between atoms: C_15  and  C_18 
REMARK    4  A    between atoms: C_19  and  C_22 
REMARK    5  A    between atoms: C_20  and  C_23 
REMARK    6  A    between atoms: C_21  and  C_24 
ROOT
HETATM    1  O   UNL     1      49.623  24.855  45.702  1.00  0.00    -0.304 OA
HETATM    2  O   UNL     1      48.971  29.424  48.042  1.00  0.00    -0.304 OA
HETATM    3  O   UNL     1      50.836  29.526  43.699  1.00  0.00    -0.304 OA
HETATM    4  O   UNL     1      48.017  26.888  45.628  1.00  0.00    -0.270 OA
HETATM    5  O   UNL     1      49.202  26.892  42.932  1.00  0.00    -0.270 OA
HETATM    6  O   UNL     1      49.557  32.222  46.513  1.00  0.00    -0.270 OA
HETATM    7  O   UNL     1      51.483  26.115  46.221  1.00  0.00    -0.263 OA
HETATM    8  O   UNL     1      47.168  30.681  47.355  1.00  0.00    -0.263 OA
HETATM    9  O   UNL     1      52.059  31.095  42.552  1.00  0.00    -0.263 OA
HETATM   10  N   UNL     1      47.714  27.118  47.909  1.00  0.00    -0.340 N 
HETATM   11  N   UNL     1      51.450  26.588  43.418  1.00  0.00    -0.340 N 
HETATM   12  N   UNL     1      51.223  30.650  46.104  1.00  0.00    -0.340 N 
HETATM   13  C   UNL     1      46.870  28.312  47.697  1.00  0.00     0.190 C 
HETATM   14  C   UNL     1      51.177  25.244  43.970  1.00  0.00     0.190 C 
HETATM   15  C   UNL     1      51.740  31.385  44.930  1.00  0.00     0.190 C 
HETATM   16  C   UNL     1      49.001  25.167  46.968  1.00  0.00     0.227 C 
HETATM   17  C   UNL     1      49.860  30.543  48.203  1.00  0.00     0.227 C 
HETATM   18  C   UNL     1      50.619  28.768  42.493  1.00  0.00     0.227 C 
HETATM   19  C   UNL     1      48.209  26.463  46.773  1.00  0.00     0.250 C 
HETATM   20  C   UNL     1      50.353  27.339  42.960  1.00  0.00     0.250 C 
HETATM   21  C   UNL     1      50.184  31.217  46.862  1.00  0.00     0.250 C 
HETATM   22  C   UNL     1      50.817  25.462  45.430  1.00  0.00     0.283 C 
HETATM   23  C   UNL     1      47.678  29.608  47.659  1.00  0.00     0.283 C 
HETATM   24  C   UNL     1      51.584  30.659  43.595  1.00  0.00     0.283 C 
HETATM   25  C   UNL     1      48.006  26.722  49.290  1.00  0.00     0.153 C 
HETATM   26  C   UNL     1      52.838  27.059  43.420  1.00  0.00     0.153 C 
HETATM   27  C   UNL     1      51.946  29.447  46.521  1.00  0.00     0.153 C 
ENDROOT
BRANCH  16  28
HETATM   28  C   UNL     1      48.068  24.011  47.297  1.00  0.00     0.016 C 
HETATM   29  C   UNL     1      48.132  22.940  46.209  1.00  0.00     0.012 C 
HETATM   30  C   UNL     1      48.413  23.410  48.659  1.00  0.00     0.012 C 
ENDBRANCH  16  28
BRANCH  14  31
HETATM   31  C   UNL     1      52.308  24.231  43.852  1.00  0.00     0.010 C 
HETATM   32  C   UNL     1      52.129  23.105  44.868  1.00  0.00     0.012 C 
HETATM   33  C   UNL     1      52.379  23.667  42.435  1.00  0.00     0.012 C 
ENDBRANCH  14  31
BRANCH  13  34
HETATM   34  C   UNL     1      45.728  28.447  48.704  1.00  0.00     0.010 C 
HETATM   35  C   UNL     1      46.271  28.775  50.094  1.00  0.00     0.012 C 
HETATM   36  C   UNL     1      44.890  27.172  48.745  1.00  0.00     0.012 C 
ENDBRANCH  13  34
BRANCH  18  37
HETATM   37  C   UNL     1      49.417  29.354  41.758  1.00  0.00     0.016 C 
HETATM   38  C   UNL     1      48.676  30.354  42.646  1.00  0.00     0.012 C 
HETATM   39  C   UNL     1      49.853  30.018  40.453  1.00  0.00     0.012 C 
ENDBRANCH  18  37
BRANCH  17  40
HETATM   40  C   UNL     1      49.347  31.530  49.251  1.00  0.00     0.016 C 
HETATM   41  C   UNL     1      50.357  32.654  49.472  1.00  0.00     0.012 C 
HETATM   42  C   UNL     1      49.047  30.812  50.565  1.00  0.00     0.012 C 
ENDBRANCH  17  40
BRANCH  15  43
HETATM   43  C   UNL     1      53.193  31.814  45.139  1.00  0.00     0.010 C 
HETATM   44  C   UNL     1      53.343  32.565  46.459  1.00  0.00     0.012 C 
HETATM   45  C   UNL     1      54.119  30.602  45.100  1.00  0.00     0.012 C 
ENDBRANCH  15  43
TORSDOF 6
ENDMDL
MODEL 16
REMARK VINA RESULT:    -4.265      3.520      7.550
REMARK INTER + INTRA:          -4.723
REMARK INTER:                  -5.615
REMARK INTRA:                   0.892
REMARK UNBOUND:                 1.038
REMARK  6 active torsions:
REMARK  status: ('A' for Active; 'I' for Inactive)
REMARK    1  A    between atoms: C_13  and  C_16 
REMARK    2  A    between atoms: C_14  and  C_17 
REMARK    3  A    between atoms: C_15  and  C_18 
REMARK    4  A    between atoms: C_19  and  C_22 
REMARK    5  A    between atoms: C_20  and  C_23 
REMARK    6  A    between atoms: C_21  and  C_24 
ROOT
HETATM    1  O   UNL     1      56.439  32.251  41.615  1.00  0.00    -0.304 OA
HETATM    2  O   UNL     1      51.727  30.447  42.764  1.00  0.00    -0.304 OA
HETATM    3  O   UNL     1      52.039  33.285  38.996  1.00  0.00    -0.304 OA
HETATM    4  O   UNL     1      54.765  30.457  40.780  1.00  0.00    -0.270 OA
HETATM    5  O   UNL     1      55.011  32.252  38.459  1.00  0.00    -0.270 OA
HETATM    6  O   UNL     1      49.172  31.013  40.851  1.00  0.00    -0.270 OA
HETATM    7  O   UNL     1      54.800  33.744  42.248  1.00  0.00    -0.263 OA
HETATM    8  O   UNL     1      50.945  28.716  41.462  1.00  0.00    -0.263 OA
HETATM    9  O   UNL     1      50.496  34.533  37.838  1.00  0.00    -0.263 OA
HETATM   10  N   UNL     1      54.208  29.578  42.846  1.00  0.00    -0.340 N 
HETATM   11  N   UNL     1      54.826  34.333  39.468  1.00  0.00    -0.340 N 
HETATM   12  N   UNL     1      50.470  32.921  41.142  1.00  0.00    -0.340 N 
HETATM   13  C   UNL     1      53.235  28.661  42.215  1.00  0.00     0.190 C 
HETATM   14  C   UNL     1      56.082  34.114  40.213  1.00  0.00     0.190 C 
HETATM   15  C   UNL     1      49.867  33.607  39.980  1.00  0.00     0.190 C 
HETATM   16  C   UNL     1      56.031  31.303  42.626  1.00  0.00     0.227 C 
HETATM   17  C   UNL     1      50.458  31.113  42.876  1.00  0.00     0.227 C 
HETATM   18  C   UNL     1      53.017  33.472  37.955  1.00  0.00     0.227 C 
HETATM   19  C   UNL     1      54.949  30.418  42.002  1.00  0.00     0.250 C 
HETATM   20  C   UNL     1      54.370  33.292  38.640  1.00  0.00     0.250 C 
HETATM   21  C   UNL     1      49.975  31.663  41.526  1.00  0.00     0.250 C 
HETATM   22  C   UNL     1      55.686  33.383  41.485  1.00  0.00     0.283 C 
HETATM   23  C   UNL     1      51.843  29.274  42.083  1.00  0.00     0.283 C 
HETATM   24  C   UNL     1      50.825  33.879  38.823  1.00  0.00     0.283 C 
HETATM   25  C   UNL     1      54.304  29.574  44.308  1.00  0.00     0.153 C 
HETATM   26  C   UNL     1      54.123  35.604  39.669  1.00  0.00     0.153 C 
HETATM   27  C   UNL     1      51.437  33.673  41.944  1.00  0.00     0.153 C 
ENDROOT
BRANCH  16  28
HETATM   28  C   UNL     1      57.261  30.480  42.980  1.00  0.00     0.016 C 
HETATM   29  C   UNL     1      58.315  30.584  41.878  1.00  0.00     0.012 C 
HETATM   30  C   UNL     1      57.843  30.926  44.320  1.00  0.00     0.012 C 
ENDBRANCH  16  28
BRANCH  14  31
HETATM   31  C   UNL     1      56.884  35.364  40.553  1.00  0.00     0.010 C 
HETATM   32  C   UNL     1      57.851  35.086  41.701  1.00  0.00     0.012 C 
HETATM   33  C   UNL     1      57.640  35.867  39.325  1.00  0.00     0.012 C 
ENDBRANCH  14  31
BRANCH  13  34
HETATM   34  C   UNL     1      53.135  27.300  42.904  1.00  0.00     0.010 C 
HETATM   35  C   UNL     1      53.299  26.169  41.889  1.00  0.00     0.012 C 
HETATM   36  C   UNL     1      51.807  27.165  43.644  1.00  0.00     0.012 C 
ENDBRANCH  13  34
BRANCH  18  37
HETATM   37  C   UNL     1      52.787  32.419  36.874  1.00  0.00     0.016 C 
HETATM   38  C   UNL     1      51.916  31.282  37.407  1.00  0.00     0.012 C 
HETATM   39  C   UNL     1      52.150  33.046  35.636  1.00  0.00     0.012 C 
ENDBRANCH  18  37
BRANCH  17  40
HETATM   40  C   UNL     1      49.413  30.234  43.563  1.00  0.00     0.016 C 
HETATM   41  C   UNL     1      48.066  30.951  43.630  1.00  0.00     0.012 C 
HETATM   42  C   UNL     1      49.880  29.836  44.962  1.00  0.00     0.012 C 
ENDBRANCH  17  40
BRANCH  15  43
HETATM   43  C   UNL     1      49.157  34.895  40.401  1.00  0.00     0.010 C 
HETATM   44  C   UNL     1      48.358  34.669  41.682  1.00  0.00     0.012 C 
HETATM   45  C   UNL     1      50.167  36.024  40.588  1.00  0.00     0.012 C 
ENDBRANCH  15  43
TORSDOF 6
ENDMDL
MODEL 17
REMARK VINA RESULT:    -4.236      2.669      8.559
REMARK INTER + INTRA:          -4.684
REMARK INTER:                  -5.363
REMARK INTRA:                   0.679
REMARK UNBOUND:                 1.038
REMARK  6 active torsions:
REMARK  status: ('A' for Active; 'I' for Inactive)
REMARK    1  A    between atoms: C_13  and  C_16 
REMARK    2  A    between atoms: C_14  and  C_17 
REMARK    3  A    between atoms: C_15  and  C_18 
REMARK    4  A    between atoms: C_19  and  C_22 
REMARK    5  A    between atoms: C_20  and  C_23 
REMARK    6  A    between atoms: C_21  and  C_24 
ROOT
HETATM    1  O   UNL     1      56.133  33.277  39.997  1.00  0.00    -0.304 OA
HETATM    2  O   UNL     1      52.963  29.210  39.550  1.00  0.00    -0.304 OA
HETATM    3  O   UNL     1      51.049  33.205  41.203  1.00  0.00    -0.304 OA
HETATM    4  O   UNL     1      54.258  32.409  38.430  1.00  0.00    -0.270 OA
HETATM    5  O   UNL     1      53.124  34.915  39.481  1.00  0.00    -0.270 OA
HETATM    6  O   UNL     1      49.782  29.458  40.117  1.00  0.00    -0.270 OA
HETATM    7  O   UNL     1      55.201  32.377  41.905  1.00  0.00    -0.263 OA
HETATM    8  O   UNL     1      51.538  29.213  37.741  1.00  0.00    -0.263 OA
HETATM    9  O   UNL     1      49.141  33.653  42.400  1.00  0.00    -0.263 OA
HETATM   10  N   UNL     1      55.006  30.229  38.243  1.00  0.00    -0.340 N 
HETATM   11  N   UNL     1      53.599  34.719  41.744  1.00  0.00    -0.340 N 
HETATM   12  N   UNL     1      51.033  30.574  41.729  1.00  0.00    -0.340 N 
HETATM   13  C   UNL     1      53.833  29.877  37.414  1.00  0.00     0.190 C 
HETATM   14  C   UNL     1      55.050  34.767  41.471  1.00  0.00     0.190 C 
HETATM   15  C   UNL     1      49.874  31.358  42.203  1.00  0.00     0.190 C 
HETATM   16  C   UNL     1      56.380  31.966  39.443  1.00  0.00     0.227 C 
HETATM   17  C   UNL     1      52.013  28.643  40.468  1.00  0.00     0.227 C 
HETATM   18  C   UNL     1      51.233  34.603  40.913  1.00  0.00     0.227 C 
HETATM   19  C   UNL     1      55.123  31.559  38.669  1.00  0.00     0.250 C 
HETATM   20  C   UNL     1      52.727  34.763  40.641  1.00  0.00     0.250 C 
HETATM   21  C   UNL     1      50.839  29.595  40.740  1.00  0.00     0.250 C 
HETATM   22  C   UNL     1      55.464  33.333  41.187  1.00  0.00     0.283 C 
HETATM   23  C   UNL     1      52.639  29.413  38.244  1.00  0.00     0.283 C 
HETATM   24  C   UNL     1      49.975  32.864  41.968  1.00  0.00     0.283 C 
HETATM   25  C   UNL     1      55.942  29.157  38.594  1.00  0.00     0.153 C 
HETATM   26  C   UNL     1      53.168  34.594  43.140  1.00  0.00     0.153 C 
HETATM   27  C   UNL     1      52.299  30.736  42.447  1.00  0.00     0.153 C 
ENDROOT
BRANCH  16  28
HETATM   28  C   UNL     1      57.570  32.102  38.505  1.00  0.00     0.016 C 
HETATM   29  C   UNL     1      57.766  33.559  38.090  1.00  0.00     0.012 C 
HETATM   30  C   UNL     1      58.839  31.557  39.159  1.00  0.00     0.012 C 
ENDBRANCH  16  28
BRANCH  14  31
HETATM   31  C   UNL     1      55.918  35.357  42.575  1.00  0.00     0.010 C 
HETATM   32  C   UNL     1      57.368  34.904  42.418  1.00  0.00     0.012 C 
HETATM   33  C   UNL     1      55.830  36.881  42.572  1.00  0.00     0.012 C 
ENDBRANCH  14  31
BRANCH  13  34
HETATM   34  C   UNL     1      54.135  28.848  36.325  1.00  0.00     0.010 C 
HETATM   35  C   UNL     1      53.690  29.364  34.957  1.00  0.00     0.012 C 
HETATM   36  C   UNL     1      53.460  27.515  36.639  1.00  0.00     0.012 C 
ENDBRANCH  13  34
BRANCH  18  37
HETATM   37  C   UNL     1      50.396  34.962  39.688  1.00  0.00     0.016 C 
HETATM   38  C   UNL     1      49.897  33.699  38.988  1.00  0.00     0.012 C 
HETATM   39  C   UNL     1      49.222  35.857  40.080  1.00  0.00     0.012 C 
ENDBRANCH  18  37
BRANCH  17  40
HETATM   40  C   UNL     1      51.556  27.253  40.026  1.00  0.00     0.016 C 
HETATM   41  C   UNL     1      50.496  26.706  40.981  1.00  0.00     0.012 C 
HETATM   42  C   UNL     1      52.745  26.298  39.941  1.00  0.00     0.012 C 
ENDBRANCH  17  40
BRANCH  15  43
HETATM   43  C   UNL     1      49.568  31.066  43.673  1.00  0.00     0.010 C 
HETATM   44  C   UNL     1      50.040  32.218  44.556  1.00  0.00     0.012 C 
HETATM   45  C   UNL     1      48.076  30.814  43.867  1.00  0.00     0.012 C 
ENDBRANCH  15  43
TORSDOF 6
ENDMDL
MODEL 18
REMARK VINA RESULT:    -4.218      7.894     13.020
REMARK INTER + INTRA:          -4.660
REMARK INTER:                  -6.253
REMARK INTRA:                   1.593
REMARK UNBOUND:                 1.038
REMARK  6 active torsions:
REMARK  status: ('A' for Active; 'I' for Inactive)
REMARK    1  A    between atoms: C_13  and  C_16 
REMARK    2  A    between atoms: C_14  and  C_17 
REMARK    3  A    between atoms: C_15  and  C_18 
REMARK    4  A    between atoms: C_19  and  C_22 
REMARK    5  A    between atoms: C_20  and  C_23 
REMARK    6  A    between atoms: C_21  and  C_24 
ROOT
HETATM    1  O   UNL     1      46.496  23.755  50.261  1.00  0.00    -0.304 OA
HETATM    2  O   UNL     1      49.236  25.189  46.111  1.00  0.00    -0.304 OA
HETATM    3  O   UNL     1      48.384  28.539  49.337  1.00  0.00    -0.304 OA
HETATM    4  O   UNL     1      48.952  24.270  49.611  1.00  0.00    -0.270 OA
HETATM    5  O   UNL     1      48.368  26.325  51.637  1.00  0.00    -0.270 OA
HETATM    6  O   UNL     1      50.528  28.151  45.862  1.00  0.00    -0.270 OA
HETATM    7  O   UNL     1      45.599  25.316  48.819  1.00  0.00    -0.263 OA
HETATM    8  O   UNL     1      51.509  25.408  46.408  1.00  0.00    -0.263 OA
HETATM    9  O   UNL     1      48.417  30.834  49.263  1.00  0.00    -0.263 OA
HETATM   10  N   UNL     1      49.003  23.061  47.640  1.00  0.00    -0.340 N 
HETATM   11  N   UNL     1      46.288  27.080  50.939  1.00  0.00    -0.340 N 
HETATM   12  N   UNL     1      48.349  28.228  46.672  1.00  0.00    -0.340 N 
HETATM   13  C   UNL     1      50.388  23.506  47.380  1.00  0.00     0.190 C 
HETATM   14  C   UNL     1      45.687  25.758  51.211  1.00  0.00     0.190 C 
HETATM   15  C   UNL     1      48.501  29.606  47.183  1.00  0.00     0.190 C 
HETATM   16  C   UNL     1      46.999  22.962  49.164  1.00  0.00     0.227 C 
HETATM   17  C   UNL     1      49.107  26.321  45.234  1.00  0.00     0.227 C 
HETATM   18  C   UNL     1      48.312  28.556  50.775  1.00  0.00     0.227 C 
HETATM   19  C   UNL     1      48.396  23.492  48.827  1.00  0.00     0.250 C 
HETATM   20  C   UNL     1      47.669  27.225  51.160  1.00  0.00     0.250 C 
HETATM   21  C   UNL     1      49.407  27.644  45.954  1.00  0.00     0.250 C 
HETATM   22  C   UNL     1      45.895  24.941  49.947  1.00  0.00     0.283 C 
HETATM   23  C   UNL     1      50.452  24.815  46.596  1.00  0.00     0.283 C 
HETATM   24  C   UNL     1      48.415  29.743  48.702  1.00  0.00     0.283 C 
HETATM   25  C   UNL     1      48.347  22.233  46.623  1.00  0.00     0.153 C 
HETATM   26  C   UNL     1      45.412  28.137  50.424  1.00  0.00     0.153 C 
HETATM   27  C   UNL     1      47.029  27.604  46.789  1.00  0.00     0.153 C 
ENDROOT
BRANCH  16  28
HETATM   28  C   UNL     1      47.074  21.525  49.657  1.00  0.00     0.016 C 
HETATM   29  C   UNL     1      48.415  21.258  50.340  1.00  0.00     0.012 C 
HETATM   30  C   UNL     1      45.919  21.220  50.611  1.00  0.00     0.012 C 
ENDBRANCH  16  28
BRANCH  14  31
HETATM   31  C   UNL     1      44.214  25.761  51.599  1.00  0.00     0.010 C 
HETATM   32  C   UNL     1      43.620  24.360  51.466  1.00  0.00     0.012 C 
HETATM   33  C   UNL     1      44.034  26.286  53.022  1.00  0.00     0.012 C 
ENDBRANCH  14  31
BRANCH  13  34
HETATM   34  C   UNL     1      51.255  22.452  46.692  1.00  0.00     0.010 C 
HETATM   35  C   UNL     1      50.803  22.239  45.248  1.00  0.00     0.012 C 
HETATM   36  C   UNL     1      51.218  21.134  47.463  1.00  0.00     0.012 C 
ENDBRANCH  13  34
BRANCH  18  37
HETATM   37  C   UNL     1      49.727  28.681  51.334  1.00  0.00     0.016 C 
HETATM   38  C   UNL     1      50.762  28.473  50.228  1.00  0.00     0.012 C 
HETATM   39  C   UNL     1      49.925  30.038  52.005  1.00  0.00     0.012 C 
ENDBRANCH  18  37
BRANCH  17  40
HETATM   40  C   UNL     1      49.927  26.146  43.956  1.00  0.00     0.016 C 
HETATM   41  C   UNL     1      49.862  27.407  43.098  1.00  0.00     0.012 C 
HETATM   42  C   UNL     1      49.437  24.933  43.166  1.00  0.00     0.012 C 
ENDBRANCH  17  40
BRANCH  15  43
HETATM   43  C   UNL     1      47.519  30.562  46.503  1.00  0.00     0.010 C 
HETATM   44  C   UNL     1      47.587  30.406  44.986  1.00  0.00     0.012 C 
HETATM   45  C   UNL     1      46.100  30.318  47.008  1.00  0.00     0.012 C 
ENDBRANCH  15  43
TORSDOF 6
ENDMDL
MODEL 19
REMARK VINA RESULT:    -4.217      4.257      9.191
REMARK INTER + INTRA:          -4.659
REMARK INTER:                  -5.824
REMARK INTRA:                   1.165
REMARK UNBOUND:                 1.038
REMARK  6 active torsions:
REMARK  status: ('A' for Active; 'I' for Inactive)
REMARK    1  A    between atoms: C_13  and  C_16 
REMARK    2  A    between atoms: C_14  and  C_17 
REMARK    3  A    between atoms: C_15  and  C_18 
REMARK    4  A    between atoms: C_19  and  C_22 
REMARK    5  A    between atoms: C_20  and  C_23 
REMARK    6  A    between atoms: C_21  and  C_24 
ROOT
HETATM    1  O   UNL     1      48.972  25.854  47.020  1.00  0.00    -0.304 OA
HETATM    2  O   UNL     1      51.536  24.741  42.665  1.00  0.00    -0.304 OA
HETATM    3  O   UNL     1      51.239  29.314  43.828  1.00  0.00    -0.304 OA
HETATM    4  O   UNL     1      51.414  25.691  46.165  1.00  0.00    -0.270 OA
HETATM    5  O   UNL     1      51.174  28.527  46.921  1.00  0.00    -0.270 OA
HETATM    6  O   UNL     1      53.085  27.027  40.967  1.00  0.00    -0.270 OA
HETATM    7  O   UNL     1      48.129  26.604  45.009  1.00  0.00    -0.263 OA
HETATM    8  O   UNL     1      53.835  24.806  42.783  1.00  0.00    -0.263 OA
HETATM    9  O   UNL     1      51.486  31.258  42.630  1.00  0.00    -0.263 OA
HETATM   10  N   UNL     1      51.209  23.677  45.048  1.00  0.00    -0.340 N 
HETATM   11  N   UNL     1      49.132  29.084  45.971  1.00  0.00    -0.340 N 
HETATM   12  N   UNL     1      50.986  27.746  41.665  1.00  0.00    -0.340 N 
HETATM   13  C   UNL     1      52.609  23.770  44.582  1.00  0.00     0.190 C 
HETATM   14  C   UNL     1      48.428  28.145  46.869  1.00  0.00     0.190 C 
HETATM   15  C   UNL     1      51.305  29.169  41.427  1.00  0.00     0.190 C 
HETATM   16  C   UNL     1      49.318  24.573  46.451  1.00  0.00     0.227 C 
HETATM   17  C   UNL     1      51.454  25.306  41.346  1.00  0.00     0.227 C 
HETATM   18  C   UNL     1      51.271  30.040  45.071  1.00  0.00     0.227 C 
HETATM   19  C   UNL     1      50.731  24.702  45.877  1.00  0.00     0.250 C 
HETATM   20  C   UNL     1      50.533  29.154  46.072  1.00  0.00     0.250 C 
HETATM   21  C   UNL     1      51.930  26.765  41.314  1.00  0.00     0.250 C 
HETATM   22  C   UNL     1      48.466  26.797  46.170  1.00  0.00     0.283 C 
HETATM   23  C   UNL     1      52.742  24.511  43.253  1.00  0.00     0.283 C 
HETATM   24  C   UNL     1      51.341  30.041  42.681  1.00  0.00     0.283 C 
HETATM   25  C   UNL     1      50.407  22.541  44.583  1.00  0.00     0.153 C 
HETATM   26  C   UNL     1      48.327  29.850  45.014  1.00  0.00     0.153 C 
HETATM   27  C   UNL     1      49.624  27.421  42.093  1.00  0.00     0.153 C 
ENDROOT
BRANCH  16  28
HETATM   28  C   UNL     1      49.289  23.563  47.588  1.00  0.00     0.016 C 
HETATM   29  C   UNL     1      49.353  24.272  48.941  1.00  0.00     0.012 C 
HETATM   30  C   UNL     1      48.039  22.688  47.503  1.00  0.00     0.012 C 
ENDBRANCH  16  28
BRANCH  14  31
HETATM   31  C   UNL     1      46.993  28.512  47.226  1.00  0.00     0.010 C 
HETATM   32  C   UNL     1      46.212  27.271  47.656  1.00  0.00     0.012 C 
HETATM   33  C   UNL     1      46.966  29.569  48.327  1.00  0.00     0.012 C 
ENDBRANCH  14  31
BRANCH  13  34
HETATM   34  C   UNL     1      53.320  22.420  44.493  1.00  0.00     0.010 C 
HETATM   35  C   UNL     1      54.643  22.456  45.256  1.00  0.00     0.012 C 
HETATM   36  C   UNL     1      53.554  22.028  43.036  1.00  0.00     0.012 C 
ENDBRANCH  13  34
BRANCH  18  37
HETATM   37  C   UNL     1      52.727  30.254  45.475  1.00  0.00     0.016 C 
HETATM   38  C   UNL     1      52.814  30.921  46.847  1.00  0.00     0.012 C 
HETATM   39  C   UNL     1      53.488  28.930  45.475  1.00  0.00     0.012 C 
ENDBRANCH  18  37
BRANCH  17  40
HETATM   40  C   UNL     1      52.161  24.432  40.309  1.00  0.00     0.016 C 
HETATM   41  C   UNL     1      52.062  25.060  38.920  1.00  0.00     0.012 C 
HETATM   42  C   UNL     1      51.574  23.022  40.304  1.00  0.00     0.012 C 
ENDBRANCH  17  40
BRANCH  15  43
HETATM   43  C   UNL     1      50.374  29.779  40.378  1.00  0.00     0.010 C 
HETATM   44  C   UNL     1      49.332  30.674  41.044  1.00  0.00     0.012 C 
HETATM   45  C   UNL     1      51.177  30.564  39.344  1.00  0.00     0.012 C 
ENDBRANCH  15  43
TORSDOF 6
ENDMDL
MODEL 20
REMARK VINA RESULT:    -4.182     11.765     16.263
REMARK INTER + INTRA:          -4.611
REMARK INTER:                  -5.391
REMARK INTRA:                   0.779
REMARK UNBOUND:                 1.038
REMARK  6 active torsions:
REMARK  status: ('A' for Active; 'I' for Inactive)
REMARK    1  A    between atoms: C_13  and  C_16 
REMARK    2  A    between atoms: C_14  and  C_17 
REMARK    3  A    between atoms: C_15  and  C_18 
REMARK    4  A    between atoms: C_19  and  C_22 
REMARK    5  A    between atoms: C_20  and  C_23 
REMARK    6  A    between atoms: C_21  and  C_24 
ROOT
HETATM    1  O   UNL     1      47.748  20.498  53.111  1.00  0.00    -0.304 OA
HETATM    2  O   UNL     1      43.753  23.725  52.469  1.00  0.00    -0.304 OA
HETATM    3  O   UNL     1      47.502  24.427  49.675  1.00  0.00    -0.304 OA
HETATM    4  O   UNL     1      45.788  20.893  51.462  1.00  0.00    -0.270 OA
HETATM    5  O   UNL     1      48.160  21.304  49.767  1.00  0.00    -0.270 OA
HETATM    6  O   UNL     1      43.713  25.937  50.100  1.00  0.00    -0.270 OA
HETATM    7  O   UNL     1      48.039  22.737  53.583  1.00  0.00    -0.263 OA
HETATM    8  O   UNL     1      42.402  23.335  50.646  1.00  0.00    -0.263 OA
HETATM    9  O   UNL     1      48.230  26.226  48.447  1.00  0.00    -0.263 OA
HETATM   10  N   UNL     1      44.120  21.183  53.038  1.00  0.00    -0.340 N 
HETATM   11  N   UNL     1      49.466  22.658  51.126  1.00  0.00    -0.340 N 
HETATM   12  N   UNL     1      45.781  25.850  51.162  1.00  0.00    -0.340 N 
HETATM   13  C   UNL     1      43.133  21.458  51.973  1.00  0.00     0.190 C 
HETATM   14  C   UNL     1      49.600  21.575  52.122  1.00  0.00     0.190 C 
HETATM   15  C   UNL     1      46.466  26.563  50.064  1.00  0.00     0.190 C 
HETATM   16  C   UNL     1      46.442  20.490  53.727  1.00  0.00     0.227 C 
HETATM   17  C   UNL     1      43.698  25.158  52.372  1.00  0.00     0.227 C 
HETATM   18  C   UNL     1      48.443  23.558  49.017  1.00  0.00     0.227 C 
HETATM   19  C   UNL     1      45.430  20.875  52.645  1.00  0.00     0.250 C 
HETATM   20  C   UNL     1      48.674  22.405  49.992  1.00  0.00     0.250 C 
HETATM   21  C   UNL     1      44.387  25.675  51.101  1.00  0.00     0.250 C 
HETATM   22  C   UNL     1      48.392  21.701  53.035  1.00  0.00     0.283 C 
HETATM   23  C   UNL     1      43.060  22.938  51.602  1.00  0.00     0.283 C 
HETATM   24  C   UNL     1      47.507  25.739  49.311  1.00  0.00     0.283 C 
HETATM   25  C   UNL     1      43.672  21.288  54.430  1.00  0.00     0.153 C 
HETATM   26  C   UNL     1      50.136  23.932  51.405  1.00  0.00     0.153 C 
HETATM   27  C   UNL     1      46.571  25.517  52.349  1.00  0.00     0.153 C 
ENDROOT
BRANCH  16  28
HETATM   28  C   UNL     1      46.194  19.069  54.214  1.00  0.00     0.016 C 
HETATM   29  C   UNL     1      47.120  18.085  53.501  1.00  0.00     0.012 C 
HETATM   30  C   UNL     1      46.381  18.976  55.728  1.00  0.00     0.012 C 
ENDBRANCH  16  28
BRANCH  14  31
HETATM   31  C   UNL     1      50.883  21.578  52.943  1.00  0.00     0.010 C 
HETATM   32  C   UNL     1      50.696  20.784  54.234  1.00  0.00     0.012 C 
HETATM   33  C   UNL     1      52.043  21.010  52.129  1.00  0.00     0.012 C 
ENDBRANCH  14  31
BRANCH  13  34
HETATM   34  C   UNL     1      41.731  20.935  52.282  1.00  0.00     0.010 C 
HETATM   35  C   UNL     1      41.372  19.775  51.355  1.00  0.00     0.012 C 
HETATM   36  C   UNL     1      40.698  22.054  52.163  1.00  0.00     0.012 C 
ENDBRANCH  13  34
BRANCH  18  37
HETATM   37  C   UNL     1      47.828  23.074  47.707  1.00  0.00     0.016 C 
HETATM   38  C   UNL     1      46.334  23.395  47.663  1.00  0.00     0.012 C 
HETATM   39  C   UNL     1      48.545  23.698  46.511  1.00  0.00     0.012 C 
ENDBRANCH  18  37
BRANCH  17  40
HETATM   40  C   UNL     1      42.271  25.684  52.525  1.00  0.00     0.016 C 
HETATM   41  C   UNL     1      42.255  27.210  52.508  1.00  0.00     0.012 C 
HETATM   42  C   UNL     1      41.638  25.154  53.810  1.00  0.00     0.012 C 
ENDBRANCH  17  40
BRANCH  15  43
HETATM   43  C   UNL     1      47.074  27.879  50.551  1.00  0.00     0.010 C 
HETATM   44  C   UNL     1      48.589  27.751  50.682  1.00  0.00     0.012 C 
HETATM   45  C   UNL     1      46.710  29.018  49.603  1.00  0.00     0.012 C 
ENDBRANCH  15  43
TORSDOF 6
ENDMDL
