MODEL 1
REMARK VINA RESULT:    -6.174      0.000      0.000
REMARK INTER + INTRA:          -7.044
REMARK INTER:                  -8.340
REMARK INTRA:                   1.296
REMARK UNBOUND:                 1.296
REMARK  6 active torsions:
REMARK  status: ('A' for Active; 'I' for Inactive)
REMARK    1  A    between atoms: C_13  and  C_16 
REMARK    2  A    between atoms: C_14  and  C_17 
REMARK    3  A    between atoms: C_15  and  C_18 
REMARK    4  A    between atoms: C_19  and  C_22 
REMARK    5  A    between atoms: C_20  and  C_23 
REMARK    6  A    between atoms: C_21  and  C_24 
ROOT
HETATM    1  O   UNL     1      22.152  34.732  57.091  1.00  0.00    -0.304 OA
HETATM    2  O   UNL     1      22.702  30.013  59.143  1.00  0.00    -0.304 OA
HETATM    3  O   UNL     1      26.591  31.985  57.316  1.00  0.00    -0.304 OA
HETATM    4  O   UNL     1      23.089  33.619  59.237  1.00  0.00    -0.270 OA
HETATM    5  O   UNL     1      25.475  34.883  58.060  1.00  0.00    -0.270 OA
HETATM    6  O   UNL     1      25.606  28.596  59.405  1.00  0.00    -0.270 OA
HETATM    7  O   UNL     1      22.738  32.979  55.711  1.00  0.00    -0.263 OA
HETATM    8  O   UNL     1      23.671  29.907  61.229  1.00  0.00    -0.263 OA
HETATM    9  O   UNL     1      28.600  31.129  56.605  1.00  0.00    -0.263 OA
HETATM   10  N   UNL     1      21.315  32.192  59.638  1.00  0.00    -0.340 N 
HETATM   11  N   UNL     1      25.274  34.257  55.834  1.00  0.00    -0.340 N 
HETATM   12  N   UNL     1      25.330  29.618  57.333  1.00  0.00    -0.340 N 
HETATM   13  C   UNL     1      22.019  31.611  60.800  1.00  0.00     0.190 C 
HETATM   14  C   UNL     1      24.030  35.041  55.698  1.00  0.00     0.190 C 
HETATM   15  C   UNL     1      26.778  29.602  57.042  1.00  0.00     0.190 C 
HETATM   16  C   UNL     1      21.197  33.914  57.803  1.00  0.00     0.227 C 
HETATM   17  C   UNL     1      23.342  28.828  58.639  1.00  0.00     0.227 C 
HETATM   18  C   UNL     1      27.111  33.328  57.270  1.00  0.00     0.227 C 
HETATM   19  C   UNL     1      21.952  33.231  58.947  1.00  0.00     0.250 C 
HETATM   20  C   UNL     1      25.889  34.226  57.099  1.00  0.00     0.250 C 
HETATM   21  C   UNL     1      24.862  29.006  58.509  1.00  0.00     0.250 C 
HETATM   22  C   UNL     1      22.907  34.116  56.133  1.00  0.00     0.283 C 
HETATM   23  C   UNL     1      22.907  30.426  60.423  1.00  0.00     0.283 C 
HETATM   24  C   UNL     1      27.431  30.980  56.946  1.00  0.00     0.283 C 
HETATM   25  C   UNL     1      20.019  31.617  59.266  1.00  0.00     0.153 C 
HETATM   26  C   UNL     1      25.762  33.535  54.655  1.00  0.00     0.153 C 
HETATM   27  C   UNL     1      24.434  30.117  56.287  1.00  0.00     0.153 C 
ENDROOT
BRANCH  16  28
HETATM   28  C   UNL     1      20.131  34.853  58.346  1.00  0.00     0.016 C 
HETATM   29  C   UNL     1      20.737  35.836  59.347  1.00  0.00     0.012 C 
HETATM   30  C   UNL     1      19.442  35.606  57.208  1.00  0.00     0.012 C 
ENDBRANCH  16  28
BRANCH  14  31
HETATM   31  C   UNL     1      23.742  35.601  54.310  1.00  0.00     0.010 C 
HETATM   32  C   UNL     1      22.275  36.007  54.188  1.00  0.00     0.012 C 
HETATM   33  C   UNL     1      24.654  36.788  54.009  1.00  0.00     0.012 C 
ENDBRANCH  14  31
BRANCH  13  34
HETATM   34  C   UNL     1      21.091  31.214  61.948  1.00  0.00     0.010 C 
HETATM   35  C   UNL     1      20.700  32.439  62.773  1.00  0.00     0.012 C 
HETATM   36  C   UNL     1      21.749  30.160  62.836  1.00  0.00     0.012 C 
ENDBRANCH  13  34
BRANCH  18  37
HETATM   37  C   UNL     1      27.842  33.613  58.580  1.00  0.00     0.016 C 
HETATM   38  C   UNL     1      27.569  32.509  59.601  1.00  0.00     0.012 C 
HETATM   39  C   UNL     1      29.343  33.761  58.340  1.00  0.00     0.012 C 
ENDBRANCH  18  37
BRANCH  17  40
HETATM   40  C   UNL     1      22.960  27.588  59.447  1.00  0.00     0.016 C 
HETATM   41  C   UNL     1      23.177  26.321  58.622  1.00  0.00     0.012 C 
HETATM   42  C   UNL     1      21.510  27.679  59.918  1.00  0.00     0.012 C 
ENDBRANCH  17  40
BRANCH  15  43
HETATM   43  C   UNL     1      27.085  28.776  55.792  1.00  0.00     0.010 C 
HETATM   44  C   UNL     1      28.575  28.452  55.719  1.00  0.00     0.012 C 
HETATM   45  C   UNL     1      26.254  27.497  55.781  1.00  0.00     0.012 C 
ENDBRANCH  15  43
TORSDOF 6
ENDMDL
MODEL 2
REMARK VINA RESULT:    -5.371      2.116      3.572
REMARK INTER + INTRA:          -5.959
REMARK INTER:                  -7.297
REMARK INTRA:                   1.338
REMARK UNBOUND:                 1.296
REMARK  6 active torsions:
REMARK  status: ('A' for Active; 'I' for Inactive)
REMARK    1  A    between atoms: C_13  and  C_16 
REMARK    2  A    between atoms: C_14  and  C_17 
REMARK    3  A    between atoms: C_15  and  C_18 
REMARK    4  A    between atoms: C_19  and  C_22 
REMARK    5  A    between atoms: C_20  and  C_23 
REMARK    6  A    between atoms: C_21  and  C_24 
ROOT
HETATM    1  O   UNL     1      23.313  31.992  57.578  1.00  0.00    -0.304 OA
HETATM    2  O   UNL     1      25.209  27.186  57.875  1.00  0.00    -0.304 OA
HETATM    3  O   UNL     1      28.371  30.683  57.514  1.00  0.00    -0.304 OA
HETATM    4  O   UNL     1      24.454  30.434  59.307  1.00  0.00    -0.270 OA
HETATM    5  O   UNL     1      26.379  32.648  59.052  1.00  0.00    -0.270 OA
HETATM    6  O   UNL     1      28.395  26.620  58.074  1.00  0.00    -0.270 OA
HETATM    7  O   UNL     1      24.474  31.141  55.777  1.00  0.00    -0.263 OA
HETATM    8  O   UNL     1      26.070  26.547  59.912  1.00  0.00    -0.263 OA
HETATM    9  O   UNL     1      30.576  30.746  56.874  1.00  0.00    -0.263 OA
HETATM   10  N   UNL     1      23.194  28.541  58.885  1.00  0.00    -0.340 N 
HETATM   11  N   UNL     1      26.481  32.904  56.748  1.00  0.00    -0.340 N 
HETATM   12  N   UNL     1      27.907  28.249  56.486  1.00  0.00    -0.340 N 
HETATM   13  C   UNL     1      23.992  27.769  59.861  1.00  0.00     0.190 C 
HETATM   14  C   UNL     1      25.062  33.313  56.704  1.00  0.00     0.190 C 
HETATM   15  C   UNL     1      29.300  28.739  56.442  1.00  0.00     0.190 C 
HETATM   16  C   UNL     1      22.629  30.738  57.790  1.00  0.00     0.227 C 
HETATM   17  C   UNL     1      26.207  26.510  57.090  1.00  0.00     0.227 C 
HETATM   18  C   UNL     1      28.451  32.024  58.032  1.00  0.00     0.227 C 
HETATM   19  C   UNL     1      23.507  29.897  58.720  1.00  0.00     0.250 C 
HETATM   20  C   UNL     1      27.018  32.553  58.000  1.00  0.00     0.250 C 
HETATM   21  C   UNL     1      27.600  27.128  57.276  1.00  0.00     0.250 C 
HETATM   22  C   UNL     1      24.264  32.024  56.597  1.00  0.00     0.283 C 
HETATM   23  C   UNL     1      25.218  27.110  59.233  1.00  0.00     0.283 C 
HETATM   24  C   UNL     1      29.497  30.167  56.948  1.00  0.00     0.283 C 
HETATM   25  C   UNL     1      22.158  27.829  58.132  1.00  0.00     0.153 C 
HETATM   26  C   UNL     1      27.220  32.856  55.483  1.00  0.00     0.153 C 
HETATM   27  C   UNL     1      26.948  28.852  55.558  1.00  0.00     0.153 C 
ENDROOT
BRANCH  16  28
HETATM   28  C   UNL     1      21.301  31.068  58.455  1.00  0.00     0.016 C 
HETATM   29  C   UNL     1      21.502  31.374  59.938  1.00  0.00     0.012 C 
HETATM   30  C   UNL     1      20.622  32.243  57.754  1.00  0.00     0.012 C 
ENDBRANCH  16  28
BRANCH  14  31
HETATM   31  C   UNL     1      24.677  34.265  55.579  1.00  0.00     0.010 C 
HETATM   32  C   UNL     1      23.178  34.185  55.297  1.00  0.00     0.012 C 
HETATM   33  C   UNL     1      25.080  35.696  55.925  1.00  0.00     0.012 C 
ENDBRANCH  14  31
BRANCH  13  34
HETATM   34  C   UNL     1      23.183  26.724  60.629  1.00  0.00     0.010 C 
HETATM   35  C   UNL     1      23.480  26.805  62.126  1.00  0.00     0.012 C 
HETATM   36  C   UNL     1      23.474  25.320  60.102  1.00  0.00     0.012 C 
ENDBRANCH  13  34
BRANCH  18  37
HETATM   37  C   UNL     1      28.998  31.966  59.456  1.00  0.00     0.016 C 
HETATM   38  C   UNL     1      29.025  30.525  59.964  1.00  0.00     0.012 C 
HETATM   39  C   UNL     1      30.393  32.584  59.524  1.00  0.00     0.012 C 
ENDBRANCH  18  37
BRANCH  17  40
HETATM   40  C   UNL     1      26.193  25.001  57.332  1.00  0.00     0.016 C 
HETATM   41  C   UNL     1      27.411  24.342  56.689  1.00  0.00     0.012 C 
HETATM   42  C   UNL     1      24.903  24.383  56.796  1.00  0.00     0.012 C 
ENDBRANCH  17  40
BRANCH  15  43
HETATM   43  C   UNL     1      29.903  28.578  55.046  1.00  0.00     0.010 C 
HETATM   44  C   UNL     1      30.724  29.810  54.674  1.00  0.00     0.012 C 
HETATM   45  C   UNL     1      30.761  27.318  54.978  1.00  0.00     0.012 C 
ENDBRANCH  15  43
TORSDOF 6
ENDMDL
MODEL 3
REMARK VINA RESULT:    -5.221     11.195     16.303
REMARK INTER + INTRA:          -5.756
REMARK INTER:                  -6.753
REMARK INTRA:                   0.997
REMARK UNBOUND:                 1.296
REMARK  6 active torsions:
REMARK  status: ('A' for Active; 'I' for Inactive)
REMARK    1  A    between atoms: C_13  and  C_16 
REMARK    2  A    between atoms: C_14  and  C_17 
REMARK    3  A    between atoms: C_15  and  C_18 
REMARK    4  A    between atoms: C_19  and  C_22 
REMARK    5  A    between atoms: C_20  and  C_23 
REMARK    6  A    between atoms: C_21  and  C_24 
ROOT
HETATM    1  O   UNL     1      39.408  36.185  55.128  1.00  0.00    -0.304 OA
HETATM    2  O   UNL     1      34.787  38.226  56.254  1.00  0.00    -0.304 OA
HETATM    3  O   UNL     1      37.691  40.891  53.642  1.00  0.00    -0.304 OA
HETATM    4  O   UNL     1      37.124  36.627  53.984  1.00  0.00    -0.270 OA
HETATM    5  O   UNL     1      38.983  38.256  52.384  1.00  0.00    -0.270 OA
HETATM    6  O   UNL     1      33.830  41.064  55.013  1.00  0.00    -0.270 OA
HETATM    7  O   UNL     1      39.317  38.077  56.444  1.00  0.00    -0.263 OA
HETATM    8  O   UNL     1      33.215  38.197  54.572  1.00  0.00    -0.263 OA
HETATM    9  O   UNL     1      37.778  43.142  53.193  1.00  0.00    -0.263 OA
HETATM   10  N   UNL     1      35.774  35.853  55.695  1.00  0.00    -0.340 N 
HETATM   11  N   UNL     1      40.222  39.302  54.043  1.00  0.00    -0.340 N 
HETATM   12  N   UNL     1      36.038  41.143  55.740  1.00  0.00    -0.340 N 
HETATM   13  C   UNL     1      34.563  36.231  54.937  1.00  0.00     0.190 C 
HETATM   14  C   UNL     1      40.768  38.005  54.491  1.00  0.00     0.190 C 
HETATM   15  C   UNL     1      36.333  42.369  54.969  1.00  0.00     0.190 C 
HETATM   16  C   UNL     1      38.278  35.600  55.811  1.00  0.00     0.227 C 
HETATM   17  C   UNL     1      34.420  39.522  56.757  1.00  0.00     0.227 C 
HETATM   18  C   UNL     1      38.644  40.614  52.598  1.00  0.00     0.227 C 
HETATM   19  C   UNL     1      37.016  36.075  55.085  1.00  0.00     0.250 C 
HETATM   20  C   UNL     1      39.292  39.288  52.988  1.00  0.00     0.250 C 
HETATM   21  C   UNL     1      34.726  40.639  55.748  1.00  0.00     0.250 C 
HETATM   22  C   UNL     1      39.763  37.454  55.488  1.00  0.00     0.283 C 
HETATM   23  C   UNL     1      34.115  37.665  55.212  1.00  0.00     0.283 C 
HETATM   24  C   UNL     1      37.354  42.195  53.847  1.00  0.00     0.283 C 
HETATM   25  C   UNL     1      35.595  35.309  57.044  1.00  0.00     0.153 C 
HETATM   26  C   UNL     1      40.657  40.510  54.753  1.00  0.00     0.153 C 
HETATM   27  C   UNL     1      37.097  40.616  56.604  1.00  0.00     0.153 C 
ENDROOT
BRANCH  16  28
HETATM   28  C   UNL     1      38.428  34.090  55.696  1.00  0.00     0.016 C 
HETATM   29  C   UNL     1      39.647  33.732  54.847  1.00  0.00     0.012 C 
HETATM   30  C   UNL     1      38.534  33.450  57.079  1.00  0.00     0.012 C 
ENDBRANCH  16  28
BRANCH  14  31
HETATM   31  C   UNL     1      42.158  38.044  55.113  1.00  0.00     0.010 C 
HETATM   32  C   UNL     1      42.398  36.804  55.971  1.00  0.00     0.012 C 
HETATM   33  C   UNL     1      43.228  38.160  54.029  1.00  0.00     0.012 C 
ENDBRANCH  14  31
BRANCH  13  34
HETATM   34  C   UNL     1      33.386  35.277  55.139  1.00  0.00     0.010 C 
HETATM   35  C   UNL     1      32.514  35.222  53.886  1.00  0.00     0.012 C 
HETATM   36  C   UNL     1      32.555  35.692  56.351  1.00  0.00     0.012 C 
ENDBRANCH  13  34
BRANCH  18  37
HETATM   37  C   UNL     1      37.897  40.508  51.271  1.00  0.00     0.016 C 
HETATM   38  C   UNL     1      36.386  40.519  51.501  1.00  0.00     0.012 C 
HETATM   39  C   UNL     1      38.303  41.640  50.330  1.00  0.00     0.012 C 
ENDBRANCH  18  37
BRANCH  17  40
HETATM   40  C   UNL     1      32.973  39.552  57.249  1.00  0.00     0.016 C 
HETATM   41  C   UNL     1      32.592  40.955  57.714  1.00  0.00     0.012 C 
HETATM   42  C   UNL     1      32.768  38.539  58.374  1.00  0.00     0.012 C 
ENDBRANCH  17  40
BRANCH  15  43
HETATM   43  C   UNL     1      36.741  43.520  55.890  1.00  0.00     0.010 C 
HETATM   44  C   UNL     1      38.250  43.740  55.833  1.00  0.00     0.012 C 
HETATM   45  C   UNL     1      35.995  44.796  55.511  1.00  0.00     0.012 C 
ENDBRANCH  15  43
TORSDOF 6
ENDMDL
MODEL 4
REMARK VINA RESULT:    -5.143      2.894      7.684
REMARK INTER + INTRA:          -5.652
REMARK INTER:                  -6.363
REMARK INTRA:                   0.711
REMARK UNBOUND:                 1.296
REMARK  6 active torsions:
REMARK  status: ('A' for Active; 'I' for Inactive)
REMARK    1  A    between atoms: C_13  and  C_16 
REMARK    2  A    between atoms: C_14  and  C_17 
REMARK    3  A    between atoms: C_15  and  C_18 
REMARK    4  A    between atoms: C_19  and  C_22 
REMARK    5  A    between atoms: C_20  and  C_23 
REMARK    6  A    between atoms: C_21  and  C_24 
ROOT
HETATM    1  O   UNL     1      29.213  28.358  56.629  1.00  0.00    -0.304 OA
HETATM    2  O   UNL     1      25.480  25.847  59.187  1.00  0.00    -0.304 OA
HETATM    3  O   UNL     1      24.764  30.453  58.393  1.00  0.00    -0.304 OA
HETATM    4  O   UNL     1      26.851  27.380  56.198  1.00  0.00    -0.270 OA
HETATM    5  O   UNL     1      26.469  30.258  55.701  1.00  0.00    -0.270 OA
HETATM    6  O   UNL     1      22.683  27.288  59.968  1.00  0.00    -0.270 OA
HETATM    7  O   UNL     1      28.763  28.955  58.811  1.00  0.00    -0.263 OA
HETATM    8  O   UNL     1      23.601  25.292  57.977  1.00  0.00    -0.263 OA
HETATM    9  O   UNL     1      23.385  32.016  59.358  1.00  0.00    -0.263 OA
HETATM   10  N   UNL     1      27.173  25.341  57.239  1.00  0.00    -0.340 N 
HETATM   11  N   UNL     1      27.557  31.187  57.528  1.00  0.00    -0.340 N 
HETATM   12  N   UNL     1      24.509  28.670  60.382  1.00  0.00    -0.340 N 
HETATM   13  C   UNL     1      25.769  24.961  56.974  1.00  0.00     0.190 C 
HETATM   14  C   UNL     1      28.852  30.648  57.065  1.00  0.00     0.190 C 
HETATM   15  C   UNL     1      23.673  29.886  60.462  1.00  0.00     0.190 C 
HETATM   16  C   UNL     1      29.086  26.953  56.939  1.00  0.00     0.227 C 
HETATM   17  C   UNL     1      24.769  26.178  60.393  1.00  0.00     0.227 C 
HETATM   18  C   UNL     1      25.062  31.344  57.302  1.00  0.00     0.227 C 
HETATM   19  C   UNL     1      27.610  26.584  56.762  1.00  0.00     0.250 C 
HETATM   20  C   UNL     1      26.415  30.882  56.766  1.00  0.00     0.250 C 
HETATM   21  C   UNL     1      23.885  27.421  60.217  1.00  0.00     0.250 C 
HETATM   22  C   UNL     1      28.943  29.243  57.635  1.00  0.00     0.283 C 
HETATM   23  C   UNL     1      24.818  25.397  58.087  1.00  0.00     0.283 C 
HETATM   24  C   UNL     1      23.925  30.915  59.362  1.00  0.00     0.283 C 
HETATM   25  C   UNL     1      27.999  24.410  58.014  1.00  0.00     0.153 C 
HETATM   26  C   UNL     1      27.545  31.969  58.768  1.00  0.00     0.153 C 
HETATM   27  C   UNL     1      25.940  28.812  60.658  1.00  0.00     0.153 C 
ENDROOT
BRANCH  16  28
HETATM   28  C   UNL     1      29.951  26.201  55.938  1.00  0.00     0.016 C 
HETATM   29  C   UNL     1      30.394  27.127  54.806  1.00  0.00     0.012 C 
HETATM   30  C   UNL     1      31.167  25.585  56.630  1.00  0.00     0.012 C 
ENDBRANCH  16  28
BRANCH  14  31
HETATM   31  C   UNL     1      30.087  31.454  57.450  1.00  0.00     0.010 C 
HETATM   32  C   UNL     1      31.343  30.591  57.353  1.00  0.00     0.012 C 
HETATM   33  C   UNL     1      30.217  32.692  56.567  1.00  0.00     0.012 C 
ENDBRANCH  14  31
BRANCH  13  34
HETATM   34  C   UNL     1      25.577  23.473  56.685  1.00  0.00     0.010 C 
HETATM   35  C   UNL     1      24.676  23.272  55.468  1.00  0.00     0.012 C 
HETATM   36  C   UNL     1      24.998  22.756  57.903  1.00  0.00     0.012 C 
ENDBRANCH  13  34
BRANCH  18  37
HETATM   37  C   UNL     1      23.964  31.212  56.250  1.00  0.00     0.016 C 
HETATM   38  C   UNL     1      23.041  30.038  56.578  1.00  0.00     0.012 C 
HETATM   39  C   UNL     1      23.163  32.507  56.139  1.00  0.00     0.012 C 
ENDBRANCH  18  37
BRANCH  17  40
HETATM   40  C   UNL     1      23.998  24.978  60.945  1.00  0.00     0.016 C 
HETATM   41  C   UNL     1      23.237  25.365  62.211  1.00  0.00     0.012 C 
HETATM   42  C   UNL     1      24.945  23.812  61.222  1.00  0.00     0.012 C 
ENDBRANCH  17  40
BRANCH  15  43
HETATM   43  C   UNL     1      23.775  30.540  61.840  1.00  0.00     0.010 C 
HETATM   44  C   UNL     1      24.678  31.770  61.782  1.00  0.00     0.012 C 
HETATM   45  C   UNL     1      22.389  30.914  62.358  1.00  0.00     0.012 C 
ENDBRANCH  15  43
TORSDOF 6
ENDMDL
MODEL 5
REMARK VINA RESULT:    -5.064      3.783      6.395
REMARK INTER + INTRA:          -5.545
REMARK INTER:                  -6.300
REMARK INTRA:                   0.755
REMARK UNBOUND:                 1.296
REMARK  6 active torsions:
REMARK  status: ('A' for Active; 'I' for Inactive)
REMARK    1  A    between atoms: C_13  and  C_16 
REMARK    2  A    between atoms: C_14  and  C_17 
REMARK    3  A    between atoms: C_15  and  C_18 
REMARK    4  A    between atoms: C_19  and  C_22 
REMARK    5  A    between atoms: C_20  and  C_23 
REMARK    6  A    between atoms: C_21  and  C_24 
ROOT
HETATM    1  O   UNL     1      28.528  31.975  56.752  1.00  0.00    -0.304 OA
HETATM    2  O   UNL     1      26.738  27.155  57.344  1.00  0.00    -0.304 OA
HETATM    3  O   UNL     1      31.147  27.968  58.846  1.00  0.00    -0.304 OA
HETATM    4  O   UNL     1      27.614  30.435  58.626  1.00  0.00    -0.270 OA
HETATM    5  O   UNL     1      30.365  30.989  59.519  1.00  0.00    -0.270 OA
HETATM    6  O   UNL     1      28.445  24.883  58.903  1.00  0.00    -0.270 OA
HETATM    7  O   UNL     1      29.543  30.260  55.592  1.00  0.00    -0.263 OA
HETATM    8  O   UNL     1      26.068  26.563  59.466  1.00  0.00    -0.263 OA
HETATM    9  O   UNL     1      32.933  26.593  59.287  1.00  0.00    -0.263 OA
HETATM   10  N   UNL     1      25.789  29.605  57.473  1.00  0.00    -0.340 N 
HETATM   11  N   UNL     1      31.558  30.661  57.556  1.00  0.00    -0.340 N 
HETATM   12  N   UNL     1      29.780  26.123  57.457  1.00  0.00    -0.340 N 
HETATM   13  C   UNL     1      25.442  28.730  58.613  1.00  0.00     0.190 C 
HETATM   14  C   UNL     1      30.875  31.805  56.918  1.00  0.00     0.190 C 
HETATM   15  C   UNL     1      31.033  25.681  58.105  1.00  0.00     0.190 C 
HETATM   16  C   UNL     1      27.214  31.436  56.490  1.00  0.00     0.227 C 
HETATM   17  C   UNL     1      27.323  25.881  57.029  1.00  0.00     0.227 C 
HETATM   18  C   UNL     1      31.802  29.078  59.488  1.00  0.00     0.227 C 
HETATM   19  C   UNL     1      26.897  30.451  57.619  1.00  0.00     0.250 C 
HETATM   20  C   UNL     1      31.178  30.326  58.868  1.00  0.00     0.250 C 
HETATM   21  C   UNL     1      28.557  25.585  57.894  1.00  0.00     0.250 C 
HETATM   22  C   UNL     1      29.597  31.243  56.319  1.00  0.00     0.283 C 
HETATM   23  C   UNL     1      26.126  27.366  58.542  1.00  0.00     0.283 C 
HETATM   24  C   UNL     1      31.825  26.787  58.799  1.00  0.00     0.283 C 
HETATM   25  C   UNL     1      24.976  29.502  56.258  1.00  0.00     0.153 C 
HETATM   26  C   UNL     1      32.557  29.933  56.767  1.00  0.00     0.153 C 
HETATM   27  C   UNL     1      29.896  26.970  56.268  1.00  0.00     0.153 C 
ENDROOT
BRANCH  16  28
HETATM   28  C   UNL     1      26.245  32.609  56.513  1.00  0.00     0.016 C 
HETATM   29  C   UNL     1      26.788  33.741  57.383  1.00  0.00     0.012 C 
HETATM   30  C   UNL     1      25.970  33.110  55.095  1.00  0.00     0.012 C 
ENDBRANCH  16  28
BRANCH  14  31
HETATM   31  C   UNL     1      31.672  32.550  55.854  1.00  0.00     0.010 C 
HETATM   32  C   UNL     1      30.746  33.069  54.755  1.00  0.00     0.012 C 
HETATM   33  C   UNL     1      32.460  33.699  56.478  1.00  0.00     0.012 C 
ENDBRANCH  14  31
BRANCH  13  34
HETATM   34  C   UNL     1      23.938  28.542  58.810  1.00  0.00     0.010 C 
HETATM   35  C   UNL     1      23.547  28.805  60.263  1.00  0.00     0.012 C 
HETATM   36  C   UNL     1      23.509  27.138  58.387  1.00  0.00     0.012 C 
ENDBRANCH  13  34
BRANCH  18  37
HETATM   37  C   UNL     1      31.536  29.000  60.989  1.00  0.00     0.016 C 
HETATM   38  C   UNL     1      30.463  27.954  61.292  1.00  0.00     0.012 C 
HETATM   39  C   UNL     1      32.821  28.685  61.751  1.00  0.00     0.012 C 
ENDBRANCH  18  37
BRANCH  17  40
HETATM   40  C   UNL     1      26.290  24.755  57.070  1.00  0.00     0.016 C 
HETATM   41  C   UNL     1      26.932  23.422  56.690  1.00  0.00     0.012 C 
HETATM   42  C   UNL     1      25.116  25.069  56.144  1.00  0.00     0.012 C 
ENDBRANCH  17  40
BRANCH  15  43
HETATM   43  C   UNL     1      31.925  24.917  57.126  1.00  0.00     0.010 C 
HETATM   44  C   UNL     1      33.061  25.809  56.632  1.00  0.00     0.012 C 
HETATM   45  C   UNL     1      32.478  23.655  57.782  1.00  0.00     0.012 C 
ENDBRANCH  15  43
TORSDOF 6
ENDMDL
MODEL 6
REMARK VINA RESULT:    -5.061      2.757      7.387
REMARK INTER + INTRA:          -5.540
REMARK INTER:                  -6.263
REMARK INTRA:                   0.723
REMARK UNBOUND:                 1.296
REMARK  6 active torsions:
REMARK  status: ('A' for Active; 'I' for Inactive)
REMARK    1  A    between atoms: C_13  and  C_16 
REMARK    2  A    between atoms: C_14  and  C_17 
REMARK    3  A    between atoms: C_15  and  C_18 
REMARK    4  A    between atoms: C_19  and  C_22 
REMARK    5  A    between atoms: C_20  and  C_23 
REMARK    6  A    between atoms: C_21  and  C_24 
ROOT
HETATM    1  O   UNL     1      29.956  29.856  56.344  1.00  0.00    -0.304 OA
HETATM    2  O   UNL     1      25.331  31.588  57.891  1.00  0.00    -0.304 OA
HETATM    3  O   UNL     1      26.575  27.276  59.380  1.00  0.00    -0.304 OA
HETATM    4  O   UNL     1      28.835  30.837  58.465  1.00  0.00    -0.270 OA
HETATM    5  O   UNL     1      29.647  28.145  59.341  1.00  0.00    -0.270 OA
HETATM    6  O   UNL     1      23.501  29.922  59.985  1.00  0.00    -0.270 OA
HETATM    7  O   UNL     1      28.060  28.752  55.634  1.00  0.00    -0.263 OA
HETATM    8  O   UNL     1      25.195  32.354  60.058  1.00  0.00    -0.263 OA
HETATM    9  O   UNL     1      25.381  25.491  60.192  1.00  0.00    -0.263 OA
HETATM   10  N   UNL     1      27.722  32.585  57.438  1.00  0.00    -0.340 N 
HETATM   11  N   UNL     1      28.935  26.847  57.554  1.00  0.00    -0.340 N 
HETATM   12  N   UNL     1      24.435  28.537  58.366  1.00  0.00    -0.340 N 
HETATM   13  C   UNL     1      27.106  32.974  58.724  1.00  0.00     0.190 C 
HETATM   14  C   UNL     1      29.894  27.517  56.651  1.00  0.00     0.190 C 
HETATM   15  C   UNL     1      24.180  27.312  59.152  1.00  0.00     0.190 C 
HETATM   16  C   UNL     1      29.336  31.145  56.146  1.00  0.00     0.227 C 
HETATM   17  C   UNL     1      24.036  30.964  57.888  1.00  0.00     0.227 C 
HETATM   18  C   UNL     1      27.816  26.674  59.794  1.00  0.00     0.227 C 
HETATM   19  C   UNL     1      28.611  31.501  57.447  1.00  0.00     0.250 C 
HETATM   20  C   UNL     1      28.882  27.288  58.888  1.00  0.00     0.250 C 
HETATM   21  C   UNL     1      23.970  29.771  58.853  1.00  0.00     0.250 C 
HETATM   22  C   UNL     1      29.178  28.753  56.131  1.00  0.00     0.283 C 
HETATM   23  C   UNL     1      25.780  32.263  58.984  1.00  0.00     0.283 C 
HETATM   24  C   UNL     1      25.433  26.576  59.623  1.00  0.00     0.283 C 
HETATM   25  C   UNL     1      27.335  33.333  56.239  1.00  0.00     0.153 C 
HETATM   26  C   UNL     1      28.082  25.797  56.989  1.00  0.00     0.153 C 
HETATM   27  C   UNL     1      25.006  28.376  57.027  1.00  0.00     0.153 C 
ENDROOT
BRANCH  16  28
HETATM   28  C   UNL     1      30.458  32.135  55.868  1.00  0.00     0.016 C 
HETATM   29  C   UNL     1      31.819  31.503  56.156  1.00  0.00     0.012 C 
HETATM   30  C   UNL     1      30.395  32.631  54.423  1.00  0.00     0.012 C 
ENDBRANCH  16  28
BRANCH  14  31
HETATM   31  C   UNL     1      30.412  26.681  55.487  1.00  0.00     0.010 C 
HETATM   32  C   UNL     1      30.768  27.574  54.301  1.00  0.00     0.012 C 
HETATM   33  C   UNL     1      31.621  25.853  55.917  1.00  0.00     0.012 C 
ENDBRANCH  14  31
BRANCH  13  34
HETATM   34  C   UNL     1      26.922  34.483  58.888  1.00  0.00     0.010 C 
HETATM   35  C   UNL     1      27.486  34.952  60.229  1.00  0.00     0.012 C 
HETATM   36  C   UNL     1      25.449  34.865  58.765  1.00  0.00     0.012 C 
ENDBRANCH  13  34
BRANCH  18  37
HETATM   37  C   UNL     1      28.059  27.016  61.262  1.00  0.00     0.016 C 
HETATM   38  C   UNL     1      27.084  28.096  61.732  1.00  0.00     0.012 C 
HETATM   39  C   UNL     1      27.937  25.768  62.134  1.00  0.00     0.012 C 
ENDBRANCH  18  37
BRANCH  17  40
HETATM   40  C   UNL     1      22.916  31.978  58.126  1.00  0.00     0.016 C 
HETATM   41  C   UNL     1      21.559  31.280  58.175  1.00  0.00     0.012 C 
HETATM   42  C   UNL     1      22.928  33.055  57.043  1.00  0.00     0.012 C 
ENDBRANCH  17  40
BRANCH  15  43
HETATM   43  C   UNL     1      23.248  26.357  58.405  1.00  0.00     0.010 C 
HETATM   44  C   UNL     1      24.044  25.218  57.773  1.00  0.00     0.012 C 
HETATM   45  C   UNL     1      22.179  25.809  59.347  1.00  0.00     0.012 C 
ENDBRANCH  15  43
TORSDOF 6
ENDMDL
MODEL 7
REMARK VINA RESULT:    -4.997      2.581      7.351
REMARK INTER + INTRA:          -5.454
REMARK INTER:                  -6.197
REMARK INTRA:                   0.743
REMARK UNBOUND:                 1.296
REMARK  6 active torsions:
REMARK  status: ('A' for Active; 'I' for Inactive)
REMARK    1  A    between atoms: C_13  and  C_16 
REMARK    2  A    between atoms: C_14  and  C_17 
REMARK    3  A    between atoms: C_15  and  C_18 
REMARK    4  A    between atoms: C_19  and  C_22 
REMARK    5  A    between atoms: C_20  and  C_23 
REMARK    6  A    between atoms: C_21  and  C_24 
ROOT
HETATM    1  O   UNL     1      29.339  33.521  58.666  1.00  0.00    -0.304 OA
HETATM    2  O   UNL     1      28.328  28.525  57.773  1.00  0.00    -0.304 OA
HETATM    3  O   UNL     1      24.593  31.401  58.136  1.00  0.00    -0.304 OA
HETATM    4  O   UNL     1      28.623  31.982  56.708  1.00  0.00    -0.270 OA
HETATM    5  O   UNL     1      26.331  33.812  56.971  1.00  0.00    -0.270 OA
HETATM    6  O   UNL     1      25.314  27.467  57.224  1.00  0.00    -0.270 OA
HETATM    7  O   UNL     1      28.203  32.312  60.268  1.00  0.00    -0.263 OA
HETATM    8  O   UNL     1      27.753  27.964  55.615  1.00  0.00    -0.263 OA
HETATM    9  O   UNL     1      22.367  31.036  58.567  1.00  0.00    -0.263 OA
HETATM   10  N   UNL     1      30.153  30.288  57.080  1.00  0.00    -0.340 N 
HETATM   11  N   UNL     1      26.006  33.811  59.268  1.00  0.00    -0.340 N 
HETATM   12  N   UNL     1      25.387  28.984  58.987  1.00  0.00    -0.340 N 
HETATM   13  C   UNL     1      29.580  29.499  55.969  1.00  0.00     0.190 C 
HETATM   14  C   UNL     1      27.325  34.441  59.483  1.00  0.00     0.190 C 
HETATM   15  C   UNL     1      23.931  29.232  58.941  1.00  0.00     0.190 C 
HETATM   16  C   UNL     1      30.243  32.425  58.412  1.00  0.00     0.227 C 
HETATM   17  C   UNL     1      27.403  27.618  58.397  1.00  0.00     0.227 C 
HETATM   18  C   UNL     1      24.324  32.757  57.731  1.00  0.00     0.227 C 
HETATM   19  C   UNL     1      29.599  31.550  57.332  1.00  0.00     0.250 C 
HETATM   20  C   UNL     1      25.637  33.507  57.945  1.00  0.00     0.250 C 
HETATM   21  C   UNL     1      25.943  28.015  58.134  1.00  0.00     0.250 C 
HETATM   22  C   UNL     1      28.322  33.297  59.552  1.00  0.00     0.283 C 
HETATM   23  C   UNL     1      28.439  28.588  56.418  1.00  0.00     0.283 C 
HETATM   24  C   UNL     1      23.532  30.652  58.545  1.00  0.00     0.283 C 
HETATM   25  C   UNL     1      31.234  29.682  57.864  1.00  0.00     0.153 C 
HETATM   26  C   UNL     1      25.188  33.515  60.449  1.00  0.00     0.153 C 
HETATM   27  C   UNL     1      26.151  29.638  60.051  1.00  0.00     0.153 C 
ENDROOT
BRANCH  16  28
HETATM   28  C   UNL     1      31.542  33.033  57.907  1.00  0.00     0.016 C 
HETATM   29  C   UNL     1      31.310  34.455  57.396  1.00  0.00     0.012 C 
HETATM   30  C   UNL     1      32.605  33.027  59.005  1.00  0.00     0.012 C 
ENDBRANCH  16  28
BRANCH  14  31
HETATM   31  C   UNL     1      27.451  35.324  60.717  1.00  0.00     0.010 C 
HETATM   32  C   UNL     1      28.915  35.475  61.123  1.00  0.00     0.012 C 
HETATM   33  C   UNL     1      26.821  36.692  60.466  1.00  0.00     0.012 C 
ENDBRANCH  14  31
BRANCH  13  34
HETATM   34  C   UNL     1      30.614  28.684  55.193  1.00  0.00     0.010 C 
HETATM   35  C   UNL     1      30.721  29.181  53.752  1.00  0.00     0.012 C 
HETATM   36  C   UNL     1      30.265  27.198  55.222  1.00  0.00     0.012 C 
ENDBRANCH  13  34
BRANCH  18  37
HETATM   37  C   UNL     1      23.909  32.755  56.263  1.00  0.00     0.016 C 
HETATM   38  C   UNL     1      24.142  31.379  55.638  1.00  0.00     0.012 C 
HETATM   39  C   UNL     1      22.447  33.170  56.114  1.00  0.00     0.012 C 
ENDBRANCH  18  37
BRANCH  17  40
HETATM   40  C   UNL     1      27.696  26.164  58.027  1.00  0.00     0.016 C 
HETATM   41  C   UNL     1      26.725  25.223  58.737  1.00  0.00     0.012 C 
HETATM   42  C   UNL     1      29.141  25.803  58.368  1.00  0.00     0.012 C 
ENDBRANCH  17  40
BRANCH  15  43
HETATM   43  C   UNL     1      23.257  28.833  60.254  1.00  0.00     0.010 C 
HETATM   44  C   UNL     1      22.887  30.073  61.063  1.00  0.00     0.012 C 
HETATM   45  C   UNL     1      22.022  27.979  59.982  1.00  0.00     0.012 C 
ENDBRANCH  15  43
TORSDOF 6
ENDMDL
MODEL 8
REMARK VINA RESULT:    -4.968      3.238      7.947
REMARK INTER + INTRA:          -5.415
REMARK INTER:                  -6.294
REMARK INTRA:                   0.879
REMARK UNBOUND:                 1.296
REMARK  6 active torsions:
REMARK  status: ('A' for Active; 'I' for Inactive)
REMARK    1  A    between atoms: C_13  and  C_16 
REMARK    2  A    between atoms: C_14  and  C_17 
REMARK    3  A    between atoms: C_15  and  C_18 
REMARK    4  A    between atoms: C_19  and  C_22 
REMARK    5  A    between atoms: C_20  and  C_23 
REMARK    6  A    between atoms: C_21  and  C_24 
ROOT
HETATM    1  O   UNL     1      25.201  27.481  58.431  1.00  0.00    -0.304 OA
HETATM    2  O   UNL     1      27.783  31.955  58.111  1.00  0.00    -0.304 OA
HETATM    3  O   UNL     1      30.267  28.021  57.270  1.00  0.00    -0.304 OA
HETATM    4  O   UNL     1      26.135  29.085  56.622  1.00  0.00    -0.270 OA
HETATM    5  O   UNL     1      27.642  26.602  56.135  1.00  0.00    -0.270 OA
HETATM    6  O   UNL     1      30.868  32.076  57.125  1.00  0.00    -0.270 OA
HETATM    7  O   UNL     1      26.904  27.894  59.931  1.00  0.00    -0.263 OA
HETATM    8  O   UNL     1      28.212  32.743  55.991  1.00  0.00    -0.263 OA
HETATM    9  O   UNL     1      32.514  27.550  57.288  1.00  0.00    -0.263 OA
HETATM   10  N   UNL     1      25.373  31.063  57.548  1.00  0.00    -0.340 N 
HETATM   11  N   UNL     1      28.264  26.013  58.291  1.00  0.00    -0.340 N 
HETATM   12  N   UNL     1      30.509  30.328  58.618  1.00  0.00    -0.340 N 
HETATM   13  C   UNL     1      26.028  31.841  56.475  1.00  0.00     0.190 C 
HETATM   14  C   UNL     1      26.851  25.812  58.673  1.00  0.00     0.190 C 
HETATM   15  C   UNL     1      31.760  29.640  58.239  1.00  0.00     0.190 C 
HETATM   16  C   UNL     1      24.719  28.839  58.534  1.00  0.00     0.227 C 
HETATM   17  C   UNL     1      29.046  32.362  58.663  1.00  0.00     0.227 C 
HETATM   18  C   UNL     1      29.978  26.769  56.620  1.00  0.00     0.227 C 
HETATM   19  C   UNL     1      25.473  29.666  57.489  1.00  0.00     0.250 C 
HETATM   20  C   UNL     1      28.528  26.455  56.982  1.00  0.00     0.250 C 
HETATM   21  C   UNL     1      30.219  31.582  58.052  1.00  0.00     0.250 C 
HETATM   22  C   UNL     1      26.344  27.174  59.115  1.00  0.00     0.283 C 
HETATM   23  C   UNL     1      27.469  32.219  56.814  1.00  0.00     0.283 C 
HETATM   24  C   UNL     1      31.571  28.284  57.562  1.00  0.00     0.283 C 
HETATM   25  C   UNL     1      24.699  31.805  58.617  1.00  0.00     0.153 C 
HETATM   26  C   UNL     1      29.289  25.774  59.311  1.00  0.00     0.153 C 
HETATM   27  C   UNL     1      29.718  29.746  59.704  1.00  0.00     0.153 C 
ENDROOT
BRANCH  16  28
HETATM   28  C   UNL     1      23.231  28.802  58.218  1.00  0.00     0.016 C 
HETATM   29  C   UNL     1      22.798  27.391  57.824  1.00  0.00     0.012 C 
HETATM   30  C   UNL     1      22.413  29.298  59.410  1.00  0.00     0.012 C 
ENDBRANCH  16  28
BRANCH  14  31
HETATM   31  C   UNL     1      26.594  24.776  59.760  1.00  0.00     0.010 C 
HETATM   32  C   UNL     1      25.235  25.013  60.416  1.00  0.00     0.012 C 
HETATM   33  C   UNL     1      26.673  23.364  59.187  1.00  0.00     0.012 C 
ENDBRANCH  14  31
BRANCH  13  34
HETATM   34  C   UNL     1      25.252  33.089  56.058  1.00  0.00     0.010 C 
HETATM   35  C   UNL     1      25.358  33.311  54.549  1.00  0.00     0.012 C 
HETATM   36  C   UNL     1      25.754  34.317  56.815  1.00  0.00     0.012 C 
ENDBRANCH  13  34
BRANCH  18  37
HETATM   37  C   UNL     1      30.157  26.947  55.115  1.00  0.00     0.016 C 
HETATM   38  C   UNL     1      30.359  28.421  54.766  1.00  0.00     0.012 C 
HETATM   39  C   UNL     1      31.331  26.112  54.608  1.00  0.00     0.012 C 
ENDBRANCH  18  37
BRANCH  17  40
HETATM   40  C   UNL     1      29.240  33.877  58.583  1.00  0.00     0.016 C 
HETATM   41  C   UNL     1      30.644  34.264  59.041  1.00  0.00     0.012 C 
HETATM   42  C   UNL     1      28.184  34.598  59.419  1.00  0.00     0.012 C 
ENDBRANCH  17  40
BRANCH  15  43
HETATM   43  C   UNL     1      32.709  29.514  59.432  1.00  0.00     0.010 C 
HETATM   44  C   UNL     1      32.702  28.086  59.971  1.00  0.00     0.012 C 
HETATM   45  C   UNL     1      34.121  29.935  59.038  1.00  0.00     0.012 C 
ENDBRANCH  15  43
TORSDOF 6
ENDMDL
MODEL 9
REMARK VINA RESULT:    -4.860      4.058      8.874
REMARK INTER + INTRA:          -5.270
REMARK INTER:                  -6.002
REMARK INTRA:                   0.732
REMARK UNBOUND:                 1.296
REMARK  6 active torsions:
REMARK  status: ('A' for Active; 'I' for Inactive)
REMARK    1  A    between atoms: C_13  and  C_16 
REMARK    2  A    between atoms: C_14  and  C_17 
REMARK    3  A    between atoms: C_15  and  C_18 
REMARK    4  A    between atoms: C_19  and  C_22 
REMARK    5  A    between atoms: C_20  and  C_23 
REMARK    6  A    between atoms: C_21  and  C_24 
ROOT
HETATM    1  O   UNL     1      26.809  30.665  57.211  1.00  0.00    -0.304 OA
HETATM    2  O   UNL     1      31.776  31.564  58.351  1.00  0.00    -0.304 OA
HETATM    3  O   UNL     1      30.587  27.067  57.503  1.00  0.00    -0.304 OA
HETATM    4  O   UNL     1      29.100  30.834  56.011  1.00  0.00    -0.270 OA
HETATM    5  O   UNL     1      28.300  28.046  55.501  1.00  0.00    -0.270 OA
HETATM    6  O   UNL     1      34.006  29.214  58.227  1.00  0.00    -0.270 OA
HETATM    7  O   UNL     1      27.686  29.769  59.146  1.00  0.00    -0.263 OA
HETATM    8  O   UNL     1      33.251  31.563  56.583  1.00  0.00    -0.263 OA
HETATM    9  O   UNL     1      31.575  25.059  58.015  1.00  0.00    -0.263 OA
HETATM   10  N   UNL     1      29.839  32.768  57.041  1.00  0.00    -0.340 N 
HETATM   11  N   UNL     1      27.590  27.381  57.608  1.00  0.00    -0.340 N 
HETATM   12  N   UNL     1      32.045  28.489  59.249  1.00  0.00    -0.340 N 
HETATM   13  C   UNL     1      31.130  32.680  56.325  1.00  0.00     0.190 C 
HETATM   14  C   UNL     1      26.482  28.357  57.573  1.00  0.00     0.190 C 
HETATM   15  C   UNL     1      32.394  27.062  59.090  1.00  0.00     0.190 C 
HETATM   16  C   UNL     1      27.499  31.916  57.421  1.00  0.00     0.227 C 
HETATM   17  C   UNL     1      32.670  30.915  59.271  1.00  0.00     0.227 C 
HETATM   18  C   UNL     1      29.676  26.422  56.592  1.00  0.00     0.227 C 
HETATM   19  C   UNL     1      28.877  31.786  56.767  1.00  0.00     0.250 C 
HETATM   20  C   UNL     1      28.467  27.352  56.509  1.00  0.00     0.250 C 
HETATM   21  C   UNL     1      32.973  29.468  58.855  1.00  0.00     0.250 C 
HETATM   22  C   UNL     1      27.060  29.659  58.100  1.00  0.00     0.283 C 
HETATM   23  C   UNL     1      32.172  31.860  57.083  1.00  0.00     0.283 C 
HETATM   24  C   UNL     1      31.475  26.272  58.161  1.00  0.00     0.283 C 
HETATM   25  C   UNL     1      29.669  33.852  58.013  1.00  0.00     0.153 C 
HETATM   26  C   UNL     1      27.721  26.537  58.800  1.00  0.00     0.153 C 
HETATM   27  C   UNL     1      30.815  28.807  59.977  1.00  0.00     0.153 C 
ENDROOT
BRANCH  16  28
HETATM   28  C   UNL     1      26.676  32.994  56.733  1.00  0.00     0.016 C 
HETATM   29  C   UNL     1      25.672  32.371  55.764  1.00  0.00     0.012 C 
HETATM   30  C   UNL     1      25.955  33.864  57.762  1.00  0.00     0.012 C 
ENDBRANCH  16  28
BRANCH  14  31
HETATM   31  C   UNL     1      25.233  27.978  58.360  1.00  0.00     0.010 C 
HETATM   32  C   UNL     1      24.382  29.214  58.643  1.00  0.00     0.012 C 
HETATM   33  C   UNL     1      24.420  26.929  57.605  1.00  0.00     0.012 C 
ENDBRANCH  14  31
BRANCH  13  34
HETATM   34  C   UNL     1      31.719  34.038  55.947  1.00  0.00     0.010 C 
HETATM   35  C   UNL     1      31.830  34.174  54.429  1.00  0.00     0.012 C 
HETATM   36  C   UNL     1      33.084  34.238  56.602  1.00  0.00     0.012 C 
ENDBRANCH  13  34
BRANCH  18  37
HETATM   37  C   UNL     1      30.364  26.270  55.238  1.00  0.00     0.016 C 
HETATM   38  C   UNL     1      31.620  27.140  55.172  1.00  0.00     0.012 C 
HETATM   39  C   UNL     1      30.712  24.808  54.970  1.00  0.00     0.012 C 
ENDBRANCH  18  37
BRANCH  17  40
HETATM   40  C   UNL     1      33.936  31.738  59.509  1.00  0.00     0.016 C 
HETATM   41  C   UNL     1      34.854  31.037  60.507  1.00  0.00     0.012 C 
HETATM   42  C   UNL     1      33.581  33.141  60.000  1.00  0.00     0.012 C 
ENDBRANCH  17  40
BRANCH  15  43
HETATM   43  C   UNL     1      32.512  26.364  60.446  1.00  0.00     0.010 C 
HETATM   44  C   UNL     1      31.265  25.531  60.728  1.00  0.00     0.012 C 
HETATM   45  C   UNL     1      33.764  25.493  60.491  1.00  0.00     0.012 C 
ENDBRANCH  15  43
TORSDOF 6
ENDMDL
MODEL 10
REMARK VINA RESULT:    -4.813      5.164     10.313
REMARK INTER + INTRA:          -5.206
REMARK INTER:                  -5.975
REMARK INTRA:                   0.769
REMARK UNBOUND:                 1.296
REMARK  6 active torsions:
REMARK  status: ('A' for Active; 'I' for Inactive)
REMARK    1  A    between atoms: C_13  and  C_16 
REMARK    2  A    between atoms: C_14  and  C_17 
REMARK    3  A    between atoms: C_15  and  C_18 
REMARK    4  A    between atoms: C_19  and  C_22 
REMARK    5  A    between atoms: C_20  and  C_23 
REMARK    6  A    between atoms: C_21  and  C_24 
ROOT
HETATM    1  O   UNL     1      32.226  26.396  56.204  1.00  0.00    -0.304 OA
HETATM    2  O   UNL     1      28.711  23.131  58.147  1.00  0.00    -0.304 OA
HETATM    3  O   UNL     1      27.435  27.674  57.852  1.00  0.00    -0.304 OA
HETATM    4  O   UNL     1      30.047  25.193  55.477  1.00  0.00    -0.270 OA
HETATM    5  O   UNL     1      29.314  28.040  55.297  1.00  0.00    -0.270 OA
HETATM    6  O   UNL     1      25.704  24.099  58.872  1.00  0.00    -0.270 OA
HETATM    7  O   UNL     1      31.565  26.648  58.400  1.00  0.00    -0.263 OA
HETATM    8  O   UNL     1      27.002  22.505  56.737  1.00  0.00    -0.263 OA
HETATM    9  O   UNL     1      25.802  28.916  58.884  1.00  0.00    -0.263 OA
HETATM   10  N   UNL     1      30.574  23.094  56.291  1.00  0.00    -0.340 N 
HETATM   11  N   UNL     1      30.153  28.857  57.301  1.00  0.00    -0.340 N 
HETATM   12  N   UNL     1      27.298  25.634  59.588  1.00  0.00    -0.340 N 
HETATM   13  C   UNL     1      29.253  22.579  55.874  1.00  0.00     0.190 C 
HETATM   14  C   UNL     1      31.535  28.548  56.879  1.00  0.00     0.190 C 
HETATM   15  C   UNL     1      26.304  26.715  59.747  1.00  0.00     0.190 C 
HETATM   16  C   UNL     1      32.269  24.958  56.334  1.00  0.00     0.227 C 
HETATM   17  C   UNL     1      27.889  23.213  59.324  1.00  0.00     0.227 C 
HETATM   18  C   UNL     1      27.678  28.727  56.900  1.00  0.00     0.227 C 
HETATM   19  C   UNL     1      30.870  24.433  56.001  1.00  0.00     0.250 C 
HETATM   20  C   UNL     1      29.112  28.511  56.420  1.00  0.00     0.250 C 
HETATM   21  C   UNL     1      26.859  24.348  59.228  1.00  0.00     0.250 C 
HETATM   22  C   UNL     1      31.778  27.104  57.284  1.00  0.00     0.283 C 
HETATM   23  C   UNL     1      28.185  22.746  56.953  1.00  0.00     0.283 C 
HETATM   24  C   UNL     1      26.484  27.900  58.800  1.00  0.00     0.283 C 
HETATM   25  C   UNL     1      31.468  22.182  57.012  1.00  0.00     0.153 C 
HETATM   26  C   UNL     1      29.959  29.467  58.620  1.00  0.00     0.153 C 
HETATM   27  C   UNL     1      28.677  25.918  59.991  1.00  0.00     0.153 C 
ENDROOT
BRANCH  16  28
HETATM   28  C   UNL     1      33.288  24.455  55.322  1.00  0.00     0.016 C 
HETATM   29  C   UNL     1      33.060  25.105  53.958  1.00  0.00     0.012 C 
HETATM   30  C   UNL     1      34.711  24.721  55.810  1.00  0.00     0.012 C 
ENDBRANCH  16  28
BRANCH  14  31
HETATM   31  C   UNL     1      32.624  29.446  57.453  1.00  0.00     0.010 C 
HETATM   32  C   UNL     1      33.973  28.730  57.439  1.00  0.00     0.012 C 
HETATM   33  C   UNL     1      32.706  30.756  56.674  1.00  0.00     0.012 C 
ENDBRANCH  14  31
BRANCH  13  34
HETATM   34  C   UNL     1      29.280  21.127  55.397  1.00  0.00     0.010 C 
HETATM   35  C   UNL     1      28.789  21.025  53.953  1.00  0.00     0.012 C 
HETATM   36  C   UNL     1      28.438  20.241  56.311  1.00  0.00     0.012 C 
ENDBRANCH  13  34
BRANCH  18  37
HETATM   37  C   UNL     1      26.675  28.594  55.757  1.00  0.00     0.016 C 
HETATM   38  C   UNL     1      25.892  27.287  55.877  1.00  0.00     0.012 C 
HETATM   39  C   UNL     1      25.723  29.788  55.732  1.00  0.00     0.012 C 
ENDBRANCH  18  37
BRANCH  17  40
HETATM   40  C   UNL     1      27.253  21.866  59.668  1.00  0.00     0.016 C 
HETATM   41  C   UNL     1      26.404  21.979  60.932  1.00  0.00     0.012 C 
HETATM   42  C   UNL     1      28.327  20.792  59.836  1.00  0.00     0.012 C 
ENDBRANCH  17  40
BRANCH  15  43
HETATM   43  C   UNL     1      26.232  27.196  61.197  1.00  0.00     0.010 C 
HETATM   44  C   UNL     1      26.953  28.532  61.353  1.00  0.00     0.012 C 
HETATM   45  C   UNL     1      24.779  27.311  61.649  1.00  0.00     0.012 C 
ENDBRANCH  15  43
TORSDOF 6
ENDMDL
MODEL 11
REMARK VINA RESULT:    -4.769      2.107      6.794
REMARK INTER + INTRA:          -5.146
REMARK INTER:                  -6.525
REMARK INTRA:                   1.380
REMARK UNBOUND:                 1.296
REMARK  6 active torsions:
REMARK  status: ('A' for Active; 'I' for Inactive)
REMARK    1  A    between atoms: C_13  and  C_16 
REMARK    2  A    between atoms: C_14  and  C_17 
REMARK    3  A    between atoms: C_15  and  C_18 
REMARK    4  A    between atoms: C_19  and  C_22 
REMARK    5  A    between atoms: C_20  and  C_23 
REMARK    6  A    between atoms: C_21  and  C_24 
ROOT
HETATM    1  O   UNL     1      28.780  29.741  57.154  1.00  0.00    -0.304 OA
HETATM    2  O   UNL     1      24.306  28.478  59.429  1.00  0.00    -0.304 OA
HETATM    3  O   UNL     1      24.704  32.929  57.883  1.00  0.00    -0.304 OA
HETATM    4  O   UNL     1      26.334  29.180  56.502  1.00  0.00    -0.270 OA
HETATM    5  O   UNL     1      26.646  31.947  55.547  1.00  0.00    -0.270 OA
HETATM    6  O   UNL     1      21.812  30.545  59.548  1.00  0.00    -0.270 OA
HETATM    7  O   UNL     1      28.203  30.781  59.130  1.00  0.00    -0.263 OA
HETATM    8  O   UNL     1      22.516  28.098  58.031  1.00  0.00    -0.263 OA
HETATM    9  O   UNL     1      23.588  34.871  58.387  1.00  0.00    -0.263 OA
HETATM   10  N   UNL     1      26.077  27.326  57.862  1.00  0.00    -0.340 N 
HETATM   11  N   UNL     1      27.675  32.949  57.369  1.00  0.00    -0.340 N 
HETATM   12  N   UNL     1      23.827  31.598  60.041  1.00  0.00    -0.340 N 
HETATM   13  C   UNL     1      24.668  27.186  57.437  1.00  0.00     0.190 C 
HETATM   14  C   UNL     1      28.871  32.098  57.196  1.00  0.00     0.190 C 
HETATM   15  C   UNL     1      23.271  32.948  59.815  1.00  0.00     0.190 C 
HETATM   16  C   UNL     1      28.315  28.462  57.637  1.00  0.00     0.227 C 
HETATM   17  C   UNL     1      23.540  29.142  60.449  1.00  0.00     0.227 C 
HETATM   18  C   UNL     1      25.320  33.544  56.736  1.00  0.00     0.227 C 
HETATM   19  C   UNL     1      26.828  28.361  57.286  1.00  0.00     0.250 C 
HETATM   20  C   UNL     1      26.598  32.744  56.489  1.00  0.00     0.250 C 
HETATM   21  C   UNL     1      22.974  30.484  59.961  1.00  0.00     0.250 C 
HETATM   22  C   UNL     1      28.585  30.821  57.968  1.00  0.00     0.283 C 
HETATM   23  C   UNL     1      23.704  27.982  58.314  1.00  0.00     0.283 C 
HETATM   24  C   UNL     1      23.873  33.704  58.633  1.00  0.00     0.283 C 
HETATM   25  C   UNL     1      26.581  26.401  58.881  1.00  0.00     0.153 C 
HETATM   26  C   UNL     1      27.679  33.920  58.468  1.00  0.00     0.153 C 
HETATM   27  C   UNL     1      25.210  31.507  60.515  1.00  0.00     0.153 C 
ENDROOT
BRANCH  16  28
HETATM   28  C   UNL     1      29.114  27.397  56.902  1.00  0.00     0.016 C 
HETATM   29  C   UNL     1      29.566  27.909  55.535  1.00  0.00     0.012 C 
HETATM   30  C   UNL     1      30.320  26.956  57.732  1.00  0.00     0.012 C 
ENDBRANCH  16  28
BRANCH  14  31
HETATM   31  C   UNL     1      30.193  32.704  57.651  1.00  0.00     0.010 C 
HETATM   32  C   UNL     1      31.173  31.607  58.060  1.00  0.00     0.012 C 
HETATM   33  C   UNL     1      30.792  33.575  56.549  1.00  0.00     0.012 C 
ENDBRANCH  14  31
BRANCH  13  34
HETATM   34  C   UNL     1      24.196  25.736  57.338  1.00  0.00     0.010 C 
HETATM   35  C   UNL     1      24.093  25.106  58.726  1.00  0.00     0.012 C 
HETATM   36  C   UNL     1      25.134  24.921  56.450  1.00  0.00     0.012 C 
ENDBRANCH  13  34
BRANCH  18  37
HETATM   37  C   UNL     1      24.358  33.448  55.555  1.00  0.00     0.016 C 
HETATM   38  C   UNL     1      23.169  32.552  55.900  1.00  0.00     0.012 C 
HETATM   39  C   UNL     1      23.878  34.835  55.134  1.00  0.00     0.012 C 
ENDBRANCH  18  37
BRANCH  17  40
HETATM   40  C   UNL     1      22.467  28.228  61.039  1.00  0.00     0.016 C 
HETATM   41  C   UNL     1      21.674  28.958  62.120  1.00  0.00     0.012 C 
HETATM   42  C   UNL     1      23.095  26.954  61.601  1.00  0.00     0.012 C 
ENDBRANCH  17  40
BRANCH  15  43
HETATM   43  C   UNL     1      23.340  33.798  61.085  1.00  0.00     0.010 C 
HETATM   44  C   UNL     1      22.715  33.052  62.261  1.00  0.00     0.012 C 
HETATM   45  C   UNL     1      24.785  34.177  61.395  1.00  0.00     0.012 C 
ENDBRANCH  15  43
TORSDOF 6
ENDMDL
MODEL 12
REMARK VINA RESULT:    -4.763     10.626     15.280
REMARK INTER + INTRA:          -5.138
REMARK INTER:                  -5.928
REMARK INTRA:                   0.790
REMARK UNBOUND:                 1.296
REMARK  6 active torsions:
REMARK  status: ('A' for Active; 'I' for Inactive)
REMARK    1  A    between atoms: C_13  and  C_16 
REMARK    2  A    between atoms: C_14  and  C_17 
REMARK    3  A    between atoms: C_15  and  C_18 
REMARK    4  A    between atoms: C_19  and  C_22 
REMARK    5  A    between atoms: C_20  and  C_23 
REMARK    6  A    between atoms: C_21  and  C_24 
ROOT
HETATM    1  O   UNL     1      33.832  41.780  57.669  1.00  0.00    -0.304 OA
HETATM    2  O   UNL     1      36.976  40.555  53.745  1.00  0.00    -0.304 OA
HETATM    3  O   UNL     1      35.184  36.946  56.219  1.00  0.00    -0.304 OA
HETATM    4  O   UNL     1      33.687  40.874  55.245  1.00  0.00    -0.270 OA
HETATM    5  O   UNL     1      32.566  38.665  56.837  1.00  0.00    -0.270 OA
HETATM    6  O   UNL     1      37.478  37.477  52.861  1.00  0.00    -0.270 OA
HETATM    7  O   UNL     1      35.833  40.732  58.132  1.00  0.00    -0.263 OA
HETATM    8  O   UNL     1      35.966  39.803  51.817  1.00  0.00    -0.263 OA
HETATM    9  O   UNL     1      35.805  34.748  56.463  1.00  0.00    -0.263 OA
HETATM   10  N   UNL     1      35.152  42.375  54.272  1.00  0.00    -0.340 N 
HETATM   11  N   UNL     1      34.111  38.512  58.561  1.00  0.00    -0.340 N 
HETATM   12  N   UNL     1      37.528  37.728  55.173  1.00  0.00    -0.340 N 
HETATM   13  C   UNL     1      35.012  41.697  52.966  1.00  0.00     0.190 C 
HETATM   14  C   UNL     1      33.750  39.862  59.040  1.00  0.00     0.190 C 
HETATM   15  C   UNL     1      37.352  36.281  55.416  1.00  0.00     0.190 C 
HETATM   16  C   UNL     1      34.452  42.629  56.679  1.00  0.00     0.227 C 
HETATM   17  C   UNL     1      38.092  39.652  53.671  1.00  0.00     0.227 C 
HETATM   18  C   UNL     1      33.914  36.689  56.847  1.00  0.00     0.227 C 
HETATM   19  C   UNL     1      34.398  41.880  55.345  1.00  0.00     0.250 C 
HETATM   20  C   UNL     1      33.463  38.036  57.407  1.00  0.00     0.250 C 
HETATM   21  C   UNL     1      37.663  38.189  53.852  1.00  0.00     0.250 C 
HETATM   22  C   UNL     1      34.619  40.827  58.251  1.00  0.00     0.283 C 
HETATM   23  C   UNL     1      36.020  40.566  52.776  1.00  0.00     0.283 C 
HETATM   24  C   UNL     1      36.044  35.896  56.102  1.00  0.00     0.283 C 
HETATM   25  C   UNL     1      36.096  43.493  54.365  1.00  0.00     0.153 C 
HETATM   26  C   UNL     1      35.143  37.777  59.299  1.00  0.00     0.153 C 
HETATM   27  C   UNL     1      37.732  38.589  56.340  1.00  0.00     0.153 C 
ENDROOT
BRANCH  16  28
HETATM   28  C   UNL     1      33.626  43.905  56.613  1.00  0.00     0.016 C 
HETATM   29  C   UNL     1      32.181  43.634  57.029  1.00  0.00     0.012 C 
HETATM   30  C   UNL     1      34.240  44.993  57.494  1.00  0.00     0.012 C 
ENDBRANCH  16  28
BRANCH  14  31
HETATM   31  C   UNL     1      33.916  40.107  60.535  1.00  0.00     0.010 C 
HETATM   32  C   UNL     1      34.018  41.602  60.826  1.00  0.00     0.012 C 
HETATM   33  C   UNL     1      32.757  39.487  61.313  1.00  0.00     0.012 C 
ENDBRANCH  14  31
BRANCH  13  34
HETATM   34  C   UNL     1      35.070  42.645  51.769  1.00  0.00     0.010 C 
HETATM   35  C   UNL     1      33.710  42.721  51.075  1.00  0.00     0.012 C 
HETATM   36  C   UNL     1      36.150  42.206  50.783  1.00  0.00     0.012 C 
ENDBRANCH  13  34
BRANCH  18  37
HETATM   37  C   UNL     1      32.944  36.165  55.791  1.00  0.00     0.016 C 
HETATM   38  C   UNL     1      33.549  36.295  54.393  1.00  0.00     0.012 C 
HETATM   39  C   UNL     1      32.566  34.713  56.077  1.00  0.00     0.012 C 
ENDBRANCH  18  37
BRANCH  17  40
HETATM   40  C   UNL     1      38.918  39.872  52.403  1.00  0.00     0.016 C 
HETATM   41  C   UNL     1      40.183  39.018  52.430  1.00  0.00     0.012 C 
HETATM   42  C   UNL     1      39.270  41.349  52.241  1.00  0.00     0.012 C 
ENDBRANCH  17  40
BRANCH  15  43
HETATM   43  C   UNL     1      38.546  35.695  56.171  1.00  0.00     0.010 C 
HETATM   44  C   UNL     1      38.175  35.425  57.627  1.00  0.00     0.012 C 
HETATM   45  C   UNL     1      39.032  34.418  55.493  1.00  0.00     0.012 C 
ENDBRANCH  15  43
TORSDOF 6
ENDMDL
MODEL 13
REMARK VINA RESULT:    -4.631      5.792     10.381
REMARK INTER + INTRA:          -4.960
REMARK INTER:                  -5.827
REMARK INTRA:                   0.867
REMARK UNBOUND:                 1.296
REMARK  6 active torsions:
REMARK  status: ('A' for Active; 'I' for Inactive)
REMARK    1  A    between atoms: C_13  and  C_16 
REMARK    2  A    between atoms: C_14  and  C_17 
REMARK    3  A    between atoms: C_15  and  C_18 
REMARK    4  A    between atoms: C_19  and  C_22 
REMARK    5  A    between atoms: C_20  and  C_23 
REMARK    6  A    between atoms: C_21  and  C_24 
ROOT
HETATM    1  O   UNL     1      30.163  30.986  56.762  1.00  0.00    -0.304 OA
HETATM    2  O   UNL     1      33.946  28.653  59.414  1.00  0.00    -0.304 OA
HETATM    3  O   UNL     1      31.093  25.846  56.897  1.00  0.00    -0.304 OA
HETATM    4  O   UNL     1      32.476  29.895  56.337  1.00  0.00    -0.270 OA
HETATM    5  O   UNL     1      30.652  28.191  54.775  1.00  0.00    -0.270 OA
HETATM    6  O   UNL     1      34.498  25.470  59.152  1.00  0.00    -0.270 OA
HETATM    7  O   UNL     1      29.598  29.547  58.473  1.00  0.00    -0.263 OA
HETATM    8  O   UNL     1      35.778  27.968  58.200  1.00  0.00    -0.263 OA
HETATM    9  O   UNL     1      30.618  23.601  56.990  1.00  0.00    -0.263 OA
HETATM   10  N   UNL     1      33.609  30.899  58.085  1.00  0.00    -0.340 N 
HETATM   11  N   UNL     1      28.928  27.854  56.290  1.00  0.00    -0.340 N 
HETATM   12  N   UNL     1      32.226  25.939  59.327  1.00  0.00    -0.340 N 
HETATM   13  C   UNL     1      34.834  30.142  57.752  1.00  0.00     0.190 C 
HETATM   14  C   UNL     1      28.594  29.293  56.271  1.00  0.00     0.190 C 
HETATM   15  C   UNL     1      31.829  24.607  58.823  1.00  0.00     0.190 C 
HETATM   16  C   UNL     1      31.240  31.557  57.535  1.00  0.00     0.227 C 
HETATM   17  C   UNL     1      33.927  27.509  60.284  1.00  0.00     0.227 C 
HETATM   18  C   UNL     1      30.437  25.964  55.620  1.00  0.00     0.227 C 
HETATM   19  C   UNL     1      32.487  30.709  57.267  1.00  0.00     0.250 C 
HETATM   20  C   UNL     1      30.022  27.430  55.515  1.00  0.00     0.250 C 
HETATM   21  C   UNL     1      33.589  26.217  59.528  1.00  0.00     0.250 C 
HETATM   22  C   UNL     1      29.485  29.939  57.319  1.00  0.00     0.283 C 
HETATM   23  C   UNL     1      34.906  28.791  58.460  1.00  0.00     0.283 C 
HETATM   24  C   UNL     1      31.100  24.616  57.481  1.00  0.00     0.283 C 
HETATM   25  C   UNL     1      33.640  31.764  59.268  1.00  0.00     0.153 C 
HETATM   26  C   UNL     1      28.120  26.976  57.141  1.00  0.00     0.153 C 
HETATM   27  C   UNL     1      31.159  26.843  59.761  1.00  0.00     0.153 C 
ENDROOT
BRANCH  16  28
HETATM   28  C   UNL     1      31.439  32.979  57.031  1.00  0.00     0.016 C 
HETATM   29  C   UNL     1      31.194  33.056  55.524  1.00  0.00     0.012 C 
HETATM   30  C   UNL     1      30.518  33.949  57.771  1.00  0.00     0.012 C 
ENDBRANCH  16  28
BRANCH  14  31
HETATM   31  C   UNL     1      27.135  29.644  56.533  1.00  0.00     0.010 C 
HETATM   32  C   UNL     1      26.952  31.159  56.609  1.00  0.00     0.012 C 
HETATM   33  C   UNL     1      26.237  29.050  55.451  1.00  0.00     0.012 C 
ENDBRANCH  14  31
BRANCH  13  34
HETATM   34  C   UNL     1      36.126  30.921  57.996  1.00  0.00     0.010 C 
HETATM   35  C   UNL     1      37.126  30.675  56.868  1.00  0.00     0.012 C 
HETATM   36  C   UNL     1      36.738  30.546  59.344  1.00  0.00     0.012 C 
ENDBRANCH  13  34
BRANCH  18  37
HETATM   37  C   UNL     1      31.427  25.578  54.524  1.00  0.00     0.016 C 
HETATM   38  C   UNL     1      32.837  25.440  55.098  1.00  0.00     0.012 C 
HETATM   39  C   UNL     1      30.998  24.283  53.839  1.00  0.00     0.012 C 
ENDBRANCH  18  37
BRANCH  17  40
HETATM   40  C   UNL     1      35.214  27.396  61.101  1.00  0.00     0.016 C 
HETATM   41  C   UNL     1      35.185  26.148  61.980  1.00  0.00     0.012 C 
HETATM   42  C   UNL     1      35.423  28.647  61.951  1.00  0.00     0.012 C 
ENDBRANCH  17  40
BRANCH  15  43
HETATM   43  C   UNL     1      31.020  23.836  59.867  1.00  0.00     0.010 C 
HETATM   44  C   UNL     1      29.536  23.848  59.507  1.00  0.00     0.012 C 
HETATM   45  C   UNL     1      31.533  22.405  59.990  1.00  0.00     0.012 C 
ENDBRANCH  15  43
TORSDOF 6
ENDMDL
MODEL 14
REMARK VINA RESULT:    -4.583     11.482     15.902
REMARK INTER + INTRA:          -4.895
REMARK INTER:                  -5.699
REMARK INTRA:                   0.805
REMARK UNBOUND:                 1.296
REMARK  6 active torsions:
REMARK  status: ('A' for Active; 'I' for Inactive)
REMARK    1  A    between atoms: C_13  and  C_16 
REMARK    2  A    between atoms: C_14  and  C_17 
REMARK    3  A    between atoms: C_15  and  C_18 
REMARK    4  A    between atoms: C_19  and  C_22 
REMARK    5  A    between atoms: C_20  and  C_23 
REMARK    6  A    between atoms: C_21  and  C_24 
ROOT
HETATM    1  O   UNL     1      39.059  40.546  52.744  1.00  0.00    -0.304 OA
HETATM    2  O   UNL     1      35.028  38.044  54.810  1.00  0.00    -0.304 OA
HETATM    3  O   UNL     1      39.252  37.219  56.768  1.00  0.00    -0.304 OA
HETATM    4  O   UNL     1      37.531  40.671  54.834  1.00  0.00    -0.270 OA
HETATM    5  O   UNL     1      40.189  40.172  55.997  1.00  0.00    -0.270 OA
HETATM    6  O   UNL     1      35.337  36.218  57.471  1.00  0.00    -0.270 OA
HETATM    7  O   UNL     1      38.990  38.245  52.610  1.00  0.00    -0.263 OA
HETATM    8  O   UNL     1      34.211  38.877  56.795  1.00  0.00    -0.263 OA
HETATM    9  O   UNL     1      40.065  35.528  58.091  1.00  0.00    -0.263 OA
HETATM   10  N   UNL     1      35.508  40.401  53.746  1.00  0.00    -0.340 N 
HETATM   11  N   UNL     1      40.975  38.468  54.632  1.00  0.00    -0.340 N 
HETATM   12  N   UNL     1      37.080  35.859  55.973  1.00  0.00    -0.340 N 
HETATM   13  C   UNL     1      34.788  40.423  55.037  1.00  0.00     0.190 C 
HETATM   14  C   UNL     1      40.973  39.369  53.461  1.00  0.00     0.190 C 
HETATM   15  C   UNL     1      37.934  35.219  56.994  1.00  0.00     0.190 C 
HETATM   16  C   UNL     1      37.650  40.653  52.444  1.00  0.00     0.227 C 
HETATM   17  C   UNL     1      34.849  36.661  55.162  1.00  0.00     0.227 C 
HETATM   18  C   UNL     1      40.411  38.031  57.039  1.00  0.00     0.227 C 
HETATM   19  C   UNL     1      36.899  40.572  53.776  1.00  0.00     0.250 C 
HETATM   20  C   UNL     1      40.514  38.989  55.854  1.00  0.00     0.250 C 
HETATM   21  C   UNL     1      35.770  36.237  56.315  1.00  0.00     0.250 C 
HETATM   22  C   UNL     1      39.573  39.287  52.878  1.00  0.00     0.283 C 
HETATM   23  C   UNL     1      34.654  39.036  55.663  1.00  0.00     0.283 C 
HETATM   24  C   UNL     1      39.209  35.985  57.342  1.00  0.00     0.283 C 
HETATM   25  C   UNL     1      34.725  40.164  52.529  1.00  0.00     0.153 C 
HETATM   26  C   UNL     1      41.420  37.085  54.432  1.00  0.00     0.153 C 
HETATM   27  C   UNL     1      37.587  35.905  54.599  1.00  0.00     0.153 C 
ENDROOT
BRANCH  16  28
HETATM   28  C   UNL     1      37.440  42.010  51.789  1.00  0.00     0.016 C 
HETATM   29  C   UNL     1      38.353  43.060  52.421  1.00  0.00     0.012 C 
HETATM   30  C   UNL     1      37.683  41.927  50.283  1.00  0.00     0.012 C 
ENDBRANCH  16  28
BRANCH  14  31
HETATM   31  C   UNL     1      42.009  39.067  52.385  1.00  0.00     0.010 C 
HETATM   32  C   UNL     1      41.643  39.763  51.076  1.00  0.00     0.012 C 
HETATM   33  C   UNL     1      43.402  39.492  52.846  1.00  0.00     0.012 C 
ENDBRANCH  14  31
BRANCH  13  34
HETATM   34  C   UNL     1      33.415  41.090  54.966  1.00  0.00     0.010 C 
HETATM   35  C   UNL     1      33.366  42.320  55.872  1.00  0.00     0.012 C 
HETATM   36  C   UNL     1      32.313  40.103  55.344  1.00  0.00     0.012 C 
ENDBRANCH  13  34
BRANCH  18  37
HETATM   37  C   UNL     1      40.188  38.778  58.351  1.00  0.00     0.016 C 
HETATM   38  C   UNL     1      38.734  38.648  58.805  1.00  0.00     0.012 C 
HETATM   39  C   UNL     1      41.135  38.263  59.433  1.00  0.00     0.012 C 
ENDBRANCH  18  37
BRANCH  17  40
HETATM   40  C   UNL     1      33.381  36.327  55.426  1.00  0.00     0.016 C 
HETATM   41  C   UNL     1      33.240  34.900  55.951  1.00  0.00     0.012 C 
HETATM   42  C   UNL     1      32.550  36.518  54.159  1.00  0.00     0.012 C 
ENDBRANCH  17  40
BRANCH  15  43
HETATM   43  C   UNL     1      38.265  33.774  56.617  1.00  0.00     0.010 C 
HETATM   44  C   UNL     1      39.693  33.674  56.087  1.00  0.00     0.012 C 
HETATM   45  C   UNL     1      38.068  32.851  57.815  1.00  0.00     0.012 C 
ENDBRANCH  15  43
TORSDOF 6
ENDMDL
MODEL 15
REMARK VINA RESULT:    -4.498     10.185     15.831
REMARK INTER + INTRA:          -4.780
REMARK INTER:                  -5.504
REMARK INTRA:                   0.724
REMARK UNBOUND:                 1.296
REMARK  6 active torsions:
REMARK  status: ('A' for Active; 'I' for Inactive)
REMARK    1  A    between atoms: C_13  and  C_16 
REMARK    2  A    between atoms: C_14  and  C_17 
REMARK    3  A    between atoms: C_15  and  C_18 
REMARK    4  A    between atoms: C_19  and  C_22 
REMARK    5  A    between atoms: C_20  and  C_23 
REMARK    6  A    between atoms: C_21  and  C_24 
ROOT
HETATM    1  O   UNL     1      34.719  19.493  55.377  1.00  0.00    -0.304 OA
HETATM    2  O   UNL     1      30.114  18.626  53.180  1.00  0.00    -0.304 OA
HETATM    3  O   UNL     1      30.609  22.717  55.497  1.00  0.00    -0.304 OA
HETATM    4  O   UNL     1      33.365  20.234  53.294  1.00  0.00    -0.270 OA
HETATM    5  O   UNL     1      33.718  22.755  54.774  1.00  0.00    -0.270 OA
HETATM    6  O   UNL     1      27.783  20.878  53.162  1.00  0.00    -0.270 OA
HETATM    7  O   UNL     1      32.863  19.280  56.729  1.00  0.00    -0.263 OA
HETATM    8  O   UNL     1      29.694  19.734  51.206  1.00  0.00    -0.263 OA
HETATM    9  O   UNL     1      29.106  24.215  56.377  1.00  0.00    -0.263 OA
HETATM   10  N   UNL     1      32.642  18.136  52.642  1.00  0.00    -0.340 N 
HETATM   11  N   UNL     1      33.185  22.097  56.935  1.00  0.00    -0.340 N 
HETATM   12  N   UNL     1      28.823  20.732  55.238  1.00  0.00    -0.340 N 
HETATM   13  C   UNL     1      31.861  18.728  51.535  1.00  0.00     0.190 C 
HETATM   14  C   UNL     1      34.351  21.190  56.975  1.00  0.00     0.190 C 
HETATM   15  C   UNL     1      28.306  22.043  55.680  1.00  0.00     0.190 C 
HETATM   16  C   UNL     1      34.286  18.405  54.532  1.00  0.00     0.227 C 
HETATM   17  C   UNL     1      28.778  18.758  53.694  1.00  0.00     0.227 C 
HETATM   18  C   UNL     1      31.688  23.657  55.660  1.00  0.00     0.227 C 
HETATM   19  C   UNL     1      33.392  19.007  53.444  1.00  0.00     0.250 C 
HETATM   20  C   UNL     1      32.953  22.805  55.742  1.00  0.00     0.250 C 
HETATM   21  C   UNL     1      28.419  20.221  53.992  1.00  0.00     0.250 C 
HETATM   22  C   UNL     1      33.873  19.876  56.380  1.00  0.00     0.283 C 
HETATM   23  C   UNL     1      30.440  19.106  51.949  1.00  0.00     0.283 C 
HETATM   24  C   UNL     1      29.372  23.113  55.908  1.00  0.00     0.283 C 
HETATM   25  C   UNL     1      32.548  16.688  52.848  1.00  0.00     0.153 C 
HETATM   26  C   UNL     1      32.332  22.168  58.125  1.00  0.00     0.153 C 
HETATM   27  C   UNL     1      29.594  19.947  56.205  1.00  0.00     0.153 C 
ENDROOT
BRANCH  16  28
HETATM   28  C   UNL     1      35.539  17.795  53.922  1.00  0.00     0.016 C 
HETATM   29  C   UNL     1      36.692  18.798  53.943  1.00  0.00     0.012 C 
HETATM   30  C   UNL     1      35.932  16.515  54.659  1.00  0.00     0.012 C 
ENDBRANCH  16  28
BRANCH  14  31
HETATM   31  C   UNL     1      34.966  20.953  58.348  1.00  0.00     0.010 C 
HETATM   32  C   UNL     1      35.779  19.661  58.357  1.00  0.00     0.012 C 
HETATM   33  C   UNL     1      35.838  22.138  58.758  1.00  0.00     0.012 C 
ENDBRANCH  14  31
BRANCH  13  34
HETATM   34  C   UNL     1      31.817  17.859  50.279  1.00  0.00     0.010 C 
HETATM   35  C   UNL     1      32.484  18.574  49.105  1.00  0.00     0.012 C 
HETATM   36  C   UNL     1      30.378  17.485  49.929  1.00  0.00     0.012 C 
ENDBRANCH  13  34
BRANCH  18  37
HETATM   37  C   UNL     1      31.712  24.587  54.450  1.00  0.00     0.016 C 
HETATM   38  C   UNL     1      30.742  24.098  53.375  1.00  0.00     0.012 C 
HETATM   39  C   UNL     1      31.377  26.019  54.862  1.00  0.00     0.012 C 
ENDBRANCH  18  37
BRANCH  17  40
HETATM   40  C   UNL     1      27.752  18.070  52.794  1.00  0.00     0.016 C 
HETATM   41  C   UNL     1      26.345  18.223  53.368  1.00  0.00     0.012 C 
HETATM   42  C   UNL     1      28.100  16.594  52.613  1.00  0.00     0.012 C 
ENDBRANCH  17  40
BRANCH  15  43
HETATM   43  C   UNL     1      27.417  21.902  56.916  1.00  0.00     0.010 C 
HETATM   44  C   UNL     1      28.170  22.342  58.169  1.00  0.00     0.012 C 
HETATM   45  C   UNL     1      26.135  22.712  56.746  1.00  0.00     0.012 C 
ENDBRANCH  15  43
TORSDOF 6
ENDMDL
MODEL 16
REMARK VINA RESULT:    -4.476     12.529     18.038
REMARK INTER + INTRA:          -4.750
REMARK INTER:                  -5.453
REMARK INTRA:                   0.703
REMARK UNBOUND:                 1.296
REMARK  6 active torsions:
REMARK  status: ('A' for Active; 'I' for Inactive)
REMARK    1  A    between atoms: C_13  and  C_16 
REMARK    2  A    between atoms: C_14  and  C_17 
REMARK    3  A    between atoms: C_15  and  C_18 
REMARK    4  A    between atoms: C_19  and  C_22 
REMARK    5  A    between atoms: C_20  and  C_23 
REMARK    6  A    between atoms: C_21  and  C_24 
ROOT
HETATM    1  O   UNL     1      41.030  35.206  55.665  1.00  0.00    -0.304 OA
HETATM    2  O   UNL     1      39.370  39.345  53.038  1.00  0.00    -0.304 OA
HETATM    3  O   UNL     1      36.894  38.156  56.887  1.00  0.00    -0.304 OA
HETATM    4  O   UNL     1      41.066  37.792  55.846  1.00  0.00    -0.270 OA
HETATM    5  O   UNL     1      39.543  36.990  58.235  1.00  0.00    -0.270 OA
HETATM    6  O   UNL     1      36.928  41.182  54.119  1.00  0.00    -0.270 OA
HETATM    7  O   UNL     1      38.958  35.126  54.656  1.00  0.00    -0.263 OA
HETATM    8  O   UNL     1      39.879  41.403  53.937  1.00  0.00    -0.263 OA
HETATM    9  O   UNL     1      34.764  38.642  57.595  1.00  0.00    -0.263 OA
HETATM   10  N   UNL     1      41.674  38.240  53.660  1.00  0.00    -0.340 N 
HETATM   11  N   UNL     1      38.082  35.423  57.344  1.00  0.00    -0.340 N 
HETATM   12  N   UNL     1      36.466  38.914  54.349  1.00  0.00    -0.340 N 
HETATM   13  C   UNL     1      41.580  39.693  53.911  1.00  0.00     0.190 C 
HETATM   14  C   UNL     1      39.208  34.529  57.002  1.00  0.00     0.190 C 
HETATM   15  C   UNL     1      35.371  39.152  55.312  1.00  0.00     0.190 C 
HETATM   16  C   UNL     1      41.612  35.874  54.524  1.00  0.00     0.227 C 
HETATM   17  C   UNL     1      38.057  39.717  52.587  1.00  0.00     0.227 C 
HETATM   18  C   UNL     1      37.240  37.633  58.183  1.00  0.00     0.227 C 
HETATM   19  C   UNL     1      41.422  37.378  54.737  1.00  0.00     0.250 C 
HETATM   20  C   UNL     1      38.391  36.663  57.931  1.00  0.00     0.250 C 
HETATM   21  C   UNL     1      37.109  40.016  53.758  1.00  0.00     0.250 C 
HETATM   22  C   UNL     1      39.685  34.971  55.629  1.00  0.00     0.283 C 
HETATM   23  C   UNL     1      40.181  40.249  53.651  1.00  0.00     0.283 C 
HETATM   24  C   UNL     1      35.623  38.614  56.719  1.00  0.00     0.283 C 
HETATM   25  C   UNL     1      41.988  37.799  52.297  1.00  0.00     0.153 C 
HETATM   26  C   UNL     1      36.726  34.973  57.015  1.00  0.00     0.153 C 
HETATM   27  C   UNL     1      36.705  37.533  53.923  1.00  0.00     0.153 C 
ENDROOT
BRANCH  16  28
HETATM   28  C   UNL     1      43.090  35.515  54.510  1.00  0.00     0.016 C 
HETATM   29  C   UNL     1      43.524  34.963  55.868  1.00  0.00     0.012 C 
HETATM   30  C   UNL     1      43.392  34.506  53.402  1.00  0.00     0.012 C 
ENDBRANCH  16  28
BRANCH  14  31
HETATM   31  C   UNL     1      38.898  33.037  56.996  1.00  0.00     0.010 C 
HETATM   32  C   UNL     1      39.893  32.286  56.114  1.00  0.00     0.012 C 
HETATM   33  C   UNL     1      38.914  32.480  58.417  1.00  0.00     0.012 C 
ENDBRANCH  14  31
BRANCH  13  34
HETATM   34  C   UNL     1      42.613  40.519  53.144  1.00  0.00     0.010 C 
HETATM   35  C   UNL     1      43.419  41.397  54.101  1.00  0.00     0.012 C 
HETATM   36  C   UNL     1      41.936  41.375  52.075  1.00  0.00     0.012 C 
ENDBRANCH  13  34
BRANCH  18  37
HETATM   37  C   UNL     1      37.666  38.793  59.079  1.00  0.00     0.016 C 
HETATM   38  C   UNL     1      37.860  40.067  58.256  1.00  0.00     0.012 C 
HETATM   39  C   UNL     1      36.641  39.024  60.188  1.00  0.00     0.012 C 
ENDBRANCH  18  37
BRANCH  17  40
HETATM   40  C   UNL     1      38.108  40.853  51.565  1.00  0.00     0.016 C 
HETATM   41  C   UNL     1      36.712  41.151  51.022  1.00  0.00     0.012 C 
HETATM   42  C   UNL     1      39.066  40.509  50.427  1.00  0.00     0.012 C 
ENDBRANCH  17  40
BRANCH  15  43
HETATM   43  C   UNL     1      34.035  38.637  54.774  1.00  0.00     0.010 C 
HETATM   44  C   UNL     1      33.694  37.286  55.395  1.00  0.00     0.012 C 
HETATM   45  C   UNL     1      32.926  39.650  55.042  1.00  0.00     0.012 C 
ENDBRANCH  15  43
TORSDOF 6
ENDMDL
MODEL 17
REMARK VINA RESULT:    -4.455      4.325      8.491
REMARK INTER + INTRA:          -4.722
REMARK INTER:                  -5.684
REMARK INTRA:                   0.962
REMARK UNBOUND:                 1.296
REMARK  6 active torsions:
REMARK  status: ('A' for Active; 'I' for Inactive)
REMARK    1  A    between atoms: C_13  and  C_16 
REMARK    2  A    between atoms: C_14  and  C_17 
REMARK    3  A    between atoms: C_15  and  C_18 
REMARK    4  A    between atoms: C_19  and  C_22 
REMARK    5  A    between atoms: C_20  and  C_23 
REMARK    6  A    between atoms: C_21  and  C_24 
ROOT
HETATM    1  O   UNL     1      30.817  28.260  56.272  1.00  0.00    -0.304 OA
HETATM    2  O   UNL     1      25.943  28.623  57.974  1.00  0.00    -0.304 OA
HETATM    3  O   UNL     1      28.162  24.527  58.786  1.00  0.00    -0.304 OA
HETATM    4  O   UNL     1      29.534  28.608  58.497  1.00  0.00    -0.270 OA
HETATM    5  O   UNL     1      30.953  26.069  58.952  1.00  0.00    -0.270 OA
HETATM    6  O   UNL     1      24.574  26.272  59.737  1.00  0.00    -0.270 OA
HETATM    7  O   UNL     1      29.212  26.880  55.355  1.00  0.00    -0.263 OA
HETATM    8  O   UNL     1      25.668  28.983  60.231  1.00  0.00    -0.263 OA
HETATM    9  O   UNL     1      27.419  22.411  59.280  1.00  0.00    -0.263 OA
HETATM   10  N   UNL     1      28.036  30.198  57.736  1.00  0.00    -0.340 N 
HETATM   11  N   UNL     1      30.529  24.944  56.967  1.00  0.00    -0.340 N 
HETATM   12  N   UNL     1      25.775  25.412  57.940  1.00  0.00    -0.340 N 
HETATM   13  C   UNL     1      27.367  30.226  59.054  1.00  0.00     0.190 C 
HETATM   14  C   UNL     1      31.295  25.950  56.202  1.00  0.00     0.190 C 
HETATM   15  C   UNL     1      25.819  24.052  58.515  1.00  0.00     0.190 C 
HETATM   16  C   UNL     1      29.915  29.388  56.267  1.00  0.00     0.227 C 
HETATM   17  C   UNL     1      24.824  27.729  57.844  1.00  0.00     0.227 C 
HETATM   18  C   UNL     1      29.514  24.166  59.127  1.00  0.00     0.227 C 
HETATM   19  C   UNL     1      29.148  29.358  57.592  1.00  0.00     0.250 C 
HETATM   20  C   UNL     1      30.397  25.143  58.353  1.00  0.00     0.250 C 
HETATM   21  C   UNL     1      25.047  26.414  58.606  1.00  0.00     0.250 C 
HETATM   22  C   UNL     1      30.308  27.056  55.870  1.00  0.00     0.283 C 
HETATM   23  C   UNL     1      26.242  29.199  59.169  1.00  0.00     0.283 C 
HETATM   24  C   UNL     1      27.213  23.556  58.891  1.00  0.00     0.283 C 
HETATM   25  C   UNL     1      27.469  31.019  56.663  1.00  0.00     0.153 C 
HETATM   26  C   UNL     1      29.930  23.831  56.225  1.00  0.00     0.153 C 
HETATM   27  C   UNL     1      26.347  25.601  56.605  1.00  0.00     0.153 C 
ENDROOT
BRANCH  16  28
HETATM   28  C   UNL     1      30.777  30.639  56.173  1.00  0.00     0.016 C 
HETATM   29  C   UNL     1      32.214  30.338  56.598  1.00  0.00     0.012 C 
HETATM   30  C   UNL     1      30.747  31.211  54.756  1.00  0.00     0.012 C 
ENDBRANCH  16  28
BRANCH  14  31
HETATM   31  C   UNL     1      31.972  25.450  54.933  1.00  0.00     0.010 C 
HETATM   32  C   UNL     1      31.649  26.366  53.755  1.00  0.00     0.012 C 
HETATM   33  C   UNL     1      33.482  25.349  55.133  1.00  0.00     0.012 C 
ENDBRANCH  14  31
BRANCH  13  34
HETATM   34  C   UNL     1      26.845  31.607  59.451  1.00  0.00     0.010 C 
HETATM   35  C   UNL     1      27.320  31.980  60.855  1.00  0.00     0.012 C 
HETATM   36  C   UNL     1      25.321  31.654  59.372  1.00  0.00     0.012 C 
ENDBRANCH  13  34
BRANCH  18  37
HETATM   37  C   UNL     1      29.695  24.316  60.635  1.00  0.00     0.016 C 
HETATM   38  C   UNL     1      28.502  25.049  61.250  1.00  0.00     0.012 C 
HETATM   39  C   UNL     1      29.883  22.952  61.295  1.00  0.00     0.012 C 
ENDBRANCH  18  37
BRANCH  17  40
HETATM   40  C   UNL     1      23.507  28.410  58.216  1.00  0.00     0.016 C 
HETATM   41  C   UNL     1      22.346  27.421  58.127  1.00  0.00     0.012 C 
HETATM   42  C   UNL     1      23.253  29.617  57.315  1.00  0.00     0.012 C 
ENDBRANCH  17  40
BRANCH  15  43
HETATM   43  C   UNL     1      25.117  23.041  57.607  1.00  0.00     0.010 C 
HETATM   44  C   UNL     1      26.120  22.395  56.654  1.00  0.00     0.012 C 
HETATM   45  C   UNL     1      24.404  21.980  58.440  1.00  0.00     0.012 C 
ENDBRANCH  15  43
TORSDOF 6
ENDMDL
MODEL 18
REMARK VINA RESULT:    -4.311      4.029      8.522
REMARK INTER + INTRA:          -4.527
REMARK INTER:                  -5.806
REMARK INTRA:                   1.279
REMARK UNBOUND:                 1.296
REMARK  6 active torsions:
REMARK  status: ('A' for Active; 'I' for Inactive)
REMARK    1  A    between atoms: C_13  and  C_16 
REMARK    2  A    between atoms: C_14  and  C_17 
REMARK    3  A    between atoms: C_15  and  C_18 
REMARK    4  A    between atoms: C_19  and  C_22 
REMARK    5  A    between atoms: C_20  and  C_23 
REMARK    6  A    between atoms: C_21  and  C_24 
ROOT
HETATM    1  O   UNL     1      25.701  29.954  57.236  1.00  0.00    -0.304 OA
HETATM    2  O   UNL     1      30.729  29.939  58.462  1.00  0.00    -0.304 OA
HETATM    3  O   UNL     1      28.511  25.766  58.598  1.00  0.00    -0.304 OA
HETATM    4  O   UNL     1      27.978  29.302  56.183  1.00  0.00    -0.270 OA
HETATM    5  O   UNL     1      26.541  26.733  56.279  1.00  0.00    -0.270 OA
HETATM    6  O   UNL     1      32.336  27.183  59.031  1.00  0.00    -0.270 OA
HETATM    7  O   UNL     1      26.322  29.372  59.379  1.00  0.00    -0.263 OA
HETATM    8  O   UNL     1      32.177  29.177  56.843  1.00  0.00    -0.263 OA
HETATM    9  O   UNL     1      28.989  23.767  59.624  1.00  0.00    -0.263 OA
HETATM   10  N   UNL     1      29.146  31.205  56.785  1.00  0.00    -0.340 N 
HETATM   11  N   UNL     1      25.675  26.772  58.431  1.00  0.00    -0.340 N 
HETATM   12  N   UNL     1      30.250  27.192  60.061  1.00  0.00    -0.340 N 
HETATM   13  C   UNL     1      30.385  30.654  56.195  1.00  0.00     0.190 C 
HETATM   14  C   UNL     1      24.830  27.938  58.098  1.00  0.00     0.190 C 
HETATM   15  C   UNL     1      30.251  25.727  60.259  1.00  0.00     0.190 C 
HETATM   16  C   UNL     1      26.667  31.027  57.197  1.00  0.00     0.227 C 
HETATM   17  C   UNL     1      31.434  29.344  59.564  1.00  0.00     0.227 C 
HETATM   18  C   UNL     1      27.482  25.147  57.803  1.00  0.00     0.227 C 
HETATM   19  C   UNL     1      27.980  30.433  56.682  1.00  0.00     0.250 C 
HETATM   20  C   UNL     1      26.529  26.281  57.428  1.00  0.00     0.250 C 
HETATM   21  C   UNL     1      31.388  27.809  59.514  1.00  0.00     0.250 C 
HETATM   22  C   UNL     1      25.697  29.161  58.348  1.00  0.00     0.283 C 
HETATM   23  C   UNL     1      31.195  29.824  57.189  1.00  0.00     0.283 C 
HETATM   24  C   UNL     1      29.179  24.970  59.479  1.00  0.00     0.283 C 
HETATM   25  C   UNL     1      29.229  32.499  57.467  1.00  0.00     0.153 C 
HETATM   26  C   UNL     1      25.590  26.231  59.791  1.00  0.00     0.153 C 
HETATM   27  C   UNL     1      29.125  27.948  60.613  1.00  0.00     0.153 C 
ENDROOT
BRANCH  16  28
HETATM   28  C   UNL     1      26.130  32.068  56.226  1.00  0.00     0.016 C 
HETATM   29  C   UNL     1      24.900  31.537  55.491  1.00  0.00     0.012 C 
HETATM   30  C   UNL     1      25.796  33.368  56.956  1.00  0.00     0.012 C 
ENDBRANCH  16  28
BRANCH  14  31
HETATM   31  C   UNL     1      23.521  28.055  58.868  1.00  0.00     0.010 C 
HETATM   32  C   UNL     1      22.982  29.483  58.796  1.00  0.00     0.012 C 
HETATM   33  C   UNL     1      22.490  27.066  58.328  1.00  0.00     0.012 C 
ENDBRANCH  14  31
BRANCH  13  34
HETATM   34  C   UNL     1      31.284  31.711  55.553  1.00  0.00     0.010 C 
HETATM   35  C   UNL     1      32.011  32.523  56.624  1.00  0.00     0.012 C 
HETATM   36  C   UNL     1      30.472  32.631  54.644  1.00  0.00     0.012 C 
ENDBRANCH  13  34
BRANCH  18  37
HETATM   37  C   UNL     1      28.127  24.522  56.569  1.00  0.00     0.016 C 
HETATM   38  C   UNL     1      29.579  24.979  56.430  1.00  0.00     0.012 C 
HETATM   39  C   UNL     1      28.049  22.998  56.632  1.00  0.00     0.012 C 
ENDBRANCH  18  37
BRANCH  17  40
HETATM   40  C   UNL     1      32.857  29.888  59.688  1.00  0.00     0.016 C 
HETATM   41  C   UNL     1      33.591  29.215  60.846  1.00  0.00     0.012 C 
HETATM   42  C   UNL     1      32.839  31.404  59.872  1.00  0.00     0.012 C 
ENDBRANCH  17  40
BRANCH  15  43
HETATM   43  C   UNL     1      30.187  25.367  61.744  1.00  0.00     0.010 C 
HETATM   44  C   UNL     1      28.781  24.910  62.122  1.00  0.00     0.012 C 
HETATM   45  C   UNL     1      31.212  24.287  62.076  1.00  0.00     0.012 C 
ENDBRANCH  15  43
TORSDOF 6
ENDMDL
MODEL 19
REMARK VINA RESULT:    -4.283     10.839     14.808
REMARK INTER + INTRA:          -4.490
REMARK INTER:                  -5.514
REMARK INTRA:                   1.024
REMARK UNBOUND:                 1.296
REMARK  6 active torsions:
REMARK  status: ('A' for Active; 'I' for Inactive)
REMARK    1  A    between atoms: C_13  and  C_16 
REMARK    2  A    between atoms: C_14  and  C_17 
REMARK    3  A    between atoms: C_15  and  C_18 
REMARK    4  A    between atoms: C_19  and  C_22 
REMARK    5  A    between atoms: C_20  and  C_23 
REMARK    6  A    between atoms: C_21  and  C_24 
ROOT
HETATM    1  O   UNL     1      39.656  35.623  55.103  1.00  0.00    -0.304 OA
HETATM    2  O   UNL     1      37.363  33.922  59.419  1.00  0.00    -0.304 OA
HETATM    3  O   UNL     1      34.789  36.747  56.635  1.00  0.00    -0.304 OA
HETATM    4  O   UNL     1      37.897  33.864  55.830  1.00  0.00    -0.270 OA
HETATM    5  O   UNL     1      36.348  35.650  54.074  1.00  0.00    -0.270 OA
HETATM    6  O   UNL     1      34.243  34.539  60.048  1.00  0.00    -0.270 OA
HETATM    7  O   UNL     1      39.060  37.152  56.723  1.00  0.00    -0.263 OA
HETATM    8  O   UNL     1      35.848  32.206  59.168  1.00  0.00    -0.263 OA
HETATM    9  O   UNL     1      32.916  38.025  56.998  1.00  0.00    -0.263 OA
HETATM   10  N   UNL     1      39.060  33.001  57.633  1.00  0.00    -0.340 N 
HETATM   11  N   UNL     1      37.005  37.736  54.847  1.00  0.00    -0.340 N 
HETATM   12  N   UNL     1      35.347  36.420  59.239  1.00  0.00    -0.340 N 
HETATM   13  C   UNL     1      37.931  32.103  57.957  1.00  0.00     0.190 C 
HETATM   14  C   UNL     1      38.394  37.492  54.407  1.00  0.00     0.190 C 
HETATM   15  C   UNL     1      34.087  37.117  58.907  1.00  0.00     0.190 C 
HETATM   16  C   UNL     1      40.128  34.686  56.095  1.00  0.00     0.227 C 
HETATM   17  C   UNL     1      36.613  34.615  60.431  1.00  0.00     0.227 C 
HETATM   18  C   UNL     1      34.663  36.911  55.210  1.00  0.00     0.227 C 
HETATM   19  C   UNL     1      38.932  33.823  56.505  1.00  0.00     0.250 C 
HETATM   20  C   UNL     1      36.071  36.703  54.656  1.00  0.00     0.250 C 
HETATM   21  C   UNL     1      35.290  35.173  59.885  1.00  0.00     0.250 C 
HETATM   22  C   UNL     1      39.073  36.771  55.560  1.00  0.00     0.283 C 
HETATM   23  C   UNL     1      36.916  32.746  58.900  1.00  0.00     0.283 C 
HETATM   24  C   UNL     1      33.861  37.366  57.417  1.00  0.00     0.283 C 
HETATM   25  C   UNL     1      40.217  32.997  58.532  1.00  0.00     0.153 C 
HETATM   26  C   UNL     1      36.706  39.022  55.485  1.00  0.00     0.153 C 
HETATM   27  C   UNL     1      36.599  37.153  59.036  1.00  0.00     0.153 C 
ENDROOT
BRANCH  16  28
HETATM   28  C   UNL     1      41.199  33.837  55.425  1.00  0.00     0.016 C 
HETATM   29  C   UNL     1      40.574  32.620  54.744  1.00  0.00     0.012 C 
HETATM   30  C   UNL     1      41.991  34.666  54.414  1.00  0.00     0.012 C 
ENDBRANCH  16  28
BRANCH  14  31
HETATM   31  C   UNL     1      39.197  38.725  54.012  1.00  0.00     0.010 C 
HETATM   32  C   UNL     1      40.691  38.410  53.991  1.00  0.00     0.012 C 
HETATM   33  C   UNL     1      38.741  39.250  52.652  1.00  0.00     0.012 C 
ENDBRANCH  14  31
BRANCH  13  34
HETATM   34  C   UNL     1      38.362  30.746  58.512  1.00  0.00     0.010 C 
HETATM   35  C   UNL     1      37.684  29.610  57.746  1.00  0.00     0.012 C 
HETATM   36  C   UNL     1      38.048  30.647  60.003  1.00  0.00     0.012 C 
ENDBRANCH  13  34
BRANCH  18  37
HETATM   37  C   UNL     1      33.688  35.862  54.682  1.00  0.00     0.016 C 
HETATM   38  C   UNL     1      33.226  34.940  55.810  1.00  0.00     0.012 C 
HETATM   39  C   UNL     1      32.490  36.527  54.009  1.00  0.00     0.012 C 
ENDBRANCH  18  37
BRANCH  17  40
HETATM   40  C   UNL     1      36.421  33.759  61.682  1.00  0.00     0.016 C 
HETATM   41  C   UNL     1      35.576  34.501  62.717  1.00  0.00     0.012 C 
HETATM   42  C   UNL     1      37.772  33.364  62.276  1.00  0.00     0.012 C 
ENDBRANCH  17  40
BRANCH  15  43
HETATM   43  C   UNL     1      33.948  38.420  59.695  1.00  0.00     0.010 C 
HETATM   44  C   UNL     1      34.242  39.620  58.798  1.00  0.00     0.012 C 
HETATM   45  C   UNL     1      32.552  38.530  60.301  1.00  0.00     0.012 C 
ENDBRANCH  15  43
TORSDOF 6
ENDMDL
MODEL 20
REMARK VINA RESULT:    -4.282     18.724     22.673
REMARK INTER + INTRA:          -4.489
REMARK INTER:                  -5.214
REMARK INTRA:                   0.725
REMARK UNBOUND:                 1.296
REMARK  6 active torsions:
REMARK  status: ('A' for Active; 'I' for Inactive)
REMARK    1  A    between atoms: C_13  and  C_16 
REMARK    2  A    between atoms: C_14  and  C_17 
REMARK    3  A    between atoms: C_15  and  C_18 
REMARK    4  A    between atoms: C_19  and  C_22 
REMARK    5  A    between atoms: C_20  and  C_23 
REMARK    6  A    between atoms: C_21  and  C_24 
ROOT
HETATM    1  O   UNL     1      41.880  22.546  54.405  1.00  0.00    -0.304 OA
HETATM    2  O   UNL     1      44.562  25.408  51.030  1.00  0.00    -0.304 OA
HETATM    3  O   UNL     1      44.773  26.740  55.562  1.00  0.00    -0.304 OA
HETATM    4  O   UNL     1      44.331  22.900  53.643  1.00  0.00    -0.270 OA
HETATM    5  O   UNL     1      44.406  23.702  56.475  1.00  0.00    -0.270 OA
HETATM    6  O   UNL     1      46.497  27.821  52.001  1.00  0.00    -0.270 OA
HETATM    7  O   UNL     1      41.273  24.747  54.084  1.00  0.00    -0.263 OA
HETATM    8  O   UNL     1      46.837  25.061  50.971  1.00  0.00    -0.263 OA
HETATM    9  O   UNL     1      45.344  28.710  56.594  1.00  0.00    -0.263 OA
HETATM   10  N   UNL     1      43.946  22.873  51.362  1.00  0.00    -0.340 N 
HETATM   11  N   UNL     1      42.518  25.043  56.621  1.00  0.00    -0.340 N 
HETATM   12  N   UNL     1      44.465  27.838  53.134  1.00  0.00    -0.340 N 
HETATM   13  C   UNL     1      45.373  23.149  51.098  1.00  0.00     0.190 C 
HETATM   14  C   UNL     1      41.642  23.889  56.331  1.00  0.00     0.190 C 
HETATM   15  C   UNL     1      44.978  28.716  54.206  1.00  0.00     0.190 C 
HETATM   16  C   UNL     1      42.096  22.350  52.991  1.00  0.00     0.227 C 
HETATM   17  C   UNL     1      44.639  26.832  50.845  1.00  0.00     0.227 C 
HETATM   18  C   UNL     1      44.816  26.034  56.817  1.00  0.00     0.227 C 
HETATM   19  C   UNL     1      43.549  22.735  52.700  1.00  0.00     0.250 C 
HETATM   20  C   UNL     1      43.907  24.822  56.626  1.00  0.00     0.250 C 
HETATM   21  C   UNL     1      45.298  27.533  52.042  1.00  0.00     0.250 C 
HETATM   22  C   UNL     1      41.555  23.808  54.816  1.00  0.00     0.283 C 
HETATM   23  C   UNL     1      45.687  24.643  51.042  1.00  0.00     0.283 C 
HETATM   24  C   UNL     1      45.042  28.074  55.590  1.00  0.00     0.283 C 
HETATM   25  C   UNL     1      43.038  22.800  50.214  1.00  0.00     0.153 C 
HETATM   26  C   UNL     1      41.882  26.345  56.849  1.00  0.00     0.153 C 
HETATM   27  C   UNL     1      43.048  27.473  53.177  1.00  0.00     0.153 C 
ENDROOT
BRANCH  16  28
HETATM   28  C   UNL     1      41.864  20.873  52.711  1.00  0.00     0.016 C 
HETATM   29  C   UNL     1      42.135  20.037  53.961  1.00  0.00     0.012 C 
HETATM   30  C   UNL     1      40.441  20.634  52.207  1.00  0.00     0.012 C 
ENDBRANCH  16  28
BRANCH  14  31
HETATM   31  C   UNL     1      40.246  23.941  56.936  1.00  0.00     0.010 C 
HETATM   32  C   UNL     1      39.351  22.870  56.315  1.00  0.00     0.012 C 
HETATM   33  C   UNL     1      40.311  23.771  58.452  1.00  0.00     0.012 C 
ENDBRANCH  14  31
BRANCH  13  34
HETATM   34  C   UNL     1      45.911  22.463  49.842  1.00  0.00     0.010 C 
HETATM   35  C   UNL     1      47.141  21.619  50.174  1.00  0.00     0.012 C 
HETATM   36  C   UNL     1      46.244  23.492  48.764  1.00  0.00     0.012 C 
ENDBRANCH  13  34
BRANCH  18  37
HETATM   37  C   UNL     1      46.258  25.618  57.095  1.00  0.00     0.016 C 
HETATM   38  C   UNL     1      47.129  25.833  55.857  1.00  0.00     0.012 C 
HETATM   39  C   UNL     1      46.822  26.389  58.287  1.00  0.00     0.012 C 
ENDBRANCH  18  37
BRANCH  17  40
HETATM   40  C   UNL     1      45.295  27.197  49.513  1.00  0.00     0.016 C 
HETATM   41  C   UNL     1      45.353  28.713  49.340  1.00  0.00     0.012 C 
HETATM   42  C   UNL     1      44.545  26.552  48.350  1.00  0.00     0.012 C 
ENDBRANCH  17  40
BRANCH  15  43
HETATM   43  C   UNL     1      44.203  30.034  54.262  1.00  0.00     0.010 C 
HETATM   44  C   UNL     1      43.259  30.047  55.461  1.00  0.00     0.012 C 
HETATM   45  C   UNL     1      45.166  31.216  54.321  1.00  0.00     0.012 C 
ENDBRANCH  15  43
TORSDOF 6
ENDMDL
