MODEL 1
REMARK VINA RESULT:    -6.098      0.000      0.000
REMARK INTER + INTRA:          -7.367
REMARK INTER:                  -8.237
REMARK INTRA:                   0.870
REMARK UNBOUND:                 0.870
REMARK  6 active torsions:
REMARK  status: ('A' for Active; 'I' for Inactive)
REMARK    1  A    between atoms: C_13  and  C_16 
REMARK    2  A    between atoms: C_14  and  C_17 
REMARK    3  A    between atoms: C_15  and  C_18 
REMARK    4  A    between atoms: C_19  and  C_22 
REMARK    5  A    between atoms: C_20  and  C_23 
REMARK    6  A    between atoms: C_21  and  C_24 
ROOT
HETATM    1  O   UNL     1      18.581  34.639   0.836  1.00  0.00    -0.304 OA
HETATM    2  O   UNL     1      20.069  39.596   0.892  1.00  0.00    -0.304 OA
HETATM    3  O   UNL     1      15.413  38.792   0.725  1.00  0.00    -0.304 OA
HETATM    4  O   UNL     1      18.708  36.634   2.487  1.00  0.00    -0.270 OA
HETATM    5  O   UNL     1      15.819  36.077   2.354  1.00  0.00    -0.270 OA
HETATM    6  O   UNL     1      17.923  42.018   1.074  1.00  0.00    -0.270 OA
HETATM    7  O   UNL     1      18.132  35.957  -1.002  1.00  0.00    -0.263 OA
HETATM    8  O   UNL     1      19.859  40.708   2.897  1.00  0.00    -0.263 OA
HETATM    9  O   UNL     1      13.619  40.082   0.098  1.00  0.00    -0.263 OA
HETATM   10  N   UNL     1      20.852  37.324   1.963  1.00  0.00    -0.340 N 
HETATM   11  N   UNL     1      15.500  35.852   0.067  1.00  0.00    -0.340 N 
HETATM   12  N   UNL     1      17.245  40.377  -0.429  1.00  0.00    -0.340 N 
HETATM   13  C   UNL     1      20.736  38.461   2.901  1.00  0.00     0.190 C 
HETATM   14  C   UNL     1      16.361  34.651   0.038  1.00  0.00     0.190 C 
HETATM   15  C   UNL     1      15.845  40.852  -0.442  1.00  0.00     0.190 C 
HETATM   16  C   UNL     1      19.901  35.209   0.980  1.00  0.00     0.227 C 
HETATM   17  C   UNL     1      19.675  40.713   0.078  1.00  0.00     0.227 C 
HETATM   18  C   UNL     1      14.540  37.809   1.312  1.00  0.00     0.227 C 
HETATM   19  C   UNL     1      19.763  36.447   1.869  1.00  0.00     0.250 C 
HETATM   20  C   UNL     1      15.339  36.507   1.301  1.00  0.00     0.250 C 
HETATM   21  C   UNL     1      18.206  41.097   0.301  1.00  0.00     0.250 C 
HETATM   22  C   UNL     1      17.780  35.164  -0.138  1.00  0.00     0.283 C 
HETATM   23  C   UNL     1      20.157  39.713   2.245  1.00  0.00     0.283 C 
HETATM   24  C   UNL     1      14.827  39.873   0.138  1.00  0.00     0.283 C 
HETATM   25  C   UNL     1      22.080  37.214   1.169  1.00  0.00     0.153 C 
HETATM   26  C   UNL     1      14.904  36.297  -1.196  1.00  0.00     0.153 C 
HETATM   27  C   UNL     1      17.593  39.275  -1.329  1.00  0.00     0.153 C 
ENDROOT
BRANCH  16  28
HETATM   28  C   UNL     1      20.764  34.154   1.656  1.00  0.00     0.016 C 
HETATM   29  C   UNL     1      19.901  33.016   2.197  1.00  0.00     0.012 C 
HETATM   30  C   UNL     1      21.815  33.614   0.687  1.00  0.00     0.012 C 
ENDBRANCH  16  28
BRANCH  14  31
HETATM   31  C   UNL     1      16.036  33.622  -1.037  1.00  0.00     0.010 C 
HETATM   32  C   UNL     1      17.270  32.787  -1.372  1.00  0.00     0.012 C 
HETATM   33  C   UNL     1      14.886  32.723  -0.591  1.00  0.00     0.012 C 
ENDBRANCH  14  31
BRANCH  13  34
HETATM   34  C   UNL     1      22.044  38.810   3.610  1.00  0.00     0.010 C 
HETATM   35  C   UNL     1      22.025  38.309   5.054  1.00  0.00     0.012 C 
HETATM   36  C   UNL     1      22.296  40.316   3.571  1.00  0.00     0.012 C 
ENDBRANCH  13  34
BRANCH  18  37
HETATM   37  C   UNL     1      14.196  38.247   2.733  1.00  0.00     0.016 C 
HETATM   38  C   UNL     1      15.139  39.357   3.198  1.00  0.00     0.012 C 
HETATM   39  C   UNL     1      12.743  38.708   2.819  1.00  0.00     0.012 C 
ENDBRANCH  18  37
BRANCH  17  40
HETATM   40  C   UNL     1      20.627  41.899   0.241  1.00  0.00     0.016 C 
HETATM   41  C   UNL     1      20.282  43.006  -0.753  1.00  0.00     0.012 C 
HETATM   42  C   UNL     1      22.077  41.452   0.066  1.00  0.00     0.012 C 
ENDBRANCH  17  40
BRANCH  15  43
HETATM   43  C   UNL     1      15.422  41.298  -1.842  1.00  0.00     0.010 C 
HETATM   44  C   UNL     1      14.564  40.225  -2.507  1.00  0.00     0.012 C 
HETATM   45  C   UNL     1      14.670  42.624  -1.775  1.00  0.00     0.012 C 
ENDBRANCH  15  43
TORSDOF 6
ENDMDL
MODEL 2
REMARK VINA RESULT:    -6.068      1.856      8.010
REMARK INTER + INTRA:          -7.327
REMARK INTER:                  -8.113
REMARK INTRA:                   0.787
REMARK UNBOUND:                 0.870
REMARK  6 active torsions:
REMARK  status: ('A' for Active; 'I' for Inactive)
REMARK    1  A    between atoms: C_13  and  C_16 
REMARK    2  A    between atoms: C_14  and  C_17 
REMARK    3  A    between atoms: C_15  and  C_18 
REMARK    4  A    between atoms: C_19  and  C_22 
REMARK    5  A    between atoms: C_20  and  C_23 
REMARK    6  A    between atoms: C_21  and  C_24 
ROOT
HETATM    1  O   UNL     1      19.317  40.951  -0.836  1.00  0.00    -0.304 OA
HETATM    2  O   UNL     1      16.649  36.730   0.524  1.00  0.00    -0.304 OA
HETATM    3  O   UNL     1      21.068  37.054   2.173  1.00  0.00    -0.304 OA
HETATM    4  O   UNL     1      18.060  39.999   1.222  1.00  0.00    -0.270 OA
HETATM    5  O   UNL     1      20.828  40.238   2.199  1.00  0.00    -0.270 OA
HETATM    6  O   UNL     1      17.844  34.556   2.610  1.00  0.00    -0.270 OA
HETATM    7  O   UNL     1      20.046  38.889  -1.569  1.00  0.00    -0.263 OA
HETATM    8  O   UNL     1      15.796  36.699   2.662  1.00  0.00    -0.263 OA
HETATM    9  O   UNL     1      22.551  35.510   3.002  1.00  0.00    -0.263 OA
HETATM   10  N   UNL     1      16.162  39.282   0.112  1.00  0.00    -0.340 N 
HETATM   11  N   UNL     1      22.019  39.323   0.431  1.00  0.00    -0.340 N 
HETATM   12  N   UNL     1      19.442  35.233   1.061  1.00  0.00    -0.340 N 
HETATM   13  C   UNL     1      15.614  38.726   1.368  1.00  0.00     0.190 C 
HETATM   14  C   UNL     1      21.584  40.416  -0.463  1.00  0.00     0.190 C 
HETATM   15  C   UNL     1      20.565  34.720   1.874  1.00  0.00     0.190 C 
HETATM   16  C   UNL     1      17.938  40.605  -1.089  1.00  0.00     0.227 C 
HETATM   17  C   UNL     1      17.002  35.336   0.501  1.00  0.00     0.227 C 
HETATM   18  C   UNL     1      21.889  38.141   2.641  1.00  0.00     0.227 C 
HETATM   19  C   UNL     1      17.400  39.936   0.179  1.00  0.00     0.250 C 
HETATM   20  C   UNL     1      21.531  39.328   1.750  1.00  0.00     0.250 C 
HETATM   21  C   UNL     1      18.124  35.012   1.498  1.00  0.00     0.250 C 
HETATM   22  C   UNL     1      20.250  39.974  -1.039  1.00  0.00     0.283 C 
HETATM   23  C   UNL     1      16.039  37.279   1.609  1.00  0.00     0.283 C 
HETATM   24  C   UNL     1      21.518  35.790   2.404  1.00  0.00     0.283 C 
HETATM   25  C   UNL     1      15.394  39.079  -1.119  1.00  0.00     0.153 C 
HETATM   26  C   UNL     1      22.898  38.291  -0.127  1.00  0.00     0.153 C 
HETATM   27  C   UNL     1      19.760  35.791  -0.255  1.00  0.00     0.153 C 
ENDROOT
BRANCH  16  28
HETATM   28  C   UNL     1      17.201  41.907  -1.364  1.00  0.00     0.016 C 
HETATM   29  C   UNL     1      17.990  43.098  -0.822  1.00  0.00     0.012 C 
HETATM   30  C   UNL     1      16.940  42.076  -2.860  1.00  0.00     0.012 C 
ENDBRANCH  16  28
BRANCH  14  31
HETATM   31  C   UNL     1      22.547  40.783  -1.586  1.00  0.00     0.010 C 
HETATM   32  C   UNL     1      21.811  41.516  -2.706  1.00  0.00     0.012 C 
HETATM   33  C   UNL     1      23.695  41.637  -1.052  1.00  0.00     0.012 C 
ENDBRANCH  14  31
BRANCH  13  34
HETATM   34  C   UNL     1      14.095  38.843   1.482  1.00  0.00     0.010 C 
HETATM   35  C   UNL     1      13.702  39.484   2.812  1.00  0.00     0.012 C 
HETATM   36  C   UNL     1      13.434  37.474   1.333  1.00  0.00     0.012 C 
ENDBRANCH  13  34
BRANCH  18  37
HETATM   37  C   UNL     1      21.552  38.413   4.105  1.00  0.00     0.016 C 
HETATM   38  C   UNL     1      20.308  37.630   4.526  1.00  0.00     0.012 C 
HETATM   39  C   UNL     1      22.735  38.064   5.006  1.00  0.00     0.012 C 
ENDBRANCH  18  37
BRANCH  17  40
HETATM   40  C   UNL     1      15.779  34.437   0.676  1.00  0.00     0.016 C 
HETATM   41  C   UNL     1      16.183  32.965   0.634  1.00  0.00     0.012 C 
HETATM   42  C   UNL     1      14.732  34.738  -0.395  1.00  0.00     0.012 C 
ENDBRANCH  17  40
BRANCH  15  43
HETATM   43  C   UNL     1      21.341  33.634   1.129  1.00  0.00     0.010 C 
HETATM   44  C   UNL     1      22.165  32.801   2.107  1.00  0.00     0.012 C 
HETATM   45  C   UNL     1      20.387  32.745   0.336  1.00  0.00     0.012 C 
ENDBRANCH  15  43
TORSDOF 6
ENDMDL
MODEL 3
REMARK VINA RESULT:    -6.045      2.302      6.525
REMARK INTER + INTRA:          -7.296
REMARK INTER:                  -8.157
REMARK INTRA:                   0.861
REMARK UNBOUND:                 0.870
REMARK  6 active torsions:
REMARK  status: ('A' for Active; 'I' for Inactive)
REMARK    1  A    between atoms: C_13  and  C_16 
REMARK    2  A    between atoms: C_14  and  C_17 
REMARK    3  A    between atoms: C_15  and  C_18 
REMARK    4  A    between atoms: C_19  and  C_22 
REMARK    5  A    between atoms: C_20  and  C_23 
REMARK    6  A    between atoms: C_21  and  C_24 
ROOT
HETATM    1  O   UNL     1      15.395  42.150   2.777  1.00  0.00    -0.304 OA
HETATM    2  O   UNL     1      19.035  38.859   1.135  1.00  0.00    -0.304 OA
HETATM    3  O   UNL     1      14.589  37.903  -0.158  1.00  0.00    -0.304 OA
HETATM    4  O   UNL     1      16.701  41.587   0.610  1.00  0.00    -0.270 OA
HETATM    5  O   UNL     1      13.910  41.023  -0.143  1.00  0.00    -0.270 OA
HETATM    6  O   UNL     1      18.344  36.425  -0.892  1.00  0.00    -0.270 OA
HETATM    7  O   UNL     1      15.343  39.970   3.526  1.00  0.00    -0.263 OA
HETATM    8  O   UNL     1      19.687  39.063  -1.064  1.00  0.00    -0.263 OA
HETATM    9  O   UNL     1      13.544  35.996  -0.896  1.00  0.00    -0.263 OA
HETATM   10  N   UNL     1      18.807  41.445   1.554  1.00  0.00    -0.340 N 
HETATM   11  N   UNL     1      13.174  39.814   1.696  1.00  0.00    -0.340 N 
HETATM   12  N   UNL     1      16.749  36.625   0.790  1.00  0.00    -0.340 N 
HETATM   13  C   UNL     1      19.388  41.063   0.250  1.00  0.00     0.190 C 
HETATM   14  C   UNL     1      13.350  40.990   2.573  1.00  0.00     0.190 C 
HETATM   15  C   UNL     1      15.757  35.810   0.058  1.00  0.00     0.190 C 
HETATM   16  C   UNL     1      16.831  42.213   2.915  1.00  0.00     0.227 C 
HETATM   17  C   UNL     1      19.095  37.422   1.159  1.00  0.00     0.227 C 
HETATM   18  C   UNL     1      13.457  38.708  -0.540  1.00  0.00     0.227 C 
HETATM   19  C   UNL     1      17.433  41.719   1.597  1.00  0.00     0.250 C 
HETATM   20  C   UNL     1      13.534  39.952   0.343  1.00  0.00     0.250 C 
HETATM   21  C   UNL     1      18.036  36.787   0.248  1.00  0.00     0.250 C 
HETATM   22  C   UNL     1      14.797  40.949   3.035  1.00  0.00     0.283 C 
HETATM   23  C   UNL     1      19.375  39.554   0.016  1.00  0.00     0.283 C 
HETATM   24  C   UNL     1      14.500  36.562  -0.375  1.00  0.00     0.283 C 
HETATM   25  C   UNL     1      19.698  41.475   2.718  1.00  0.00     0.153 C 
HETATM   26  C   UNL     1      12.673  38.577   2.302  1.00  0.00     0.153 C 
HETATM   27  C   UNL     1      16.392  37.076   2.137  1.00  0.00     0.153 C 
ENDROOT
BRANCH  16  28
HETATM   28  C   UNL     1      17.187  43.673   3.155  1.00  0.00     0.016 C 
HETATM   29  C   UNL     1      16.061  44.588   2.676  1.00  0.00     0.012 C 
HETATM   30  C   UNL     1      17.484  43.921   4.634  1.00  0.00     0.012 C 
ENDBRANCH  16  28
BRANCH  14  31
HETATM   31  C   UNL     1      12.417  41.073   3.774  1.00  0.00     0.010 C 
HETATM   32  C   UNL     1      12.914  42.119   4.769  1.00  0.00     0.012 C 
HETATM   33  C   UNL     1      10.993  41.394   3.326  1.00  0.00     0.012 C 
ENDBRANCH  14  31
BRANCH  13  34
HETATM   34  C   UNL     1      20.797  41.607   0.019  1.00  0.00     0.010 C 
HETATM   35  C   UNL     1      20.873  42.365  -1.306  1.00  0.00     0.012 C 
HETATM   36  C   UNL     1      21.825  40.478   0.049  1.00  0.00     0.012 C 
ENDBRANCH  13  34
BRANCH  18  37
HETATM   37  C   UNL     1      13.584  39.058  -2.020  1.00  0.00     0.016 C 
HETATM   38  C   UNL     1      14.964  38.667  -2.550  1.00  0.00     0.012 C 
HETATM   39  C   UNL     1      12.486  38.377  -2.833  1.00  0.00     0.012 C 
ENDBRANCH  18  37
BRANCH  17  40
HETATM   40  C   UNL     1      20.506  36.908   0.872  1.00  0.00     0.016 C 
HETATM   41  C   UNL     1      20.532  35.381   0.871  1.00  0.00     0.012 C 
HETATM   42  C   UNL     1      21.498  37.461   1.893  1.00  0.00     0.012 C 
ENDBRANCH  17  40
BRANCH  15  43
HETATM   43  C   UNL     1      15.384  34.551   0.841  1.00  0.00     0.010 C 
HETATM   44  C   UNL     1      15.047  33.409  -0.114  1.00  0.00     0.012 C 
HETATM   45  C   UNL     1      16.519  34.151   1.780  1.00  0.00     0.012 C 
ENDBRANCH  15  43
TORSDOF 6
ENDMDL
MODEL 4
REMARK VINA RESULT:    -5.883      2.592      7.073
REMARK INTER + INTRA:          -7.077
REMARK INTER:                  -7.778
REMARK INTRA:                   0.701
REMARK UNBOUND:                 0.870
REMARK  6 active torsions:
REMARK  status: ('A' for Active; 'I' for Inactive)
REMARK    1  A    between atoms: C_13  and  C_16 
REMARK    2  A    between atoms: C_14  and  C_17 
REMARK    3  A    between atoms: C_15  and  C_18 
REMARK    4  A    between atoms: C_19  and  C_22 
REMARK    5  A    between atoms: C_20  and  C_23 
REMARK    6  A    between atoms: C_21  and  C_24 
ROOT
HETATM    1  O   UNL     1      17.160  36.774   1.058  1.00  0.00    -0.304 OA
HETATM    2  O   UNL     1      22.105  37.580   2.354  1.00  0.00    -0.304 OA
HETATM    3  O   UNL     1      21.266  34.044  -0.670  1.00  0.00    -0.304 OA
HETATM    4  O   UNL     1      19.308  37.821   0.054  1.00  0.00    -0.270 OA
HETATM    5  O   UNL     1      18.727  35.612  -1.805  1.00  0.00    -0.270 OA
HETATM    6  O   UNL     1      24.522  35.928   0.964  1.00  0.00    -0.270 OA
HETATM    7  O   UNL     1      18.288  35.133   2.221  1.00  0.00    -0.263 OA
HETATM    8  O   UNL     1      23.409  38.670   0.800  1.00  0.00    -0.263 OA
HETATM    9  O   UNL     1      22.479  32.200  -1.304  1.00  0.00    -0.263 OA
HETATM   10  N   UNL     1      19.955  39.030   1.916  1.00  0.00    -0.340 N 
HETATM   11  N   UNL     1      18.275  33.879  -0.330  1.00  0.00    -0.340 N 
HETATM   12  N   UNL     1      22.738  34.541   1.517  1.00  0.00    -0.340 N 
HETATM   13  C   UNL     1      21.178  39.484   1.222  1.00  0.00     0.190 C 
HETATM   14  C   UNL     1      17.082  34.586   0.178  1.00  0.00     0.190 C 
HETATM   15  C   UNL     1      23.202  33.454   0.631  1.00  0.00     0.190 C 
HETATM   16  C   UNL     1      17.747  37.816   1.867  1.00  0.00     0.227 C 
HETATM   17  C   UNL     1      23.135  36.671   2.778  1.00  0.00     0.227 C 
HETATM   18  C   UNL     1      20.341  33.848  -1.756  1.00  0.00     0.227 C 
HETATM   19  C   UNL     1      19.067  38.215   1.201  1.00  0.00     0.250 C 
HETATM   20  C   UNL     1      19.048  34.527  -1.310  1.00  0.00     0.250 C 
HETATM   21  C   UNL     1      23.532  35.692   1.662  1.00  0.00     0.250 C 
HETATM   22  C   UNL     1      17.582  35.495   1.288  1.00  0.00     0.283 C 
HETATM   23  C   UNL     1      22.355  38.531   1.413  1.00  0.00     0.283 C 
HETATM   24  C   UNL     1      22.280  33.143  -0.546  1.00  0.00     0.283 C 
HETATM   25  C   UNL     1      19.772  39.432   3.314  1.00  0.00     0.153 C 
HETATM   26  C   UNL     1      18.591  32.568   0.246  1.00  0.00     0.153 C 
HETATM   27  C   UNL     1      21.554  34.284   2.340  1.00  0.00     0.153 C 
ENDROOT
BRANCH  16  28
HETATM   28  C   UNL     1      16.769  38.981   1.863  1.00  0.00     0.016 C 
HETATM   29  C   UNL     1      15.942  38.987   0.578  1.00  0.00     0.012 C 
HETATM   30  C   UNL     1      15.855  38.925   3.086  1.00  0.00     0.012 C 
ENDBRANCH  16  28
BRANCH  14  31
HETATM   31  C   UNL     1      15.950  33.704   0.690  1.00  0.00     0.010 C 
HETATM   32  C   UNL     1      15.138  34.438   1.756  1.00  0.00     0.012 C 
HETATM   33  C   UNL     1      15.050  33.264  -0.461  1.00  0.00     0.012 C 
ENDBRANCH  14  31
BRANCH  13  34
HETATM   34  C   UNL     1      21.602  40.906   1.587  1.00  0.00     0.010 C 
HETATM   35  C   UNL     1      21.822  41.744   0.327  1.00  0.00     0.012 C 
HETATM   36  C   UNL     1      22.865  40.891   2.445  1.00  0.00     0.012 C 
ENDBRANCH  13  34
BRANCH  18  37
HETATM   37  C   UNL     1      20.916  34.498  -3.012  1.00  0.00     0.016 C 
HETATM   38  C   UNL     1      22.118  35.375  -2.662  1.00  0.00     0.012 C 
HETATM   39  C   UNL     1      21.307  33.438  -4.039  1.00  0.00     0.012 C 
ENDBRANCH  18  37
BRANCH  17  40
HETATM   40  C   UNL     1      24.335  37.408   3.371  1.00  0.00     0.016 C 
HETATM   41  C   UNL     1      25.439  36.422   3.748  1.00  0.00     0.012 C 
HETATM   42  C   UNL     1      23.913  38.231   4.587  1.00  0.00     0.012 C 
ENDBRANCH  17  40
BRANCH  15  43
HETATM   43  C   UNL     1      23.506  32.182   1.423  1.00  0.00     0.010 C 
HETATM   44  C   UNL     1      22.395  31.154   1.229  1.00  0.00     0.012 C 
HETATM   45  C   UNL     1      24.855  31.603   1.007  1.00  0.00     0.012 C 
ENDBRANCH  15  43
TORSDOF 6
ENDMDL
MODEL 5
REMARK VINA RESULT:    -5.441      1.879      6.541
REMARK INTER + INTRA:          -6.480
REMARK INTER:                  -7.537
REMARK INTRA:                   1.057
REMARK UNBOUND:                 0.870
REMARK  6 active torsions:
REMARK  status: ('A' for Active; 'I' for Inactive)
REMARK    1  A    between atoms: C_13  and  C_16 
REMARK    2  A    between atoms: C_14  and  C_17 
REMARK    3  A    between atoms: C_15  and  C_18 
REMARK    4  A    between atoms: C_19  and  C_22 
REMARK    5  A    between atoms: C_20  and  C_23 
REMARK    6  A    between atoms: C_21  and  C_24 
ROOT
HETATM    1  O   UNL     1      18.272  34.013  -0.840  1.00  0.00    -0.304 OA
HETATM    2  O   UNL     1      16.007  38.401   0.708  1.00  0.00    -0.304 OA
HETATM    3  O   UNL     1      20.663  38.599  -0.095  1.00  0.00    -0.304 OA
HETATM    4  O   UNL     1      17.474  36.269  -1.836  1.00  0.00    -0.270 OA
HETATM    5  O   UNL     1      20.378  36.330  -2.323  1.00  0.00    -0.270 OA
HETATM    6  O   UNL     1      17.638  41.199   0.861  1.00  0.00    -0.270 OA
HETATM    7  O   UNL     1      18.873  34.918   1.194  1.00  0.00    -0.263 OA
HETATM    8  O   UNL     1      15.606  39.979  -0.920  1.00  0.00    -0.263 OA
HETATM    9  O   UNL     1      22.309  40.055   0.569  1.00  0.00    -0.263 OA
HETATM   10  N   UNL     1      15.404  36.339  -0.808  1.00  0.00    -0.340 N 
HETATM   11  N   UNL     1      21.202  35.638  -0.267  1.00  0.00    -0.340 N 
HETATM   12  N   UNL     1      18.877  39.431   1.727  1.00  0.00    -0.340 N 
HETATM   13  C   UNL     1      15.131  37.664  -1.403  1.00  0.00     0.190 C 
HETATM   14  C   UNL     1      20.577  34.310  -0.433  1.00  0.00     0.190 C 
HETATM   15  C   UNL     1      20.150  40.178   1.647  1.00  0.00     0.190 C 
HETATM   16  C   UNL     1      16.876  34.304  -0.610  1.00  0.00     0.227 C 
HETATM   17  C   UNL     1      16.373  39.349   1.725  1.00  0.00     0.227 C 
HETATM   18  C   UNL     1      21.543  37.995  -1.062  1.00  0.00     0.227 C 
HETATM   19  C   UNL     1      16.618  35.719  -1.134  1.00  0.00     0.250 C 
HETATM   20  C   UNL     1      20.991  36.588  -1.282  1.00  0.00     0.250 C 
HETATM   21  C   UNL     1      17.679  40.082   1.385  1.00  0.00     0.250 C 
HETATM   22  C   UNL     1      19.162  34.449   0.101  1.00  0.00     0.283 C 
HETATM   23  C   UNL     1      15.620  38.817  -0.528  1.00  0.00     0.283 C 
HETATM   24  C   UNL     1      21.172  39.607   0.666  1.00  0.00     0.283 C 
HETATM   25  C   UNL     1      14.405  35.781   0.109  1.00  0.00     0.153 C 
HETATM   26  C   UNL     1      21.968  35.886   0.958  1.00  0.00     0.153 C 
HETATM   27  C   UNL     1      18.912  38.098   2.332  1.00  0.00     0.153 C 
ENDROOT
BRANCH  16  28
HETATM   28  C   UNL     1      16.077  33.282  -1.404  1.00  0.00     0.016 C 
HETATM   29  C   UNL     1      16.975  32.550  -2.400  1.00  0.00     0.012 C 
HETATM   30  C   UNL     1      15.393  32.285  -0.468  1.00  0.00     0.012 C 
ENDBRANCH  16  28
BRANCH  14  31
HETATM   31  C   UNL     1      21.286  33.148   0.252  1.00  0.00     0.010 C 
HETATM   32  C   UNL     1      20.421  32.578   1.374  1.00  0.00     0.012 C 
HETATM   33  C   UNL     1      21.635  32.060  -0.761  1.00  0.00     0.012 C 
ENDBRANCH  14  31
BRANCH  13  34
HETATM   34  C   UNL     1      13.664  37.884  -1.771  1.00  0.00     0.010 C 
HETATM   35  C   UNL     1      13.529  38.260  -3.247  1.00  0.00     0.012 C 
HETATM   36  C   UNL     1      13.039  38.960  -0.887  1.00  0.00     0.012 C 
ENDBRANCH  13  34
BRANCH  18  37
HETATM   37  C   UNL     1      21.504  38.823  -2.343  1.00  0.00     0.016 C 
HETATM   38  C   UNL     1      20.370  39.846  -2.289  1.00  0.00     0.012 C 
HETATM   39  C   UNL     1      22.843  39.521  -2.576  1.00  0.00     0.012 C 
ENDBRANCH  18  37
BRANCH  17  40
HETATM   40  C   UNL     1      15.226  40.307   2.048  1.00  0.00     0.016 C 
HETATM   41  C   UNL     1      15.654  41.321   3.107  1.00  0.00     0.012 C 
HETATM   42  C   UNL     1      13.994  39.533   2.512  1.00  0.00     0.012 C 
ENDBRANCH  17  40
BRANCH  15  43
HETATM   43  C   UNL     1      20.778  40.357   3.030  1.00  0.00     0.010 C 
HETATM   44  C   UNL     1      21.879  39.324   3.253  1.00  0.00     0.012 C 
HETATM   45  C   UNL     1      21.325  41.772   3.188  1.00  0.00     0.012 C 
ENDBRANCH  15  43
TORSDOF 6
ENDMDL
MODEL 6
REMARK VINA RESULT:    -5.206      2.344      7.479
REMARK INTER + INTRA:          -6.162
REMARK INTER:                  -7.424
REMARK INTRA:                   1.262
REMARK UNBOUND:                 0.870
REMARK  6 active torsions:
REMARK  status: ('A' for Active; 'I' for Inactive)
REMARK    1  A    between atoms: C_13  and  C_16 
REMARK    2  A    between atoms: C_14  and  C_17 
REMARK    3  A    between atoms: C_15  and  C_18 
REMARK    4  A    between atoms: C_19  and  C_22 
REMARK    5  A    between atoms: C_20  and  C_23 
REMARK    6  A    between atoms: C_21  and  C_24 
ROOT
HETATM    1  O   UNL     1      16.420  38.841   1.790  1.00  0.00    -0.304 OA
HETATM    2  O   UNL     1      19.047  35.462  -1.119  1.00  0.00    -0.304 OA
HETATM    3  O   UNL     1      21.618  38.343   1.610  1.00  0.00    -0.304 OA
HETATM    4  O   UNL     1      17.695  36.600   2.051  1.00  0.00    -0.270 OA
HETATM    5  O   UNL     1      19.249  38.437   3.748  1.00  0.00    -0.270 OA
HETATM    6  O   UNL     1      22.265  35.153  -0.885  1.00  0.00    -0.270 OA
HETATM    7  O   UNL     1      17.806  39.643   0.130  1.00  0.00    -0.263 OA
HETATM    8  O   UNL     1      19.880  33.608  -0.039  1.00  0.00    -0.263 OA
HETATM    9  O   UNL     1      23.817  39.003   1.561  1.00  0.00    -0.263 OA
HETATM   10  N   UNL     1      16.784  35.519   0.220  1.00  0.00    -0.340 N 
HETATM   11  N   UNL     1      19.442  40.288   2.363  1.00  0.00    -0.340 N 
HETATM   12  N   UNL     1      21.613  37.386  -0.897  1.00  0.00    -0.340 N 
HETATM   13  C   UNL     1      17.638  34.338   0.467  1.00  0.00     0.190 C 
HETATM   14  C   UNL     1      17.980  40.502   2.401  1.00  0.00     0.190 C 
HETATM   15  C   UNL     1      22.909  37.851  -0.360  1.00  0.00     0.190 C 
HETATM   16  C   UNL     1      15.936  37.780   0.938  1.00  0.00     0.227 C 
HETATM   17  C   UNL     1      20.184  35.637  -1.982  1.00  0.00     0.227 C 
HETATM   18  C   UNL     1      21.450  38.893   2.930  1.00  0.00     0.227 C 
HETATM   19  C   UNL     1      16.883  36.590   1.118  1.00  0.00     0.250 C 
HETATM   20  C   UNL     1      19.955  39.179   3.058  1.00  0.00     0.250 C 
HETATM   21  C   UNL     1      21.447  36.023  -1.197  1.00  0.00     0.250 C 
HETATM   22  C   UNL     1      17.408  39.640   1.288  1.00  0.00     0.283 C 
HETATM   23  C   UNL     1      18.990  34.427  -0.239  1.00  0.00     0.283 C 
HETATM   24  C   UNL     1      22.843  38.477   1.031  1.00  0.00     0.283 C 
HETATM   25  C   UNL     1      15.922  35.504  -0.965  1.00  0.00     0.153 C 
HETATM   26  C   UNL     1      20.251  41.224   1.577  1.00  0.00     0.153 C 
HETATM   27  C   UNL     1      20.625  38.405  -1.256  1.00  0.00     0.153 C 
ENDROOT
BRANCH  16  28
HETATM   28  C   UNL     1      14.536  37.431   1.421  1.00  0.00     0.016 C 
HETATM   29  C   UNL     1      14.341  37.868   2.872  1.00  0.00     0.012 C 
HETATM   30  C   UNL     1      13.479  38.073   0.523  1.00  0.00     0.012 C 
ENDBRANCH  16  28
BRANCH  14  31
HETATM   31  C   UNL     1      17.512  41.943   2.244  1.00  0.00     0.010 C 
HETATM   32  C   UNL     1      16.030  41.990   1.876  1.00  0.00     0.012 C 
HETATM   33  C   UNL     1      17.771  42.735   3.523  1.00  0.00     0.012 C 
ENDBRANCH  14  31
BRANCH  13  34
HETATM   34  C   UNL     1      16.966  33.009   0.127  1.00  0.00     0.010 C 
HETATM   35  C   UNL     1      16.977  32.770  -1.383  1.00  0.00     0.012 C 
HETATM   36  C   UNL     1      15.536  32.972   0.662  1.00  0.00     0.012 C 
ENDBRANCH  13  34
BRANCH  18  37
HETATM   37  C   UNL     1      21.916  37.860   3.953  1.00  0.00     0.016 C 
HETATM   38  C   UNL     1      22.166  36.511   3.280  1.00  0.00     0.012 C 
HETATM   39  C   UNL     1      23.174  38.341   4.672  1.00  0.00     0.012 C 
ENDBRANCH  18  37
BRANCH  17  40
HETATM   40  C   UNL     1      20.400  34.426  -2.889  1.00  0.00     0.016 C 
HETATM   41  C   UNL     1      21.617  34.637  -3.787  1.00  0.00     0.012 C 
HETATM   42  C   UNL     1      19.154  34.154  -3.728  1.00  0.00     0.012 C 
ENDBRANCH  17  40
BRANCH  15  43
HETATM   43  C   UNL     1      23.610  38.794  -1.339  1.00  0.00     0.010 C 
HETATM   44  C   UNL     1      23.479  40.241  -0.872  1.00  0.00     0.012 C 
HETATM   45  C   UNL     1      25.078  38.408  -1.492  1.00  0.00     0.012 C 
ENDBRANCH  15  43
TORSDOF 6
ENDMDL
MODEL 7
REMARK VINA RESULT:    -5.098      2.045      6.395
REMARK INTER + INTRA:          -6.017
REMARK INTER:                  -7.106
REMARK INTRA:                   1.088
REMARK UNBOUND:                 0.870
REMARK  6 active torsions:
REMARK  status: ('A' for Active; 'I' for Inactive)
REMARK    1  A    between atoms: C_13  and  C_16 
REMARK    2  A    between atoms: C_14  and  C_17 
REMARK    3  A    between atoms: C_15  and  C_18 
REMARK    4  A    between atoms: C_19  and  C_22 
REMARK    5  A    between atoms: C_20  and  C_23 
REMARK    6  A    between atoms: C_21  and  C_24 
ROOT
HETATM    1  O   UNL     1      16.863  35.478   0.118  1.00  0.00    -0.304 OA
HETATM    2  O   UNL     1      16.229  40.289   1.916  1.00  0.00    -0.304 OA
HETATM    3  O   UNL     1      20.501  39.228   0.189  1.00  0.00    -0.304 OA
HETATM    4  O   UNL     1      16.518  37.883  -0.785  1.00  0.00    -0.270 OA
HETATM    5  O   UNL     1      19.168  37.161  -1.846  1.00  0.00    -0.270 OA
HETATM    6  O   UNL     1      18.549  42.535   1.630  1.00  0.00    -0.270 OA
HETATM    7  O   UNL     1      18.087  36.151   1.953  1.00  0.00    -0.263 OA
HETATM    8  O   UNL     1      15.945  41.944   0.341  1.00  0.00    -0.263 OA
HETATM    9  O   UNL     1      22.578  40.170   0.452  1.00  0.00    -0.263 OA
HETATM   10  N   UNL     1      14.797  38.495   0.633  1.00  0.00    -0.340 N 
HETATM   11  N   UNL     1      20.176  36.235   0.028  1.00  0.00    -0.340 N 
HETATM   12  N   UNL     1      19.415  40.482   2.298  1.00  0.00    -0.340 N 
HETATM   13  C   UNL     1      14.776  39.855   0.054  1.00  0.00     0.190 C 
HETATM   14  C   UNL     1      19.196  35.130   0.042  1.00  0.00     0.190 C 
HETATM   15  C   UNL     1      20.798  40.857   1.935  1.00  0.00     0.190 C 
HETATM   16  C   UNL     1      15.675  36.133   0.612  1.00  0.00     0.227 C 
HETATM   17  C   UNL     1      17.036  41.085   2.801  1.00  0.00     0.227 C 
HETATM   18  C   UNL     1      20.970  38.424  -0.910  1.00  0.00     0.227 C 
HETATM   19  C   UNL     1      15.706  37.574   0.095  1.00  0.00     0.250 C 
HETATM   20  C   UNL     1      20.026  37.225  -0.961  1.00  0.00     0.250 C 
HETATM   21  C   UNL     1      18.394  41.440   2.178  1.00  0.00     0.250 C 
HETATM   22  C   UNL     1      18.010  35.640   0.844  1.00  0.00     0.283 C 
HETATM   23  C   UNL     1      15.725  40.816   0.767  1.00  0.00     0.283 C 
HETATM   24  C   UNL     1      21.407  40.047   0.792  1.00  0.00     0.283 C 
HETATM   25  C   UNL     1      13.893  38.214   1.753  1.00  0.00     0.153 C 
HETATM   26  C   UNL     1      21.213  36.245   1.064  1.00  0.00     0.153 C 
HETATM   27  C   UNL     1      19.212  39.180   2.935  1.00  0.00     0.153 C 
ENDROOT
BRANCH  16  28
HETATM   28  C   UNL     1      14.485  35.381   0.035  1.00  0.00     0.016 C 
HETATM   29  C   UNL     1      13.924  36.112  -1.184  1.00  0.00     0.012 C 
HETATM   30  C   UNL     1      14.877  33.951  -0.335  1.00  0.00     0.012 C 
ENDBRANCH  16  28
BRANCH  14  31
HETATM   31  C   UNL     1      19.689  33.808   0.616  1.00  0.00     0.010 C 
HETATM   32  C   UNL     1      18.510  32.907   0.978  1.00  0.00     0.012 C 
HETATM   33  C   UNL     1      20.616  33.105  -0.373  1.00  0.00     0.012 C 
ENDBRANCH  14  31
BRANCH  13  34
HETATM   34  C   UNL     1      13.380  40.471  -0.021  1.00  0.00     0.010 C 
HETATM   35  C   UNL     1      13.056  40.899  -1.452  1.00  0.00     0.012 C 
HETATM   36  C   UNL     1      13.260  41.659   0.931  1.00  0.00     0.012 C 
ENDBRANCH  13  34
BRANCH  18  37
HETATM   37  C   UNL     1      20.896  39.254  -2.189  1.00  0.00     0.016 C 
HETATM   38  C   UNL     1      20.110  40.543  -1.950  1.00  0.00     0.012 C 
HETATM   39  C   UNL     1      22.297  39.571  -2.709  1.00  0.00     0.012 C 
ENDBRANCH  18  37
BRANCH  17  40
HETATM   40  C   UNL     1      16.280  42.312   3.310  1.00  0.00     0.016 C 
HETATM   41  C   UNL     1      17.167  43.146   4.232  1.00  0.00     0.012 C 
HETATM   42  C   UNL     1      14.999  41.895   4.030  1.00  0.00     0.012 C 
ENDBRANCH  17  40
BRANCH  15  43
HETATM   43  C   UNL     1      21.719  40.834   3.156  1.00  0.00     0.010 C 
HETATM   44  C   UNL     1      22.600  39.588   3.137  1.00  0.00     0.012 C 
HETATM   45  C   UNL     1      22.573  42.097   3.204  1.00  0.00     0.012 C 
ENDBRANCH  15  43
TORSDOF 6
ENDMDL
MODEL 8
REMARK VINA RESULT:    -4.986      3.847      8.809
REMARK INTER + INTRA:          -5.866
REMARK INTER:                  -7.213
REMARK INTRA:                   1.348
REMARK UNBOUND:                 0.870
REMARK  6 active torsions:
REMARK  status: ('A' for Active; 'I' for Inactive)
REMARK    1  A    between atoms: C_13  and  C_16 
REMARK    2  A    between atoms: C_14  and  C_17 
REMARK    3  A    between atoms: C_15  and  C_18 
REMARK    4  A    between atoms: C_19  and  C_22 
REMARK    5  A    between atoms: C_20  and  C_23 
REMARK    6  A    between atoms: C_21  and  C_24 
ROOT
HETATM    1  O   UNL     1      18.962  35.620   1.571  1.00  0.00    -0.304 OA
HETATM    2  O   UNL     1      20.859  34.193  -3.028  1.00  0.00    -0.304 OA
HETATM    3  O   UNL     1      24.020  35.093   0.371  1.00  0.00    -0.304 OA
HETATM    4  O   UNL     1      19.997  33.533   0.435  1.00  0.00    -0.270 OA
HETATM    5  O   UNL     1      21.924  34.133   2.580  1.00  0.00    -0.270 OA
HETATM    6  O   UNL     1      24.028  33.683  -3.480  1.00  0.00    -0.270 OA
HETATM    7  O   UNL     1      20.240  37.124   0.379  1.00  0.00    -0.263 OA
HETATM    8  O   UNL     1      21.591  32.017  -3.205  1.00  0.00    -0.263 OA
HETATM    9  O   UNL     1      26.261  35.595   0.338  1.00  0.00    -0.263 OA
HETATM   10  N   UNL     1      18.776  33.619  -1.527  1.00  0.00    -0.340 N 
HETATM   11  N   UNL     1      22.172  36.428   2.344  1.00  0.00    -0.340 N 
HETATM   12  N   UNL     1      23.634  35.608  -2.234  1.00  0.00    -0.340 N 
HETATM   13  C   UNL     1      19.514  32.454  -2.060  1.00  0.00     0.190 C 
HETATM   14  C   UNL     1      20.757  36.645   2.708  1.00  0.00     0.190 C 
HETATM   15  C   UNL     1      25.025  35.668  -1.738  1.00  0.00     0.190 C 
HETATM   16  C   UNL     1      18.272  35.189   0.378  1.00  0.00     0.227 C 
HETATM   17  C   UNL     1      21.908  34.753  -3.836  1.00  0.00     0.227 C 
HETATM   18  C   UNL     1      24.059  34.868   1.793  1.00  0.00     0.227 C 
HETATM   19  C   UNL     1      19.093  34.049  -0.231  1.00  0.00     0.250 C 
HETATM   20  C   UNL     1      22.630  35.100   2.276  1.00  0.00     0.250 C 
HETATM   21  C   UNL     1      23.283  34.617  -3.167  1.00  0.00     0.250 C 
HETATM   22  C   UNL     1      19.973  36.525   1.412  1.00  0.00     0.283 C 
HETATM   23  C   UNL     1      20.782  32.851  -2.814  1.00  0.00     0.283 C 
HETATM   24  C   UNL     1      25.182  35.466  -0.232  1.00  0.00     0.283 C 
HETATM   25  C   UNL     1      17.794  34.266  -2.401  1.00  0.00     0.153 C 
HETATM   26  C   UNL     1      22.990  37.607   2.044  1.00  0.00     0.153 C 
HETATM   27  C   UNL     1      22.734  36.700  -1.858  1.00  0.00     0.153 C 
ENDROOT
BRANCH  16  28
HETATM   28  C   UNL     1      16.902  34.691   0.816  1.00  0.00     0.016 C 
HETATM   29  C   UNL     1      16.770  34.747   2.337  1.00  0.00     0.012 C 
HETATM   30  C   UNL     1      15.793  35.507   0.153  1.00  0.00     0.012 C 
ENDBRANCH  16  28
BRANCH  14  31
HETATM   31  C   UNL     1      20.439  37.968   3.394  1.00  0.00     0.010 C 
HETATM   32  C   UNL     1      19.011  38.408   3.079  1.00  0.00     0.012 C 
HETATM   33  C   UNL     1      20.643  37.854   4.903  1.00  0.00     0.012 C 
ENDBRANCH  14  31
BRANCH  13  34
HETATM   34  C   UNL     1      18.663  31.533  -2.934  1.00  0.00     0.010 C 
HETATM   35  C   UNL     1      17.255  31.391  -2.356  1.00  0.00     0.012 C 
HETATM   36  C   UNL     1      19.322  30.163  -3.079  1.00  0.00     0.012 C 
ENDBRANCH  13  34
BRANCH  18  37
HETATM   37  C   UNL     1      24.515  33.434   2.048  1.00  0.00     0.016 C 
HETATM   38  C   UNL     1      24.457  32.613   0.759  1.00  0.00     0.012 C 
HETATM   39  C   UNL     1      25.925  33.410   2.634  1.00  0.00     0.012 C 
ENDBRANCH  18  37
BRANCH  17  40
HETATM   40  C   UNL     1      21.886  34.198  -5.260  1.00  0.00     0.016 C 
HETATM   41  C   UNL     1      22.848  34.976  -6.155  1.00  0.00     0.012 C 
HETATM   42  C   UNL     1      20.470  34.237  -5.830  1.00  0.00     0.012 C 
ENDBRANCH  17  40
BRANCH  15  43
HETATM   43  C   UNL     1      25.717  36.959  -2.180  1.00  0.00     0.010 C 
HETATM   44  C   UNL     1      27.232  36.822  -2.055  1.00  0.00     0.012 C 
HETATM   45  C   UNL     1      25.324  37.312  -3.611  1.00  0.00     0.012 C 
ENDBRANCH  15  43
TORSDOF 6
ENDMDL
MODEL 9
REMARK VINA RESULT:    -4.909      2.308      7.179
REMARK INTER + INTRA:          -5.762
REMARK INTER:                  -6.625
REMARK INTRA:                   0.863
REMARK UNBOUND:                 0.870
REMARK  6 active torsions:
REMARK  status: ('A' for Active; 'I' for Inactive)
REMARK    1  A    between atoms: C_13  and  C_16 
REMARK    2  A    between atoms: C_14  and  C_17 
REMARK    3  A    between atoms: C_15  and  C_18 
REMARK    4  A    between atoms: C_19  and  C_22 
REMARK    5  A    between atoms: C_20  and  C_23 
REMARK    6  A    between atoms: C_21  and  C_24 
ROOT
HETATM    1  O   UNL     1      13.370  40.743  -0.353  1.00  0.00    -0.304 OA
HETATM    2  O   UNL     1      18.163  40.430  -2.279  1.00  0.00    -0.304 OA
HETATM    3  O   UNL     1      16.861  37.003   0.708  1.00  0.00    -0.304 OA
HETATM    4  O   UNL     1      14.685  39.404  -2.141  1.00  0.00    -0.270 OA
HETATM    5  O   UNL     1      13.832  37.311  -0.254  1.00  0.00    -0.270 OA
HETATM    6  O   UNL     1      20.076  37.882  -1.683  1.00  0.00    -0.270 OA
HETATM    7  O   UNL     1      15.162  40.925   1.087  1.00  0.00    -0.263 OA
HETATM    8  O   UNL     1      18.491  38.903  -3.971  1.00  0.00    -0.263 OA
HETATM    9  O   UNL     1      18.040  35.492   1.972  1.00  0.00    -0.263 OA
HETATM   10  N   UNL     1      15.786  41.193  -3.108  1.00  0.00    -0.340 N 
HETATM   11  N   UNL     1      14.356  38.290   1.784  1.00  0.00    -0.340 N 
HETATM   12  N   UNL     1      18.969  38.595   0.235  1.00  0.00    -0.340 N 
HETATM   13  C   UNL     1      16.512  40.280  -4.017  1.00  0.00     0.190 C 
HETATM   14  C   UNL     1      13.361  39.357   1.557  1.00  0.00     0.190 C 
HETATM   15  C   UNL     1      19.232  37.331   0.955  1.00  0.00     0.190 C 
HETATM   16  C   UNL     1      14.024  41.562  -1.346  1.00  0.00     0.227 C 
HETATM   17  C   UNL     1      19.428  40.194  -1.639  1.00  0.00     0.227 C 
HETATM   18  C   UNL     1      15.631  36.294   0.951  1.00  0.00     0.227 C 
HETATM   19  C   UNL     1      14.858  40.625  -2.224  1.00  0.00     0.250 C 
HETATM   20  C   UNL     1      14.527  37.333   0.767  1.00  0.00     0.250 C 
HETATM   21  C   UNL     1      19.518  38.780  -1.046  1.00  0.00     0.250 C 
HETATM   22  C   UNL     1      14.084  40.438   0.771  1.00  0.00     0.283 C 
HETATM   23  C   UNL     1      17.824  39.774  -3.422  1.00  0.00     0.283 C 
HETATM   24  C   UNL     1      17.990  36.508   1.287  1.00  0.00     0.283 C 
HETATM   25  C   UNL     1      16.113  42.621  -3.168  1.00  0.00     0.153 C 
HETATM   26  C   UNL     1      15.122  38.321   3.034  1.00  0.00     0.153 C 
HETATM   27  C   UNL     1      18.293  39.665   0.971  1.00  0.00     0.153 C 
ENDROOT
BRANCH  16  28
HETATM   28  C   UNL     1      12.926  42.228  -2.161  1.00  0.00     0.016 C 
HETATM   29  C   UNL     1      11.749  41.273  -2.363  1.00  0.00     0.012 C 
HETATM   30  C   UNL     1      12.458  43.517  -1.487  1.00  0.00     0.012 C 
ENDBRANCH  16  28
BRANCH  14  31
HETATM   31  C   UNL     1      12.724  39.953   2.807  1.00  0.00     0.010 C 
HETATM   32  C   UNL     1      12.255  41.382   2.541  1.00  0.00     0.012 C 
HETATM   33  C   UNL     1      11.560  39.087   3.282  1.00  0.00     0.012 C 
ENDBRANCH  14  31
BRANCH  13  34
HETATM   34  C   UNL     1      16.768  40.867  -5.405  1.00  0.00     0.010 C 
HETATM   35  C   UNL     1      16.179  39.965  -6.489  1.00  0.00     0.012 C 
HETATM   36  C   UNL     1      18.263  41.075  -5.637  1.00  0.00     0.012 C 
ENDBRANCH  13  34
BRANCH  18  37
HETATM   37  C   UNL     1      15.513  35.160  -0.063  1.00  0.00     0.016 C 
HETATM   38  C   UNL     1      16.597  35.279  -1.134  1.00  0.00     0.012 C 
HETATM   39  C   UNL     1      15.595  33.802   0.632  1.00  0.00     0.012 C 
ENDBRANCH  18  37
BRANCH  17  40
HETATM   40  C   UNL     1      20.602  40.522  -2.562  1.00  0.00     0.016 C 
HETATM   41  C   UNL     1      21.930  40.247  -1.861  1.00  0.00     0.012 C 
HETATM   42  C   UNL     1      20.530  41.976  -3.026  1.00  0.00     0.012 C 
ENDBRANCH  17  40
BRANCH  15  43
HETATM   43  C   UNL     1      20.067  37.572   2.213  1.00  0.00     0.010 C 
HETATM   44  C   UNL     1      21.336  38.348   1.871  1.00  0.00     0.012 C 
HETATM   45  C   UNL     1      19.248  38.315   3.263  1.00  0.00     0.012 C 
ENDBRANCH  15  43
TORSDOF 6
ENDMDL
MODEL 10
REMARK VINA RESULT:    -4.829      2.058      6.574
REMARK INTER + INTRA:          -5.653
REMARK INTER:                  -6.902
REMARK INTRA:                   1.250
REMARK UNBOUND:                 0.870
REMARK  6 active torsions:
REMARK  status: ('A' for Active; 'I' for Inactive)
REMARK    1  A    between atoms: C_13  and  C_16 
REMARK    2  A    between atoms: C_14  and  C_17 
REMARK    3  A    between atoms: C_15  and  C_18 
REMARK    4  A    between atoms: C_19  and  C_22 
REMARK    5  A    between atoms: C_20  and  C_23 
REMARK    6  A    between atoms: C_21  and  C_24 
ROOT
HETATM    1  O   UNL     1      19.923  36.993   2.057  1.00  0.00    -0.304 OA
HETATM    2  O   UNL     1      15.129  38.920   1.752  1.00  0.00    -0.304 OA
HETATM    3  O   UNL     1      18.665  41.887   0.727  1.00  0.00    -0.304 OA
HETATM    4  O   UNL     1      18.171  37.626   0.254  1.00  0.00    -0.270 OA
HETATM    5  O   UNL     1      20.412  39.440  -0.347  1.00  0.00    -0.270 OA
HETATM    6  O   UNL     1      14.564  41.918   0.658  1.00  0.00    -0.270 OA
HETATM    7  O   UNL     1      19.307  38.680   3.504  1.00  0.00    -0.263 OA
HETATM    8  O   UNL     1      14.250  39.153  -0.364  1.00  0.00    -0.263 OA
HETATM    9  O   UNL     1      18.820  44.177   0.652  1.00  0.00    -0.263 OA
HETATM   10  N   UNL     1      16.336  36.636   1.255  1.00  0.00    -0.340 N 
HETATM   11  N   UNL     1      20.950  40.221   1.771  1.00  0.00    -0.340 N 
HETATM   12  N   UNL     1      16.372  41.862   2.120  1.00  0.00    -0.340 N 
HETATM   13  C   UNL     1      15.455  37.135   0.178  1.00  0.00     0.190 C 
HETATM   14  C   UNL     1      21.352  38.865   2.199  1.00  0.00     0.190 C 
HETATM   15  C   UNL     1      16.874  43.180   1.680  1.00  0.00     0.190 C 
HETATM   16  C   UNL     1      18.648  36.333   2.210  1.00  0.00     0.227 C 
HETATM   17  C   UNL     1      14.561  40.136   2.267  1.00  0.00     0.227 C 
HETATM   18  C   UNL     1      19.933  41.748   0.058  1.00  0.00     0.227 C 
HETATM   19  C   UNL     1      17.704  36.925   1.159  1.00  0.00     0.250 C 
HETATM   20  C   UNL     1      20.452  40.370   0.464  1.00  0.00     0.250 C 
HETATM   21  C   UNL     1      15.160  41.380   1.595  1.00  0.00     0.250 C 
HETATM   22  C   UNL     1      20.082  38.193   2.691  1.00  0.00     0.283 C 
HETATM   23  C   UNL     1      14.887  38.522   0.473  1.00  0.00     0.283 C 
HETATM   24  C   UNL     1      18.229  43.153   0.978  1.00  0.00     0.283 C 
HETATM   25  C   UNL     1      15.715  35.908   2.365  1.00  0.00     0.153 C 
HETATM   26  C   UNL     1      21.064  41.309   2.748  1.00  0.00     0.153 C 
HETATM   27  C   UNL     1      17.079  41.202   3.220  1.00  0.00     0.153 C 
ENDROOT
BRANCH  16  28
HETATM   28  C   UNL     1      18.884  34.853   1.948  1.00  0.00     0.016 C 
HETATM   29  C   UNL     1      19.170  34.606   0.467  1.00  0.00     0.012 C 
HETATM   30  C   UNL     1      20.033  34.328   2.809  1.00  0.00     0.012 C 
ENDBRANCH  16  28
BRANCH  14  31
HETATM   31  C   UNL     1      22.433  38.796   3.270  1.00  0.00     0.010 C 
HETATM   32  C   UNL     1      22.391  37.449   3.989  1.00  0.00     0.012 C 
HETATM   33  C   UNL     1      23.812  39.034   2.658  1.00  0.00     0.012 C 
ENDBRANCH  14  31
BRANCH  13  34
HETATM   34  C   UNL     1      14.318  36.179  -0.181  1.00  0.00     0.010 C 
HETATM   35  C   UNL     1      14.854  34.766  -0.408  1.00  0.00     0.012 C 
HETATM   36  C   UNL     1      13.568  36.670  -1.417  1.00  0.00     0.012 C 
ENDBRANCH  13  34
BRANCH  18  37
HETATM   37  C   UNL     1      19.704  41.842  -1.448  1.00  0.00     0.016 C 
HETATM   38  C   UNL     1      18.216  41.713  -1.776  1.00  0.00     0.012 C 
HETATM   39  C   UNL     1      20.261  43.153  -1.999  1.00  0.00     0.012 C 
ENDBRANCH  18  37
BRANCH  17  40
HETATM   40  C   UNL     1      13.034  40.116   2.216  1.00  0.00     0.016 C 
HETATM   41  C   UNL     1      12.453  41.271   3.030  1.00  0.00     0.012 C 
HETATM   42  C   UNL     1      12.497  38.779   2.724  1.00  0.00     0.012 C 
ENDBRANCH  17  40
BRANCH  15  43
HETATM   43  C   UNL     1      16.889  44.183   2.835  1.00  0.00     0.010 C 
HETATM   44  C   UNL     1      16.975  45.610   2.301  1.00  0.00     0.012 C 
HETATM   45  C   UNL     1      15.652  44.008   3.710  1.00  0.00     0.012 C 
ENDBRANCH  15  43
TORSDOF 6
ENDMDL
MODEL 11
REMARK VINA RESULT:    -4.793      2.916      7.545
REMARK INTER + INTRA:          -5.604
REMARK INTER:                  -7.396
REMARK INTRA:                   1.792
REMARK UNBOUND:                 0.870
REMARK  6 active torsions:
REMARK  status: ('A' for Active; 'I' for Inactive)
REMARK    1  A    between atoms: C_13  and  C_16 
REMARK    2  A    between atoms: C_14  and  C_17 
REMARK    3  A    between atoms: C_15  and  C_18 
REMARK    4  A    between atoms: C_19  and  C_22 
REMARK    5  A    between atoms: C_20  and  C_23 
REMARK    6  A    between atoms: C_21  and  C_24 
ROOT
HETATM    1  O   UNL     1      17.808  34.366  -1.323  1.00  0.00    -0.304 OA
HETATM    2  O   UNL     1      20.430  37.130   2.181  1.00  0.00    -0.304 OA
HETATM    3  O   UNL     1      23.007  34.563  -0.840  1.00  0.00    -0.304 OA
HETATM    4  O   UNL     1      19.193  36.553  -1.182  1.00  0.00    -0.270 OA
HETATM    5  O   UNL     1      20.749  34.914  -3.070  1.00  0.00    -0.270 OA
HETATM    6  O   UNL     1      23.666  37.305   2.138  1.00  0.00    -0.270 OA
HETATM    7  O   UNL     1      19.070  33.254   0.255  1.00  0.00    -0.263 OA
HETATM    8  O   UNL     1      21.399  39.080   1.433  1.00  0.00    -0.263 OA
HETATM    9  O   UNL     1      25.169  33.790  -0.795  1.00  0.00    -0.263 OA
HETATM   10  N   UNL     1      18.238  37.392   0.750  1.00  0.00    -0.340 N 
HETATM   11  N   UNL     1      20.789  32.868  -1.976  1.00  0.00    -0.340 N 
HETATM   12  N   UNL     1      22.917  35.132   1.780  1.00  0.00    -0.340 N 
HETATM   13  C   UNL     1      19.156  38.551   0.723  1.00  0.00     0.190 C 
HETATM   14  C   UNL     1      19.323  32.738  -2.110  1.00  0.00     0.190 C 
HETATM   15  C   UNL     1      24.216  34.686   1.236  1.00  0.00     0.190 C 
HETATM   16  C   UNL     1      17.329  35.311  -0.341  1.00  0.00     0.227 C 
HETATM   17  C   UNL     1      21.512  36.769   3.055  1.00  0.00     0.227 C 
HETATM   18  C   UNL     1      22.883  34.227  -2.235  1.00  0.00     0.227 C 
HETATM   19  C   UNL     1      18.336  36.464  -0.296  1.00  0.00     0.250 C 
HETATM   20  C   UNL     1      21.386  34.041  -2.471  1.00  0.00     0.250 C 
HETATM   21  C   UNL     1      22.795  36.441   2.278  1.00  0.00     0.250 C 
HETATM   22  C   UNL     1      18.733  33.451  -0.905  1.00  0.00     0.283 C 
HETATM   23  C   UNL     1      20.464  38.287   1.466  1.00  0.00     0.283 C 
HETATM   24  C   UNL     1      24.194  34.280  -0.235  1.00  0.00     0.283 C 
HETATM   25  C   UNL     1      17.318  37.273   1.885  1.00  0.00     0.153 C 
HETATM   26  C   UNL     1      21.514  31.784  -1.307  1.00  0.00     0.153 C 
HETATM   27  C   UNL     1      21.867  34.123   1.937  1.00  0.00     0.153 C 
ENDROOT
BRANCH  16  28
HETATM   28  C   UNL     1      15.973  35.800  -0.826  1.00  0.00     0.016 C 
HETATM   29  C   UNL     1      14.940  35.729   0.298  1.00  0.00     0.012 C 
HETATM   30  C   UNL     1      16.074  37.225  -1.368  1.00  0.00     0.012 C 
ENDBRANCH  16  28
BRANCH  14  31
HETATM   31  C   UNL     1      18.784  31.315  -2.196  1.00  0.00     0.010 C 
HETATM   32  C   UNL     1      17.260  31.324  -2.296  1.00  0.00     0.012 C 
HETATM   33  C   UNL     1      19.395  30.580  -3.386  1.00  0.00     0.012 C 
ENDBRANCH  14  31
BRANCH  13  34
HETATM   34  C   UNL     1      18.526  39.847   1.233  1.00  0.00     0.010 C 
HETATM   35  C   UNL     1      18.730  40.978   0.226  1.00  0.00     0.012 C 
HETATM   36  C   UNL     1      19.105  40.232   2.593  1.00  0.00     0.012 C 
ENDBRANCH  13  34
BRANCH  18  37
HETATM   37  C   UNL     1      23.446  35.376  -3.067  1.00  0.00     0.016 C 
HETATM   38  C   UNL     1      23.705  36.600  -2.188  1.00  0.00     0.012 C 
HETATM   39  C   UNL     1      24.727  34.950  -3.781  1.00  0.00     0.012 C 
ENDBRANCH  18  37
BRANCH  17  40
HETATM   40  C   UNL     1      21.735  37.818   4.145  1.00  0.00     0.016 C 
HETATM   41  C   UNL     1      23.045  37.554   4.885  1.00  0.00     0.012 C 
HETATM   42  C   UNL     1      20.561  37.836   5.122  1.00  0.00     0.012 C 
ENDBRANCH  17  40
BRANCH  15  43
HETATM   43  C   UNL     1      24.824  33.572   2.090  1.00  0.00     0.010 C 
HETATM   44  C   UNL     1      24.705  32.228   1.376  1.00  0.00     0.012 C 
HETATM   45  C   UNL     1      26.282  33.883   2.414  1.00  0.00     0.012 C 
ENDBRANCH  15  43
TORSDOF 6
ENDMDL
MODEL 12
REMARK VINA RESULT:    -4.777      4.923      8.811
REMARK INTER + INTRA:          -5.582
REMARK INTER:                  -6.611
REMARK INTRA:                   1.029
REMARK UNBOUND:                 0.870
REMARK  6 active torsions:
REMARK  status: ('A' for Active; 'I' for Inactive)
REMARK    1  A    between atoms: C_13  and  C_16 
REMARK    2  A    between atoms: C_14  and  C_17 
REMARK    3  A    between atoms: C_15  and  C_18 
REMARK    4  A    between atoms: C_19  and  C_22 
REMARK    5  A    between atoms: C_20  and  C_23 
REMARK    6  A    between atoms: C_21  and  C_24 
ROOT
HETATM    1  O   UNL     1      12.216  41.022   2.721  1.00  0.00    -0.304 OA
HETATM    2  O   UNL     1      14.736  44.670   5.391  1.00  0.00    -0.304 OA
HETATM    3  O   UNL     1      16.357  43.735   1.049  1.00  0.00    -0.304 OA
HETATM    4  O   UNL     1      12.419  43.605   2.809  1.00  0.00    -0.270 OA
HETATM    5  O   UNL     1      13.404  42.963   0.109  1.00  0.00    -0.270 OA
HETATM    6  O   UNL     1      17.127  46.409   4.062  1.00  0.00    -0.270 OA
HETATM    7  O   UNL     1      14.414  40.650   3.312  1.00  0.00    -0.263 OA
HETATM    8  O   UNL     1      14.294  46.854   4.813  1.00  0.00    -0.263 OA
HETATM    9  O   UNL     1      18.366  44.120   0.007  1.00  0.00    -0.263 OA
HETATM   10  N   UNL     1      12.256  43.843   5.104  1.00  0.00    -0.340 N 
HETATM   11  N   UNL     1      14.828  41.185   0.551  1.00  0.00    -0.340 N 
HETATM   12  N   UNL     1      17.302  44.152   3.525  1.00  0.00    -0.340 N 
HETATM   13  C   UNL     1      12.455  45.303   4.986  1.00  0.00     0.190 C 
HETATM   14  C   UNL     1      13.693  40.355   1.007  1.00  0.00     0.190 C 
HETATM   15  C   UNL     1      18.229  44.408   2.402  1.00  0.00     0.190 C 
HETATM   16  C   UNL     1      11.918  41.598   4.012  1.00  0.00     0.227 C 
HETATM   17  C   UNL     1      16.140  44.875   5.624  1.00  0.00     0.227 C 
HETATM   18  C   UNL     1      15.735  43.399  -0.206  1.00  0.00     0.227 C 
HETATM   19  C   UNL     1      12.223  43.095   3.919  1.00  0.00     0.250 C 
HETATM   20  C   UNL     1      14.551  42.506   0.159  1.00  0.00     0.250 C 
HETATM   21  C   UNL     1      16.891  45.227   4.332  1.00  0.00     0.250 C 
HETATM   22  C   UNL     1      13.515  40.672   2.482  1.00  0.00     0.283 C 
HETATM   23  C   UNL     1      13.928  45.705   5.034  1.00  0.00     0.283 C 
HETATM   24  C   UNL     1      17.678  44.062   1.020  1.00  0.00     0.283 C 
HETATM   25  C   UNL     1      12.144  43.274   6.450  1.00  0.00     0.153 C 
HETATM   26  C   UNL     1      16.166  40.587   0.574  1.00  0.00     0.153 C 
HETATM   27  C   UNL     1      16.999  42.756   3.847  1.00  0.00     0.153 C 
ENDROOT
BRANCH  16  28
HETATM   28  C   UNL     1      10.436  41.366   4.266  1.00  0.00     0.016 C 
HETATM   29  C   UNL     1       9.589  42.322   3.428  1.00  0.00     0.012 C 
HETATM   30  C   UNL     1      10.057  39.915   3.967  1.00  0.00     0.012 C 
ENDBRANCH  16  28
BRANCH  14  31
HETATM   31  C   UNL     1      13.842  38.852   0.806  1.00  0.00     0.010 C 
HETATM   32  C   UNL     1      13.026  38.088   1.846  1.00  0.00     0.012 C 
HETATM   33  C   UNL     1      13.419  38.454  -0.606  1.00  0.00     0.012 C 
ENDBRANCH  14  31
BRANCH  13  34
HETATM   34  C   UNL     1      11.666  46.117   6.011  1.00  0.00     0.010 C 
HETATM   35  C   UNL     1      10.804  47.170   5.314  1.00  0.00     0.012 C 
HETATM   36  C   UNL     1      12.605  46.777   7.018  1.00  0.00     0.012 C 
ENDBRANCH  13  34
BRANCH  18  37
HETATM   37  C   UNL     1      15.280  44.688  -0.886  1.00  0.00     0.016 C 
HETATM   38  C   UNL     1      15.375  45.869   0.079  1.00  0.00     0.012 C 
HETATM   39  C   UNL     1      16.107  44.956  -2.143  1.00  0.00     0.012 C 
ENDBRANCH  18  37
BRANCH  17  40
HETATM   40  C   UNL     1      16.389  45.884   6.745  1.00  0.00     0.016 C 
HETATM   41  C   UNL     1      17.882  46.166   6.893  1.00  0.00     0.012 C 
HETATM   42  C   UNL     1      15.804  45.378   8.062  1.00  0.00     0.012 C 
ENDBRANCH  17  40
BRANCH  15  43
HETATM   43  C   UNL     1      19.577  43.724   2.628  1.00  0.00     0.010 C 
HETATM   44  C   UNL     1      20.114  44.048   4.019  1.00  0.00     0.012 C 
HETATM   45  C   UNL     1      19.449  42.215   2.438  1.00  0.00     0.012 C 
ENDBRANCH  15  43
TORSDOF 6
ENDMDL
MODEL 13
REMARK VINA RESULT:    -4.775      2.261      6.781
REMARK INTER + INTRA:          -5.580
REMARK INTER:                  -6.417
REMARK INTRA:                   0.837
REMARK UNBOUND:                 0.870
REMARK  6 active torsions:
REMARK  status: ('A' for Active; 'I' for Inactive)
REMARK    1  A    between atoms: C_13  and  C_16 
REMARK    2  A    between atoms: C_14  and  C_17 
REMARK    3  A    between atoms: C_15  and  C_18 
REMARK    4  A    between atoms: C_19  and  C_22 
REMARK    5  A    between atoms: C_20  and  C_23 
REMARK    6  A    between atoms: C_21  and  C_24 
ROOT
HETATM    1  O   UNL     1      20.785  40.508  -1.367  1.00  0.00    -0.304 OA
HETATM    2  O   UNL     1      16.252  39.695   0.994  1.00  0.00    -0.304 OA
HETATM    3  O   UNL     1      19.124  35.960   0.598  1.00  0.00    -0.304 OA
HETATM    4  O   UNL     1      19.846  40.193   1.029  1.00  0.00    -0.270 OA
HETATM    5  O   UNL     1      21.662  37.893   0.730  1.00  0.00    -0.270 OA
HETATM    6  O   UNL     1      15.531  36.848   2.365  1.00  0.00    -0.270 OA
HETATM    7  O   UNL     1      19.261  39.080  -2.345  1.00  0.00    -0.263 OA
HETATM    8  O   UNL     1      16.302  39.556   3.291  1.00  0.00    -0.263 OA
HETATM    9  O   UNL     1      18.776  33.693   0.710  1.00  0.00    -0.263 OA
HETATM   10  N   UNL     1      18.037  41.620   0.835  1.00  0.00    -0.340 N 
HETATM   11  N   UNL     1      21.081  37.122  -1.380  1.00  0.00    -0.340 N 
HETATM   12  N   UNL     1      16.531  36.572   0.283  1.00  0.00    -0.340 N 
HETATM   13  C   UNL     1      17.595  41.277   2.203  1.00  0.00     0.190 C 
HETATM   14  C   UNL     1      21.564  38.373  -2.000  1.00  0.00     0.190 C 
HETATM   15  C   UNL     1      16.858  35.153   0.537  1.00  0.00     0.190 C 
HETATM   16  C   UNL     1      19.747  41.445  -1.008  1.00  0.00     0.227 C 
HETATM   17  C   UNL     1      15.263  38.666   0.819  1.00  0.00     0.227 C 
HETATM   18  C   UNL     1      20.551  35.776   0.672  1.00  0.00     0.227 C 
HETATM   19  C   UNL     1      19.218  41.026   0.367  1.00  0.00     0.250 C 
HETATM   20  C   UNL     1      21.150  37.021   0.021  1.00  0.00     0.250 C 
HETATM   21  C   UNL     1      15.789  37.286   1.240  1.00  0.00     0.250 C 
HETATM   22  C   UNL     1      20.391  39.337  -1.952  1.00  0.00     0.283 C 
HETATM   23  C   UNL     1      16.659  40.070   2.237  1.00  0.00     0.283 C 
HETATM   24  C   UNL     1      18.351  34.839   0.611  1.00  0.00     0.283 C 
HETATM   25  C   UNL     1      17.193  42.525   0.049  1.00  0.00     0.153 C 
HETATM   26  C   UNL     1      20.531  36.088  -2.262  1.00  0.00     0.153 C 
HETATM   27  C   UNL     1      16.846  37.112  -1.042  1.00  0.00     0.153 C 
ENDROOT
BRANCH  16  28
HETATM   28  C   UNL     1      20.398  42.818  -0.938  1.00  0.00     0.016 C 
HETATM   29  C   UNL     1      21.913  42.690  -0.788  1.00  0.00     0.012 C 
HETATM   30  C   UNL     1      20.052  43.644  -2.177  1.00  0.00     0.012 C 
ENDBRANCH  16  28
BRANCH  14  31
HETATM   31  C   UNL     1      22.089  38.253  -3.425  1.00  0.00     0.010 C 
HETATM   32  C   UNL     1      22.067  39.611  -4.122  1.00  0.00     0.012 C 
HETATM   33  C   UNL     1      23.500  37.669  -3.431  1.00  0.00     0.012 C 
ENDBRANCH  14  31
BRANCH  13  34
HETATM   34  C   UNL     1      16.957  42.444   2.955  1.00  0.00     0.010 C 
HETATM   35  C   UNL     1      17.909  42.980   4.025  1.00  0.00     0.012 C 
HETATM   36  C   UNL     1      15.631  42.023   3.584  1.00  0.00     0.012 C 
ENDBRANCH  13  34
BRANCH  18  37
HETATM   37  C   UNL     1      20.953  35.658   2.140  1.00  0.00     0.016 C 
HETATM   38  C   UNL     1      19.779  36.020   3.050  1.00  0.00     0.012 C 
HETATM   39  C   UNL     1      21.456  34.250   2.451  1.00  0.00     0.012 C 
ENDBRANCH  18  37
BRANCH  17  40
HETATM   40  C   UNL     1      13.942  39.026   1.499  1.00  0.00     0.016 C 
HETATM   41  C   UNL     1      12.901  37.933   1.264  1.00  0.00     0.012 C 
HETATM   42  C   UNL     1      13.429  40.373   0.995  1.00  0.00     0.012 C 
ENDBRANCH  17  40
BRANCH  15  43
HETATM   43  C   UNL     1      16.167  34.234  -0.470  1.00  0.00     0.010 C 
HETATM   44  C   UNL     1      17.142  33.817  -1.568  1.00  0.00     0.012 C 
HETATM   45  C   UNL     1      15.591  33.009   0.233  1.00  0.00     0.012 C 
ENDBRANCH  15  43
TORSDOF 6
ENDMDL
MODEL 14
REMARK VINA RESULT:    -4.770      2.178      6.378
REMARK INTER + INTRA:          -5.573
REMARK INTER:                  -6.639
REMARK INTRA:                   1.066
REMARK UNBOUND:                 0.870
REMARK  6 active torsions:
REMARK  status: ('A' for Active; 'I' for Inactive)
REMARK    1  A    between atoms: C_13  and  C_16 
REMARK    2  A    between atoms: C_14  and  C_17 
REMARK    3  A    between atoms: C_15  and  C_18 
REMARK    4  A    between atoms: C_19  and  C_22 
REMARK    5  A    between atoms: C_20  and  C_23 
REMARK    6  A    between atoms: C_21  and  C_24 
ROOT
HETATM    1  O   UNL     1      15.663  36.995   0.405  1.00  0.00    -0.304 OA
HETATM    2  O   UNL     1      19.463  40.325   1.527  1.00  0.00    -0.304 OA
HETATM    3  O   UNL     1      20.710  36.410  -0.812  1.00  0.00    -0.304 OA
HETATM    4  O   UNL     1      17.112  38.792  -0.774  1.00  0.00    -0.270 OA
HETATM    5  O   UNL     1      17.839  36.323  -2.205  1.00  0.00    -0.270 OA
HETATM    6  O   UNL     1      22.489  39.883   0.451  1.00  0.00    -0.270 OA
HETATM    7  O   UNL     1      17.339  36.328   1.842  1.00  0.00    -0.263 OA
HETATM    8  O   UNL     1      20.203  41.656  -0.200  1.00  0.00    -0.263 OA
HETATM    9  O   UNL     1      22.715  35.329  -1.107  1.00  0.00    -0.263 OA
HETATM   10  N   UNL     1      16.926  40.438   0.840  1.00  0.00    -0.340 N 
HETATM   11  N   UNL     1      18.158  34.848  -0.443  1.00  0.00    -0.340 N 
HETATM   12  N   UNL     1      21.560  37.904   1.248  1.00  0.00    -0.340 N 
HETATM   13  C   UNL     1      17.831  41.320   0.072  1.00  0.00     0.190 C 
HETATM   14  C   UNL     1      16.733  34.946  -0.067  1.00  0.00     0.190 C 
HETATM   15  C   UNL     1      22.568  37.063   0.570  1.00  0.00     0.190 C 
HETATM   16  C   UNL     1      15.599  38.304   1.013  1.00  0.00     0.227 C 
HETATM   17  C   UNL     1      20.763  40.120   2.105  1.00  0.00     0.227 C 
HETATM   18  C   UNL     1      20.095  35.615  -1.843  1.00  0.00     0.227 C 
HETATM   19  C   UNL     1      16.612  39.190   0.284  1.00  0.00     0.250 C 
HETATM   20  C   UNL     1      18.602  35.630  -1.524  1.00  0.00     0.250 C 
HETATM   21  C   UNL     1      21.680  39.303   1.182  1.00  0.00     0.250 C 
HETATM   22  C   UNL     1      16.631  36.145   0.861  1.00  0.00     0.283 C 
HETATM   23  C   UNL     1      19.301  41.114   0.430  1.00  0.00     0.283 C 
HETATM   24  C   UNL     1      22.019  36.158  -0.530  1.00  0.00     0.283 C 
HETATM   25  C   UNL     1      16.452  40.911   2.143  1.00  0.00     0.153 C 
HETATM   26  C   UNL     1      19.019  33.972   0.359  1.00  0.00     0.153 C 
HETATM   27  C   UNL     1      20.583  37.230   2.106  1.00  0.00     0.153 C 
ENDROOT
BRANCH  16  28
HETATM   28  C   UNL     1      14.183  38.818   0.801  1.00  0.00     0.016 C 
HETATM   29  C   UNL     1      13.589  38.250  -0.487  1.00  0.00     0.012 C 
HETATM   30  C   UNL     1      13.296  38.470   1.997  1.00  0.00     0.012 C 
ENDBRANCH  16  28
BRANCH  14  31
HETATM   31  C   UNL     1      16.131  33.714   0.597  1.00  0.00     0.010 C 
HETATM   32  C   UNL     1      15.282  34.114   1.802  1.00  0.00     0.012 C 
HETATM   33  C   UNL     1      15.298  32.917  -0.404  1.00  0.00     0.012 C 
ENDBRANCH  14  31
BRANCH  13  34
HETATM   34  C   UNL     1      17.478  42.803   0.175  1.00  0.00     0.010 C 
HETATM   35  C   UNL     1      16.692  43.257  -1.054  1.00  0.00     0.012 C 
HETATM   36  C   UNL     1      18.739  43.649   0.345  1.00  0.00     0.012 C 
ENDBRANCH  13  34
BRANCH  18  37
HETATM   37  C   UNL     1      20.389  36.258  -3.196  1.00  0.00     0.016 C 
HETATM   38  C   UNL     1      20.975  37.657  -3.012  1.00  0.00     0.012 C 
HETATM   39  C   UNL     1      21.336  35.384  -4.016  1.00  0.00     0.012 C 
ENDBRANCH  18  37
BRANCH  17  40
HETATM   40  C   UNL     1      21.399  41.436   2.554  1.00  0.00     0.016 C 
HETATM   41  C   UNL     1      22.620  41.171   3.432  1.00  0.00     0.012 C 
HETATM   42  C   UNL     1      20.380  42.298   3.297  1.00  0.00     0.012 C 
ENDBRANCH  17  40
BRANCH  15  43
HETATM   43  C   UNL     1      23.381  36.249   1.578  1.00  0.00     0.010 C 
HETATM   44  C   UNL     1      22.904  34.799   1.600  1.00  0.00     0.012 C 
HETATM   45  C   UNL     1      24.868  36.322   1.247  1.00  0.00     0.012 C 
ENDBRANCH  15  43
TORSDOF 6
ENDMDL
MODEL 15
REMARK VINA RESULT:    -4.654      1.991      6.580
REMARK INTER + INTRA:          -5.417
REMARK INTER:                  -6.408
REMARK INTRA:                   0.992
REMARK UNBOUND:                 0.870
REMARK  6 active torsions:
REMARK  status: ('A' for Active; 'I' for Inactive)
REMARK    1  A    between atoms: C_13  and  C_16 
REMARK    2  A    between atoms: C_14  and  C_17 
REMARK    3  A    between atoms: C_15  and  C_18 
REMARK    4  A    between atoms: C_19  and  C_22 
REMARK    5  A    between atoms: C_20  and  C_23 
REMARK    6  A    between atoms: C_21  and  C_24 
ROOT
HETATM    1  O   UNL     1      21.625  39.208   2.584  1.00  0.00    -0.304 OA
HETATM    2  O   UNL     1      17.528  36.505   0.944  1.00  0.00    -0.304 OA
HETATM    3  O   UNL     1      18.407  40.573  -1.299  1.00  0.00    -0.304 OA
HETATM    4  O   UNL     1      20.952  37.662   0.616  1.00  0.00    -0.270 OA
HETATM    5  O   UNL     1      21.528  40.217  -0.729  1.00  0.00    -0.270 OA
HETATM    6  O   UNL     1      15.815  37.414  -1.653  1.00  0.00    -0.270 OA
HETATM    7  O   UNL     1      19.521  40.123   2.820  1.00  0.00    -0.263 OA
HETATM    8  O   UNL     1      17.800  35.310  -1.005  1.00  0.00    -0.263 OA
HETATM    9  O   UNL     1      17.121  41.953  -2.610  1.00  0.00    -0.263 OA
HETATM   10  N   UNL     1      19.939  36.002   1.868  1.00  0.00    -0.340 N 
HETATM   11  N   UNL     1      20.409  41.719   0.642  1.00  0.00    -0.340 N 
HETATM   12  N   UNL     1      16.324  39.223  -0.281  1.00  0.00    -0.340 N 
HETATM   13  C   UNL     1      19.566  35.273   0.637  1.00  0.00     0.190 C 
HETATM   14  C   UNL     1      21.307  41.400   1.770  1.00  0.00     0.190 C 
HETATM   15  C   UNL     1      16.029  40.212  -1.339  1.00  0.00     0.190 C 
HETATM   16  C   UNL     1      21.154  37.904   2.987  1.00  0.00     0.227 C 
HETATM   17  C   UNL     1      16.176  36.908   0.666  1.00  0.00     0.227 C 
HETATM   18  C   UNL     1      19.607  41.266  -1.693  1.00  0.00     0.227 C 
HETATM   19  C   UNL     1      20.673  37.187   1.723  1.00  0.00     0.250 C 
HETATM   20  C   UNL     1      20.602  41.018  -0.562  1.00  0.00     0.250 C 
HETATM   21  C   UNL     1      16.095  37.859  -0.536  1.00  0.00     0.250 C 
HETATM   22  C   UNL     1      20.690  40.197   2.463  1.00  0.00     0.283 C 
HETATM   23  C   UNL     1      18.210  35.703   0.082  1.00  0.00     0.283 C 
HETATM   24  C   UNL     1      17.230  41.024  -1.816  1.00  0.00     0.283 C 
HETATM   25  C   UNL     1      19.484  35.457   3.150  1.00  0.00     0.153 C 
HETATM   26  C   UNL     1      19.357  42.715   0.865  1.00  0.00     0.153 C 
HETATM   27  C   UNL     1      16.674  39.734   1.045  1.00  0.00     0.153 C 
ENDROOT
BRANCH  16  28
HETATM   28  C   UNL     1      22.342  37.176   3.599  1.00  0.00     0.016 C 
HETATM   29  C   UNL     1      23.461  37.012   2.571  1.00  0.00     0.012 C 
HETATM   30  C   UNL     1      22.854  37.918   4.833  1.00  0.00     0.012 C 
ENDBRANCH  16  28
BRANCH  14  31
HETATM   31  C   UNL     1      21.543  42.522   2.774  1.00  0.00     0.010 C 
HETATM   32  C   UNL     1      22.288  41.998   4.000  1.00  0.00     0.012 C 
HETATM   33  C   UNL     1      22.316  43.668   2.127  1.00  0.00     0.012 C 
ENDBRANCH  14  31
BRANCH  13  34
HETATM   34  C   UNL     1      19.603  33.753   0.786  1.00  0.00     0.010 C 
HETATM   35  C   UNL     1      20.484  33.126  -0.294  1.00  0.00     0.012 C 
HETATM   36  C   UNL     1      18.192  33.169   0.730  1.00  0.00     0.012 C 
ENDBRANCH  13  34
BRANCH  18  37
HETATM   37  C   UNL     1      20.098  40.680  -3.015  1.00  0.00     0.016 C 
HETATM   38  C   UNL     1      19.337  39.397  -3.350  1.00  0.00     0.012 C 
HETATM   39  C   UNL     1      19.954  41.698  -4.144  1.00  0.00     0.012 C 
ENDBRANCH  18  37
BRANCH  17  40
HETATM   40  C   UNL     1      15.242  35.705   0.531  1.00  0.00     0.016 C 
HETATM   41  C   UNL     1      13.817  36.163   0.224  1.00  0.00     0.012 C 
HETATM   42  C   UNL     1      15.271  34.857   1.800  1.00  0.00     0.012 C 
ENDBRANCH  17  40
BRANCH  15  43
HETATM   43  C   UNL     1      14.885  41.140  -0.927  1.00  0.00     0.010 C 
HETATM   44  C   UNL     1      13.679  40.327  -0.463  1.00  0.00     0.012 C 
HETATM   45  C   UNL     1      15.342  42.098   0.168  1.00  0.00     0.012 C 
ENDBRANCH  15  43
TORSDOF 6
ENDMDL
MODEL 16
REMARK VINA RESULT:    -4.521      3.171      7.501
REMARK INTER + INTRA:          -5.237
REMARK INTER:                  -6.579
REMARK INTRA:                   1.342
REMARK UNBOUND:                 0.870
REMARK  6 active torsions:
REMARK  status: ('A' for Active; 'I' for Inactive)
REMARK    1  A    between atoms: C_13  and  C_16 
REMARK    2  A    between atoms: C_14  and  C_17 
REMARK    3  A    between atoms: C_15  and  C_18 
REMARK    4  A    between atoms: C_19  and  C_22 
REMARK    5  A    between atoms: C_20  and  C_23 
REMARK    6  A    between atoms: C_21  and  C_24 
ROOT
HETATM    1  O   UNL     1      22.747  36.965   0.906  1.00  0.00    -0.304 OA
HETATM    2  O   UNL     1      21.250  33.097  -2.189  1.00  0.00    -0.304 OA
HETATM    3  O   UNL     1      17.866  36.053  -0.719  1.00  0.00    -0.304 OA
HETATM    4  O   UNL     1      22.064  36.577  -1.564  1.00  0.00    -0.270 OA
HETATM    5  O   UNL     1      19.992  38.432  -0.596  1.00  0.00    -0.270 OA
HETATM    6  O   UNL     1      18.206  32.867  -3.279  1.00  0.00    -0.270 OA
HETATM    7  O   UNL     1      21.314  35.363   1.741  1.00  0.00    -0.263 OA
HETATM    8  O   UNL     1      20.843  33.641  -4.389  1.00  0.00    -0.263 OA
HETATM    9  O   UNL     1      15.579  35.882  -0.590  1.00  0.00    -0.263 OA
HETATM   10  N   UNL     1      23.334  34.681  -1.935  1.00  0.00    -0.340 N 
HETATM   11  N   UNL     1      19.428  37.468   1.437  1.00  0.00    -0.340 N 
HETATM   12  N   UNL     1      18.273  33.418  -1.020  1.00  0.00    -0.340 N 
HETATM   13  C   UNL     1      22.792  34.561  -3.305  1.00  0.00     0.190 C 
HETATM   14  C   UNL     1      20.782  37.727   1.967  1.00  0.00     0.190 C 
HETATM   15  C   UNL     1      16.869  33.882  -1.008  1.00  0.00     0.190 C 
HETATM   16  C   UNL     1      23.537  35.968   0.221  1.00  0.00     0.227 C 
HETATM   17  C   UNL     1      20.163  32.162  -2.080  1.00  0.00     0.227 C 
HETATM   18  C   UNL     1      17.804  37.472  -0.477  1.00  0.00     0.227 C 
HETATM   19  C   UNL     1      22.911  35.771  -1.163  1.00  0.00     0.250 C 
HETATM   20  C   UNL     1      19.167  37.838   0.106  1.00  0.00     0.250 C 
HETATM   21  C   UNL     1      18.797  32.852  -2.195  1.00  0.00     0.250 C 
HETATM   22  C   UNL     1      21.624  36.532   1.552  1.00  0.00     0.283 C 
HETATM   23  C   UNL     1      21.510  33.733  -3.363  1.00  0.00     0.283 C 
HETATM   24  C   UNL     1      16.686  35.373  -0.736  1.00  0.00     0.283 C 
HETATM   25  C   UNL     1      24.247  33.633  -1.467  1.00  0.00     0.153 C 
HETATM   26  C   UNL     1      18.461  36.810   2.322  1.00  0.00     0.153 C 
HETATM   27  C   UNL     1      18.993  33.410   0.255  1.00  0.00     0.153 C 
ENDROOT
BRANCH  16  28
HETATM   28  C   UNL     1      24.945  36.530   0.099  1.00  0.00     0.016 C 
HETATM   29  C   UNL     1      24.939  38.047   0.281  1.00  0.00     0.012 C 
HETATM   30  C   UNL     1      25.879  35.874   1.115  1.00  0.00     0.012 C 
ENDBRANCH  16  28
BRANCH  14  31
HETATM   31  C   UNL     1      20.881  37.944   3.471  1.00  0.00     0.010 C 
HETATM   32  C   UNL     1      22.201  37.393   4.008  1.00  0.00     0.012 C 
HETATM   33  C   UNL     1      20.742  39.426   3.811  1.00  0.00     0.012 C 
ENDBRANCH  14  31
BRANCH  13  34
HETATM   34  C   UNL     1      23.798  34.025  -4.322  1.00  0.00     0.010 C 
HETATM   35  C   UNL     1      23.867  34.937  -5.546  1.00  0.00     0.012 C 
HETATM   36  C   UNL     1      23.440  32.599  -4.738  1.00  0.00     0.012 C 
ENDBRANCH  13  34
BRANCH  18  37
HETATM   37  C   UNL     1      17.549  38.182  -1.804  1.00  0.00     0.016 C 
HETATM   38  C   UNL     1      17.238  39.661  -1.572  1.00  0.00     0.012 C 
HETATM   39  C   UNL     1      18.746  38.027  -2.739  1.00  0.00     0.012 C 
ENDBRANCH  18  37
BRANCH  17  40
HETATM   40  C   UNL     1      20.319  30.994  -3.055  1.00  0.00     0.016 C 
HETATM   41  C   UNL     1      19.117  30.056  -2.966  1.00  0.00     0.012 C 
HETATM   42  C   UNL     1      21.615  30.234  -2.780  1.00  0.00     0.012 C 
ENDBRANCH  17  40
BRANCH  15  43
HETATM   43  C   UNL     1      16.018  33.053  -0.046  1.00  0.00     0.010 C 
HETATM   44  C   UNL     1      15.787  33.817   1.256  1.00  0.00     0.012 C 
HETATM   45  C   UNL     1      14.689  32.680  -0.695  1.00  0.00     0.012 C 
ENDBRANCH  15  43
TORSDOF 6
ENDMDL
MODEL 17
REMARK VINA RESULT:    -4.438      1.991      6.367
REMARK INTER + INTRA:          -5.125
REMARK INTER:                  -6.800
REMARK INTRA:                   1.675
REMARK UNBOUND:                 0.870
REMARK  6 active torsions:
REMARK  status: ('A' for Active; 'I' for Inactive)
REMARK    1  A    between atoms: C_13  and  C_16 
REMARK    2  A    between atoms: C_14  and  C_17 
REMARK    3  A    between atoms: C_15  and  C_18 
REMARK    4  A    between atoms: C_19  and  C_22 
REMARK    5  A    between atoms: C_20  and  C_23 
REMARK    6  A    between atoms: C_21  and  C_24 
ROOT
HETATM    1  O   UNL     1      19.191  35.059   0.902  1.00  0.00    -0.304 OA
HETATM    2  O   UNL     1      16.572  39.422   1.841  1.00  0.00    -0.304 OA
HETATM    3  O   UNL     1      20.950  39.917   0.125  1.00  0.00    -0.304 OA
HETATM    4  O   UNL     1      17.909  36.899  -0.398  1.00  0.00    -0.270 OA
HETATM    5  O   UNL     1      20.652  37.151  -1.442  1.00  0.00    -0.270 OA
HETATM    6  O   UNL     1      17.763  42.330   1.045  1.00  0.00    -0.270 OA
HETATM    7  O   UNL     1      19.972  36.498   2.526  1.00  0.00    -0.263 OA
HETATM    8  O   UNL     1      15.676  40.496   0.011  1.00  0.00    -0.263 OA
HETATM    9  O   UNL     1      22.443  41.661   0.113  1.00  0.00    -0.263 OA
HETATM   10  N   UNL     1      16.048  36.996   0.971  1.00  0.00    -0.340 N 
HETATM   11  N   UNL     1      21.895  37.081   0.516  1.00  0.00    -0.340 N 
HETATM   12  N   UNL     1      19.381  40.975   2.026  1.00  0.00    -0.340 N 
HETATM   13  C   UNL     1      15.485  38.096   0.160  1.00  0.00     0.190 C 
HETATM   14  C   UNL     1      21.459  35.694   0.776  1.00  0.00     0.190 C 
HETATM   15  C   UNL     1      20.495  41.812   1.535  1.00  0.00     0.190 C 
HETATM   16  C   UNL     1      17.823  35.245   1.328  1.00  0.00     0.227 C 
HETATM   17  C   UNL     1      16.951  40.626   2.530  1.00  0.00     0.227 C 
HETATM   18  C   UNL     1      21.742  39.191  -0.835  1.00  0.00     0.227 C 
HETATM   19  C   UNL     1      17.272  36.450   0.561  1.00  0.00     0.250 C 
HETATM   20  C   UNL     1      21.380  37.723  -0.625  1.00  0.00     0.250 C 
HETATM   21  C   UNL     1      18.058  41.389   1.788  1.00  0.00     0.250 C 
HETATM   22  C   UNL     1      20.145  35.807   1.530  1.00  0.00     0.283 C 
HETATM   23  C   UNL     1      15.930  39.475   0.643  1.00  0.00     0.283 C 
HETATM   24  C   UNL     1      21.418  41.131   0.527  1.00  0.00     0.283 C 
HETATM   25  C   UNL     1      15.308  36.578   2.165  1.00  0.00     0.153 C 
HETATM   26  C   UNL     1      22.804  37.706   1.482  1.00  0.00     0.153 C 
HETATM   27  C   UNL     1      19.715  39.845   2.895  1.00  0.00     0.153 C 
ENDROOT
BRANCH  16  28
HETATM   28  C   UNL     1      17.069  33.978   0.953  1.00  0.00     0.016 C 
HETATM   29  C   UNL     1      16.344  34.157  -0.380  1.00  0.00     0.012 C 
HETATM   30  C   UNL     1      18.018  32.782   0.889  1.00  0.00     0.012 C 
ENDBRANCH  16  28
BRANCH  14  31
HETATM   31  C   UNL     1      22.438  34.820   1.551  1.00  0.00     0.010 C 
HETATM   32  C   UNL     1      21.703  33.672   2.240  1.00  0.00     0.012 C 
HETATM   33  C   UNL     1      23.527  34.282   0.627  1.00  0.00     0.012 C 
ENDBRANCH  14  31
BRANCH  13  34
HETATM   34  C   UNL     1      13.961  38.059   0.044  1.00  0.00     0.010 C 
HETATM   35  C   UNL     1      13.531  38.081  -1.423  1.00  0.00     0.012 C 
HETATM   36  C   UNL     1      13.332  39.225   0.803  1.00  0.00     0.012 C 
ENDBRANCH  13  34
BRANCH  18  37
HETATM   37  C   UNL     1      21.370  39.669  -2.236  1.00  0.00     0.016 C 
HETATM   38  C   UNL     1      22.093  38.839  -3.297  1.00  0.00     0.012 C 
HETATM   39  C   UNL     1      19.858  39.604  -2.446  1.00  0.00     0.012 C 
ENDBRANCH  18  37
BRANCH  17  40
HETATM   40  C   UNL     1      15.741  41.504   2.847  1.00  0.00     0.016 C 
HETATM   41  C   UNL     1      16.167  42.746   3.627  1.00  0.00     0.012 C 
HETATM   42  C   UNL     1      14.693  40.713   3.628  1.00  0.00     0.012 C 
ENDBRANCH  17  40
BRANCH  15  43
HETATM   43  C   UNL     1      21.306  42.394   2.695  1.00  0.00     0.010 C 
HETATM   44  C   UNL     1      20.393  43.147   3.659  1.00  0.00     0.012 C 
HETATM   45  C   UNL     1      22.065  41.288   3.423  1.00  0.00     0.012 C 
ENDBRANCH  15  43
TORSDOF 6
ENDMDL
MODEL 18
REMARK VINA RESULT:    -4.422      3.954      6.571
REMARK INTER + INTRA:          -5.104
REMARK INTER:                  -5.907
REMARK INTRA:                   0.804
REMARK UNBOUND:                 0.870
REMARK  6 active torsions:
REMARK  status: ('A' for Active; 'I' for Inactive)
REMARK    1  A    between atoms: C_13  and  C_16 
REMARK    2  A    between atoms: C_14  and  C_17 
REMARK    3  A    between atoms: C_15  and  C_18 
REMARK    4  A    between atoms: C_19  and  C_22 
REMARK    5  A    between atoms: C_20  and  C_23 
REMARK    6  A    between atoms: C_21  and  C_24 
ROOT
HETATM    1  O   UNL     1      16.884  41.965  -2.227  1.00  0.00    -0.304 OA
HETATM    2  O   UNL     1      16.090  43.955   2.484  1.00  0.00    -0.304 OA
HETATM    3  O   UNL     1      14.068  39.775   1.591  1.00  0.00    -0.304 OA
HETATM    4  O   UNL     1      17.708  41.636   0.209  1.00  0.00    -0.270 OA
HETATM    5  O   UNL     1      16.448  39.048  -0.410  1.00  0.00    -0.270 OA
HETATM    6  O   UNL     1      14.517  42.304   4.788  1.00  0.00    -0.270 OA
HETATM    7  O   UNL     1      14.740  42.549  -1.613  1.00  0.00    -0.263 OA
HETATM    8  O   UNL     1      17.327  43.049   4.202  1.00  0.00    -0.263 OA
HETATM    9  O   UNL     1      12.329  38.633   2.563  1.00  0.00    -0.263 OA
HETATM   10  N   UNL     1      18.039  43.867   0.720  1.00  0.00    -0.340 N 
HETATM   11  N   UNL     1      14.462  39.729  -1.398  1.00  0.00    -0.340 N 
HETATM   12  N   UNL     1      13.456  42.128   2.726  1.00  0.00    -0.340 N 
HETATM   13  C   UNL     1      18.420  43.514   2.104  1.00  0.00     0.190 C 
HETATM   14  C   UNL     1      15.200  40.340  -2.523  1.00  0.00     0.190 C 
HETATM   15  C   UNL     1      12.660  40.955   3.144  1.00  0.00     0.190 C 
HETATM   16  C   UNL     1      17.433  43.155  -1.620  1.00  0.00     0.227 C 
HETATM   17  C   UNL     1      14.887  44.115   3.255  1.00  0.00     0.227 C 
HETATM   18  C   UNL     1      14.462  38.606   0.847  1.00  0.00     0.227 C 
HETATM   19  C   UNL     1      17.732  42.817  -0.156  1.00  0.00     0.250 C 
HETATM   20  C   UNL     1      15.217  39.139  -0.368  1.00  0.00     0.250 C 
HETATM   21  C   UNL     1      14.284  42.764   3.667  1.00  0.00     0.250 C 
HETATM   22  C   UNL     1      15.544  41.750  -2.074  1.00  0.00     0.283 C 
HETATM   23  C   UNL     1      17.223  43.459   3.051  1.00  0.00     0.283 C 
HETATM   24  C   UNL     1      12.979  39.660   2.400  1.00  0.00     0.283 C 
HETATM   25  C   UNL     1      17.972  45.289   0.370  1.00  0.00     0.153 C 
HETATM   26  C   UNL     1      12.998  39.811  -1.414  1.00  0.00     0.153 C 
HETATM   27  C   UNL     1      13.203  42.676   1.392  1.00  0.00     0.153 C 
ENDROOT
BRANCH  16  28
HETATM   28  C   UNL     1      18.716  43.481  -2.370  1.00  0.00     0.016 C 
HETATM   29  C   UNL     1      19.226  42.254  -3.125  1.00  0.00     0.012 C 
HETATM   30  C   UNL     1      18.498  44.648  -3.332  1.00  0.00     0.012 C 
ENDBRANCH  16  28
BRANCH  14  31
HETATM   31  C   UNL     1      14.469  40.376  -3.859  1.00  0.00     0.010 C 
HETATM   32  C   UNL     1      15.105  41.405  -4.791  1.00  0.00     0.012 C 
HETATM   33  C   UNL     1      14.468  38.994  -4.508  1.00  0.00     0.012 C 
ENDBRANCH  14  31
BRANCH  13  34
HETATM   34  C   UNL     1      19.503  44.417   2.694  1.00  0.00     0.010 C 
HETATM   35  C   UNL     1      20.654  43.582   3.254  1.00  0.00     0.012 C 
HETATM   36  C   UNL     1      18.922  45.321   3.779  1.00  0.00     0.012 C 
ENDBRANCH  13  34
BRANCH  18  37
HETATM   37  C   UNL     1      15.356  37.742   1.732  1.00  0.00     0.016 C 
HETATM   38  C   UNL     1      15.841  38.535   2.946  1.00  0.00     0.012 C 
HETATM   39  C   UNL     1      14.619  36.480   2.178  1.00  0.00     0.012 C 
ENDBRANCH  18  37
BRANCH  17  40
HETATM   40  C   UNL     1      15.095  45.055   4.442  1.00  0.00     0.016 C 
HETATM   41  C   UNL     1      13.813  45.175   5.264  1.00  0.00     0.012 C 
HETATM   42  C   UNL     1      15.556  46.431   3.965  1.00  0.00     0.012 C 
ENDBRANCH  17  40
BRANCH  15  43
HETATM   43  C   UNL     1      11.161  41.251   3.086  1.00  0.00     0.010 C 
HETATM   44  C   UNL     1      10.374  40.166   3.816  1.00  0.00     0.012 C 
HETATM   45  C   UNL     1      10.864  42.624   3.681  1.00  0.00     0.012 C 
ENDBRANCH  15  43
TORSDOF 6
ENDMDL
MODEL 19
REMARK VINA RESULT:    -4.397      2.311      7.631
REMARK INTER + INTRA:          -5.070
REMARK INTER:                  -5.900
REMARK INTRA:                   0.831
REMARK UNBOUND:                 0.870
REMARK  6 active torsions:
REMARK  status: ('A' for Active; 'I' for Inactive)
REMARK    1  A    between atoms: C_13  and  C_16 
REMARK    2  A    between atoms: C_14  and  C_17 
REMARK    3  A    between atoms: C_15  and  C_18 
REMARK    4  A    between atoms: C_19  and  C_22 
REMARK    5  A    between atoms: C_20  and  C_23 
REMARK    6  A    between atoms: C_21  and  C_24 
ROOT
HETATM    1  O   UNL     1      16.633  40.212  -3.248  1.00  0.00    -0.304 OA
HETATM    2  O   UNL     1      17.047  37.084   0.854  1.00  0.00    -0.304 OA
HETATM    3  O   UNL     1      20.464  40.305   0.304  1.00  0.00    -0.304 OA
HETATM    4  O   UNL     1      16.264  40.277  -0.683  1.00  0.00    -0.270 OA
HETATM    5  O   UNL     1      18.381  42.283  -1.089  1.00  0.00    -0.270 OA
HETATM    6  O   UNL     1      19.375  37.484   3.074  1.00  0.00    -0.270 OA
HETATM    7  O   UNL     1      18.418  38.756  -3.135  1.00  0.00    -0.263 OA
HETATM    8  O   UNL     1      16.458  37.980   2.891  1.00  0.00    -0.263 OA
HETATM    9  O   UNL     1      22.604  40.478   1.119  1.00  0.00    -0.263 OA
HETATM   10  N   UNL     1      15.125  38.273  -0.491  1.00  0.00    -0.340 N 
HETATM   11  N   UNL     1      19.818  41.151  -2.517  1.00  0.00    -0.340 N 
HETATM   12  N   UNL     1      20.201  37.705   0.911  1.00  0.00    -0.340 N 
HETATM   13  C   UNL     1      15.060  38.428   0.977  1.00  0.00     0.190 C 
HETATM   14  C   UNL     1      18.787  41.120  -3.574  1.00  0.00     0.190 C 
HETATM   15  C   UNL     1      21.437  38.377   1.365  1.00  0.00     0.190 C 
HETATM   16  C   UNL     1      15.722  39.207  -2.754  1.00  0.00     0.227 C 
HETATM   17  C   UNL     1      18.158  36.324   1.359  1.00  0.00     0.227 C 
HETATM   18  C   UNL     1      20.496  41.669  -0.156  1.00  0.00     0.227 C 
HETATM   19  C   UNL     1      15.733  39.300  -1.226  1.00  0.00     0.250 C 
HETATM   20  C   UNL     1      19.470  41.736  -1.286  1.00  0.00     0.250 C 
HETATM   21  C   UNL     1      19.289  37.229   1.869  1.00  0.00     0.250 C 
HETATM   22  C   UNL     1      17.957  39.876  -3.307  1.00  0.00     0.283 C 
HETATM   23  C   UNL     1      16.270  37.826   1.689  1.00  0.00     0.283 C 
HETATM   24  C   UNL     1      21.586  39.827   0.911  1.00  0.00     0.283 C 
HETATM   25  C   UNL     1      14.584  37.042  -1.075  1.00  0.00     0.153 C 
HETATM   26  C   UNL     1      21.117  40.538  -2.810  1.00  0.00     0.153 C 
HETATM   27  C   UNL     1      20.077  37.411  -0.518  1.00  0.00     0.153 C 
ENDROOT
BRANCH  16  28
HETATM   28  C   UNL     1      14.346  39.553  -3.303  1.00  0.00     0.016 C 
HETATM   29  C   UNL     1      14.146  41.067  -3.345  1.00  0.00     0.012 C 
HETATM   30  C   UNL     1      14.151  38.950  -4.694  1.00  0.00     0.012 C 
ENDBRANCH  16  28
BRANCH  14  31
HETATM   31  C   UNL     1      19.301  41.112  -5.008  1.00  0.00     0.010 C 
HETATM   32  C   UNL     1      18.248  40.535  -5.953  1.00  0.00     0.012 C 
HETATM   33  C   UNL     1      19.698  42.520  -5.445  1.00  0.00     0.012 C 
ENDBRANCH  14  31
BRANCH  13  34
HETATM   34  C   UNL     1      13.774  37.884   1.598  1.00  0.00     0.010 C 
HETATM   35  C   UNL     1      13.031  38.986   2.352  1.00  0.00     0.012 C 
HETATM   36  C   UNL     1      14.076  36.711   2.529  1.00  0.00     0.012 C 
ENDBRANCH  13  34
BRANCH  18  37
HETATM   37  C   UNL     1      20.116  42.585   1.005  1.00  0.00     0.016 C 
HETATM   38  C   UNL     1      19.581  41.769   2.182  1.00  0.00     0.012 C 
HETATM   39  C   UNL     1      21.311  43.431   1.439  1.00  0.00     0.012 C 
ENDBRANCH  18  37
BRANCH  17  40
HETATM   40  C   UNL     1      17.716  35.291   2.395  1.00  0.00     0.016 C 
HETATM   41  C   UNL     1      18.911  34.476   2.886  1.00  0.00     0.012 C 
HETATM   42  C   UNL     1      16.643  34.373   1.814  1.00  0.00     0.012 C 
ENDBRANCH  17  40
BRANCH  15  43
HETATM   43  C   UNL     1      22.679  37.568   0.989  1.00  0.00     0.010 C 
HETATM   44  C   UNL     1      23.904  38.097   1.730  1.00  0.00     0.012 C 
HETATM   45  C   UNL     1      22.464  36.088   1.292  1.00  0.00     0.012 C 
ENDBRANCH  15  43
TORSDOF 6
ENDMDL
MODEL 20
REMARK VINA RESULT:    -4.326     13.203     16.046
REMARK INTER + INTRA:          -4.974
REMARK INTER:                  -5.985
REMARK INTRA:                   1.011
REMARK UNBOUND:                 0.870
REMARK  6 active torsions:
REMARK  status: ('A' for Active; 'I' for Inactive)
REMARK    1  A    between atoms: C_13  and  C_16 
REMARK    2  A    between atoms: C_14  and  C_17 
REMARK    3  A    between atoms: C_15  and  C_18 
REMARK    4  A    between atoms: C_19  and  C_22 
REMARK    5  A    between atoms: C_20  and  C_23 
REMARK    6  A    between atoms: C_21  and  C_24 
ROOT
HETATM    1  O   UNL     1       5.701  36.474  -5.883  1.00  0.00    -0.304 OA
HETATM    2  O   UNL     1       3.876  34.255  -1.579  1.00  0.00    -0.304 OA
HETATM    3  O   UNL     1       2.342  38.629  -2.512  1.00  0.00    -0.304 OA
HETATM    4  O   UNL     1       3.537  35.333  -5.027  1.00  0.00    -0.270 OA
HETATM    5  O   UNL     1       2.635  38.068  -5.641  1.00  0.00    -0.270 OA
HETATM    6  O   UNL     1       1.600  35.677   0.238  1.00  0.00    -0.270 OA
HETATM    7  O   UNL     1       6.233  37.403  -3.841  1.00  0.00    -0.263 OA
HETATM    8  O   UNL     1       1.731  33.423  -1.683  1.00  0.00    -0.263 OA
HETATM    9  O   UNL     1       1.385  40.266  -1.216  1.00  0.00    -0.263 OA
HETATM   10  N   UNL     1       4.536  33.510  -4.014  1.00  0.00    -0.340 N 
HETATM   11  N   UNL     1       4.321  39.335  -4.673  1.00  0.00    -0.340 N 
HETATM   12  N   UNL     1       3.236  37.189  -0.432  1.00  0.00    -0.340 N 
HETATM   13  C   UNL     1       3.222  33.029  -3.538  1.00  0.00     0.190 C 
HETATM   14  C   UNL     1       5.314  38.786  -5.620  1.00  0.00     0.190 C 
HETATM   15  C   UNL     1       2.394  38.363  -0.121  1.00  0.00     0.190 C 
HETATM   16  C   UNL     1       5.895  35.135  -5.377  1.00  0.00     0.227 C 
HETATM   17  C   UNL     1       3.763  34.748  -0.233  1.00  0.00     0.227 C 
HETATM   18  C   UNL     1       2.001  39.339  -3.717  1.00  0.00     0.227 C 
HETATM   19  C   UNL     1       4.557  34.676  -4.792  1.00  0.00     0.250 C 
HETATM   20  C   UNL     1       3.002  38.857  -4.764  1.00  0.00     0.250 C 
HETATM   21  C   UNL     1       2.757  35.903  -0.126  1.00  0.00     0.250 C 
HETATM   22  C   UNL     1       5.820  37.500  -4.989  1.00  0.00     0.283 C 
HETATM   23  C   UNL     1       2.842  33.599  -2.173  1.00  0.00     0.283 C 
HETATM   24  C   UNL     1       1.992  39.206  -1.329  1.00  0.00     0.283 C 
HETATM   25  C   UNL     1       5.727  32.758  -3.609  1.00  0.00     0.153 C 
HETATM   26  C   UNL     1       4.787  40.310  -3.682  1.00  0.00     0.153 C 
HETATM   27  C   UNL     1       4.607  37.440  -0.881  1.00  0.00     0.153 C 
ENDROOT
BRANCH  16  28
HETATM   28  C   UNL     1       6.288  34.268  -6.565  1.00  0.00     0.016 C 
HETATM   29  C   UNL     1       5.373  34.540  -7.758  1.00  0.00     0.012 C 
HETATM   30  C   UNL     1       7.749  34.505  -6.947  1.00  0.00     0.012 C 
ENDBRANCH  16  28
BRANCH  14  31
HETATM   31  C   UNL     1       6.484  39.699  -5.964  1.00  0.00     0.010 C 
HETATM   32  C   UNL     1       7.678  38.881  -6.453  1.00  0.00     0.012 C 
HETATM   33  C   UNL     1       6.072  40.727  -7.015  1.00  0.00     0.012 C 
ENDBRANCH  14  31
BRANCH  13  34
HETATM   34  C   UNL     1       3.094  31.506  -3.513  1.00  0.00     0.010 C 
HETATM   35  C   UNL     1       2.677  30.978  -4.885  1.00  0.00     0.012 C 
HETATM   36  C   UNL     1       2.098  31.064  -2.444  1.00  0.00     0.012 C 
ENDBRANCH  13  34
BRANCH  18  37
HETATM   37  C   UNL     1       0.567  38.986  -4.103  1.00  0.00     0.016 C 
HETATM   38  C   UNL     1       0.057  37.813  -3.266  1.00  0.00     0.012 C 
HETATM   39  C   UNL     1      -0.350  40.196  -3.942  1.00  0.00     0.012 C 
ENDBRANCH  18  37
BRANCH  17  40
HETATM   40  C   UNL     1       3.477  33.622   0.762  1.00  0.00     0.016 C 
HETATM   41  C   UNL     1       3.702  34.101   2.194  1.00  0.00     0.012 C 
HETATM   42  C   UNL     1       4.346  32.404   0.459  1.00  0.00     0.012 C 
ENDBRANCH  17  40
BRANCH  15  43
HETATM   43  C   UNL     1       3.038  39.240   0.954  1.00  0.00     0.010 C 
HETATM   44  C   UNL     1       3.635  40.498   0.328  1.00  0.00     0.012 C 
HETATM   45  C   UNL     1       2.017  39.605   2.028  1.00  0.00     0.012 C 
ENDBRANCH  15  43
TORSDOF 6
ENDMDL
