MODEL 1
REMARK VINA RESULT:    -5.150      0.000      0.000
REMARK INTER + INTRA:          -5.834
REMARK INTER:                  -6.957
REMARK INTRA:                   1.122
REMARK UNBOUND:                 1.122
REMARK  6 active torsions:
REMARK  status: ('A' for Active; 'I' for Inactive)
REMARK    1  A    between atoms: C_13  and  C_16 
REMARK    2  A    between atoms: C_14  and  C_17 
REMARK    3  A    between atoms: C_15  and  C_18 
REMARK    4  A    between atoms: C_19  and  C_22 
REMARK    5  A    between atoms: C_20  and  C_23 
REMARK    6  A    between atoms: C_21  and  C_24 
ROOT
HETATM    1  O   UNL     1      46.207  38.188   1.614  1.00  0.00    -0.304 OA
HETATM    2  O   UNL     1      49.948  34.841   2.874  1.00  0.00    -0.304 OA
HETATM    3  O   UNL     1      45.516  33.202   3.017  1.00  0.00    -0.304 OA
HETATM    4  O   UNL     1      47.474  36.177   0.580  1.00  0.00    -0.270 OA
HETATM    5  O   UNL     1      44.692  35.216   0.680  1.00  0.00    -0.270 OA
HETATM    6  O   UNL     1      49.313  31.719   3.468  1.00  0.00    -0.270 OA
HETATM    7  O   UNL     1      46.280  37.358   3.765  1.00  0.00    -0.263 OA
HETATM    8  O   UNL     1      50.525  33.295   1.269  1.00  0.00    -0.263 OA
HETATM    9  O   UNL     1      44.541  31.402   4.056  1.00  0.00    -0.263 OA
HETATM   10  N   UNL     1      49.611  36.825   1.180  1.00  0.00    -0.340 N 
HETATM   11  N   UNL     1      44.068  35.840   2.826  1.00  0.00    -0.340 N 
HETATM   12  N   UNL     1      47.760  33.122   4.484  1.00  0.00    -0.340 N 
HETATM   13  C   UNL     1      50.171  35.585   0.601  1.00  0.00     0.190 C 
HETATM   14  C   UNL     1      44.214  37.269   2.482  1.00  0.00     0.190 C 
HETATM   15  C   UNL     1      46.786  32.030   4.690  1.00  0.00     0.190 C 
HETATM   16  C   UNL     1      47.642  38.345   1.577  1.00  0.00     0.227 C 
HETATM   17  C   UNL     1      50.077  33.936   3.984  1.00  0.00     0.227 C 
HETATM   18  C   UNL     1      44.337  33.419   2.218  1.00  0.00     0.227 C 
HETATM   19  C   UNL     1      48.228  37.023   1.074  1.00  0.00     0.250 C 
HETATM   20  C   UNL     1      44.381  34.896   1.831  1.00  0.00     0.250 C 
HETATM   21  C   UNL     1      49.021  32.821   3.941  1.00  0.00     0.250 C 
HETATM   22  C   UNL     1      45.674  37.607   2.731  1.00  0.00     0.283 C 
HETATM   23  C   UNL     1      50.222  34.435   1.605  1.00  0.00     0.283 C 
HETATM   24  C   UNL     1      45.483  32.172   3.907  1.00  0.00     0.283 C 
HETATM   25  C   UNL     1      50.534  37.742   1.856  1.00  0.00     0.153 C 
HETATM   26  C   UNL     1      43.643  35.504   4.188  1.00  0.00     0.153 C 
HETATM   27  C   UNL     1      47.423  34.440   5.025  1.00  0.00     0.153 C 
ENDROOT
BRANCH  16  28
HETATM   28  C   UNL     1      47.936  39.471   0.596  1.00  0.00     0.016 C 
HETATM   29  C   UNL     1      46.640  40.143   0.143  1.00  0.00     0.012 C 
HETATM   30  C   UNL     1      48.880  40.498   1.219  1.00  0.00     0.012 C 
ENDBRANCH  16  28
BRANCH  14  31
HETATM   31  C   UNL     1      43.313  38.235   3.242  1.00  0.00     0.010 C 
HETATM   32  C   UNL     1      44.035  39.557   3.494  1.00  0.00     0.012 C 
HETATM   33  C   UNL     1      42.014  38.472   2.477  1.00  0.00     0.012 C 
ENDBRANCH  14  31
BRANCH  13  34
HETATM   34  C   UNL     1      51.546  35.770  -0.040  1.00  0.00     0.010 C 
HETATM   35  C   UNL     1      51.566  35.180  -1.450  1.00  0.00     0.012 C 
HETATM   36  C   UNL     1      52.634  35.134   0.821  1.00  0.00     0.012 C 
ENDBRANCH  13  34
BRANCH  18  37
HETATM   37  C   UNL     1      44.404  32.513   0.992  1.00  0.00     0.016 C 
HETATM   38  C   UNL     1      45.776  31.846   0.889  1.00  0.00     0.012 C 
HETATM   39  C   UNL     1      43.299  31.459   1.038  1.00  0.00     0.012 C 
ENDBRANCH  18  37
BRANCH  17  40
HETATM   40  C   UNL     1      51.501  33.396   4.115  1.00  0.00     0.016 C 
HETATM   41  C   UNL     1      51.576  32.340   5.215  1.00  0.00     0.012 C 
HETATM   42  C   UNL     1      52.483  34.533   4.392  1.00  0.00     0.012 C 
ENDBRANCH  17  40
BRANCH  15  43
HETATM   43  C   UNL     1      46.497  31.816   6.176  1.00  0.00     0.010 C 
HETATM   44  C   UNL     1      45.935  30.417   6.415  1.00  0.00     0.012 C 
HETATM   45  C   UNL     1      47.759  32.038   7.003  1.00  0.00     0.012 C 
ENDBRANCH  15  43
TORSDOF 6
ENDMDL
MODEL 2
REMARK VINA RESULT:    -5.128      1.753      7.985
REMARK INTER + INTRA:          -5.805
REMARK INTER:                  -6.768
REMARK INTRA:                   0.963
REMARK UNBOUND:                 1.122
REMARK  6 active torsions:
REMARK  status: ('A' for Active; 'I' for Inactive)
REMARK    1  A    between atoms: C_13  and  C_16 
REMARK    2  A    between atoms: C_14  and  C_17 
REMARK    3  A    between atoms: C_15  and  C_18 
REMARK    4  A    between atoms: C_19  and  C_22 
REMARK    5  A    between atoms: C_20  and  C_23 
REMARK    6  A    between atoms: C_21  and  C_24 
ROOT
HETATM    1  O   UNL     1      47.386  32.576   4.649  1.00  0.00    -0.304 OA
HETATM    2  O   UNL     1      44.429  36.240   2.499  1.00  0.00    -0.304 OA
HETATM    3  O   UNL     1      48.842  35.851   0.847  1.00  0.00    -0.304 OA
HETATM    4  O   UNL     1      46.047  32.992   2.469  1.00  0.00    -0.270 OA
HETATM    5  O   UNL     1      48.814  32.725   1.496  1.00  0.00    -0.270 OA
HETATM    6  O   UNL     1      45.455  37.994  -0.026  1.00  0.00    -0.270 OA
HETATM    7  O   UNL     1      47.985  34.788   4.914  1.00  0.00    -0.263 OA
HETATM    8  O   UNL     1      43.553  35.765   0.424  1.00  0.00    -0.263 OA
HETATM    9  O   UNL     1      50.211  37.276  -0.324  1.00  0.00    -0.263 OA
HETATM   10  N   UNL     1      44.118  33.807   3.449  1.00  0.00    -0.340 N 
HETATM   11  N   UNL     1      49.961  34.066   3.003  1.00  0.00    -0.340 N 
HETATM   12  N   UNL     1      47.112  37.762   1.591  1.00  0.00    -0.340 N 
HETATM   13  C   UNL     1      43.521  34.050   2.119  1.00  0.00     0.190 C 
HETATM   14  C   UNL     1      49.609  33.161   4.117  1.00  0.00     0.190 C 
HETATM   15  C   UNL     1      48.189  38.160   0.661  1.00  0.00     0.190 C 
HETATM   16  C   UNL     1      45.990  32.881   4.858  1.00  0.00     0.227 C 
HETATM   17  C   UNL     1      44.690  37.626   2.220  1.00  0.00     0.227 C 
HETATM   18  C   UNL     1      49.729  34.744   0.597  1.00  0.00     0.227 C 
HETATM   19  C   UNL     1      45.396  33.232   3.491  1.00  0.00     0.250 C 
HETATM   20  C   UNL     1      49.460  33.752   1.727  1.00  0.00     0.250 C 
HETATM   21  C   UNL     1      45.777  37.802   1.151  1.00  0.00     0.250 C 
HETATM   22  C   UNL     1      48.255  33.631   4.620  1.00  0.00     0.283 C 
HETATM   23  C   UNL     1      43.845  35.437   1.569  1.00  0.00     0.283 C 
HETATM   24  C   UNL     1      49.205  37.064   0.345  1.00  0.00     0.283 C 
HETATM   25  C   UNL     1      43.351  34.217   4.629  1.00  0.00     0.153 C 
HETATM   26  C   UNL     1      50.775  35.245   3.310  1.00  0.00     0.153 C 
HETATM   27  C   UNL     1      47.480  37.514   2.987  1.00  0.00     0.153 C 
ENDROOT
BRANCH  16  28
HETATM   28  C   UNL     1      45.344  31.622   5.418  1.00  0.00     0.016 C 
HETATM   29  C   UNL     1      45.028  30.633   4.296  1.00  0.00     0.012 C 
HETATM   30  C   UNL     1      46.246  30.971   6.465  1.00  0.00     0.012 C 
ENDBRANCH  16  28
BRANCH  14  31
HETATM   31  C   UNL     1      50.606  33.099   5.267  1.00  0.00     0.010 C 
HETATM   32  C   UNL     1      49.940  32.544   6.525  1.00  0.00     0.012 C 
HETATM   33  C   UNL     1      51.818  32.254   4.884  1.00  0.00     0.012 C 
ENDBRANCH  14  31
BRANCH  13  34
HETATM   34  C   UNL     1      42.011  33.817   2.069  1.00  0.00     0.010 C 
HETATM   35  C   UNL     1      41.642  32.924   0.885  1.00  0.00     0.012 C 
HETATM   36  C   UNL     1      41.261  35.144   1.992  1.00  0.00     0.012 C 
ENDBRANCH  13  34
BRANCH  18  37
HETATM   37  C   UNL     1      49.395  34.149  -0.768  1.00  0.00     0.016 C 
HETATM   38  C   UNL     1      48.081  34.722  -1.299  1.00  0.00     0.012 C 
HETATM   39  C   UNL     1      50.528  34.401  -1.760  1.00  0.00     0.012 C 
ENDBRANCH  18  37
BRANCH  17  40
HETATM   40  C   UNL     1      43.408  38.390   1.890  1.00  0.00     0.016 C 
HETATM   41  C   UNL     1      43.734  39.777   1.342  1.00  0.00     0.012 C 
HETATM   42  C   UNL     1      42.513  38.496   3.123  1.00  0.00     0.012 C 
ENDBRANCH  17  40
BRANCH  15  43
HETATM   43  C   UNL     1      48.899  39.426   1.143  1.00  0.00     0.010 C 
HETATM   44  C   UNL     1      50.270  39.082   1.720  1.00  0.00     0.012 C 
HETATM   45  C   UNL     1      49.031  40.430   0.002  1.00  0.00     0.012 C 
ENDBRANCH  15  43
TORSDOF 6
ENDMDL
MODEL 3
REMARK VINA RESULT:    -4.859      1.978      4.255
REMARK INTER + INTRA:          -5.442
REMARK INTER:                  -6.159
REMARK INTRA:                   0.717
REMARK UNBOUND:                 1.122
REMARK  6 active torsions:
REMARK  status: ('A' for Active; 'I' for Inactive)
REMARK    1  A    between atoms: C_13  and  C_16 
REMARK    2  A    between atoms: C_14  and  C_17 
REMARK    3  A    between atoms: C_15  and  C_18 
REMARK    4  A    between atoms: C_19  and  C_22 
REMARK    5  A    between atoms: C_20  and  C_23 
REMARK    6  A    between atoms: C_21  and  C_24 
ROOT
HETATM    1  O   UNL     1      50.701  37.925   1.268  1.00  0.00    -0.304 OA
HETATM    2  O   UNL     1      49.635  33.865   4.295  1.00  0.00    -0.304 OA
HETATM    3  O   UNL     1      46.163  35.341   1.445  1.00  0.00    -0.304 OA
HETATM    4  O   UNL     1      50.464  35.350   1.089  1.00  0.00    -0.270 OA
HETATM    5  O   UNL     1      48.327  36.328  -0.686  1.00  0.00    -0.270 OA
HETATM    6  O   UNL     1      46.833  32.253   4.059  1.00  0.00    -0.270 OA
HETATM    7  O   UNL     1      49.075  38.142   2.889  1.00  0.00    -0.263 OA
HETATM    8  O   UNL     1      49.658  31.797   3.283  1.00  0.00    -0.263 OA
HETATM    9  O   UNL     1      43.886  35.041   1.458  1.00  0.00    -0.263 OA
HETATM   10  N   UNL     1      51.701  34.802   2.964  1.00  0.00    -0.340 N 
HETATM   11  N   UNL     1      47.363  37.983   0.625  1.00  0.00    -0.340 N 
HETATM   12  N   UNL     1      46.510  34.556   3.986  1.00  0.00    -0.340 N 
HETATM   13  C   UNL     1      51.412  33.367   2.759  1.00  0.00     0.190 C 
HETATM   14  C   UNL     1      48.609  38.777   0.586  1.00  0.00     0.190 C 
HETATM   15  C   UNL     1      45.148  34.429   3.426  1.00  0.00     0.190 C 
HETATM   16  C   UNL     1      51.560  37.186   2.162  1.00  0.00     0.227 C 
HETATM   17  C   UNL     1      48.509  33.586   5.145  1.00  0.00     0.227 C 
HETATM   18  C   UNL     1      46.117  35.867   0.104  1.00  0.00     0.227 C 
HETATM   19  C   UNL     1      51.189  35.707   2.024  1.00  0.00     0.250 C 
HETATM   20  C   UNL     1      47.365  36.737  -0.028  1.00  0.00     0.250 C 
HETATM   21  C   UNL     1      47.216  33.392   4.340  1.00  0.00     0.250 C 
HETATM   22  C   UNL     1      49.462  38.264   1.734  1.00  0.00     0.283 C 
HETATM   23  C   UNL     1      50.130  32.916   3.455  1.00  0.00     0.283 C 
HETATM   24  C   UNL     1      44.979  34.980   2.012  1.00  0.00     0.283 C 
HETATM   25  C   UNL     1      52.470  35.182   4.153  1.00  0.00     0.153 C 
HETATM   26  C   UNL     1      46.226  38.529   1.372  1.00  0.00     0.153 C 
HETATM   27  C   UNL     1      46.986  35.902   4.310  1.00  0.00     0.153 C 
ENDROOT
BRANCH  16  28
HETATM   28  C   UNL     1      52.990  37.427   1.700  1.00  0.00     0.016 C 
HETATM   29  C   UNL     1      53.010  37.958   0.267  1.00  0.00     0.012 C 
HETATM   30  C   UNL     1      53.706  38.397   2.639  1.00  0.00     0.012 C 
ENDBRANCH  16  28
BRANCH  14  31
HETATM   31  C   UNL     1      48.441  40.288   0.689  1.00  0.00     0.010 C 
HETATM   32  C   UNL     1      49.761  40.949   1.079  1.00  0.00     0.012 C 
HETATM   33  C   UNL     1      47.923  40.861  -0.627  1.00  0.00     0.012 C 
ENDBRANCH  14  31
BRANCH  13  34
HETATM   34  C   UNL     1      52.564  32.443   3.154  1.00  0.00     0.010 C 
HETATM   35  C   UNL     1      52.922  31.504   2.003  1.00  0.00     0.012 C 
HETATM   36  C   UNL     1      52.212  31.643   4.406  1.00  0.00     0.012 C 
ENDBRANCH  13  34
BRANCH  18  37
HETATM   37  C   UNL     1      46.136  34.700  -0.879  1.00  0.00     0.016 C 
HETATM   38  C   UNL     1      46.475  33.395  -0.159  1.00  0.00     0.012 C 
HETATM   39  C   UNL     1      44.797  34.580  -1.603  1.00  0.00     0.012 C 
ENDBRANCH  18  37
BRANCH  17  40
HETATM   40  C   UNL     1      48.791  32.424   6.097  1.00  0.00     0.016 C 
HETATM   41  C   UNL     1      47.620  32.217   7.055  1.00  0.00     0.012 C 
HETATM   42  C   UNL     1      50.084  32.668   6.874  1.00  0.00     0.012 C 
ENDBRANCH  17  40
BRANCH  15  43
HETATM   43  C   UNL     1      44.103  35.033   4.365  1.00  0.00     0.010 C 
HETATM   44  C   UNL     1      43.720  36.437   3.904  1.00  0.00     0.012 C 
HETATM   45  C   UNL     1      42.871  34.135   4.439  1.00  0.00     0.012 C 
ENDBRANCH  15  43
TORSDOF 6
ENDMDL
MODEL 4
REMARK VINA RESULT:    -4.823      2.076      6.584
REMARK INTER + INTRA:          -5.393
REMARK INTER:                  -6.442
REMARK INTRA:                   1.049
REMARK UNBOUND:                 1.122
REMARK  6 active torsions:
REMARK  status: ('A' for Active; 'I' for Inactive)
REMARK    1  A    between atoms: C_13  and  C_16 
REMARK    2  A    between atoms: C_14  and  C_17 
REMARK    3  A    between atoms: C_15  and  C_18 
REMARK    4  A    between atoms: C_19  and  C_22 
REMARK    5  A    between atoms: C_20  and  C_23 
REMARK    6  A    between atoms: C_21  and  C_24 
ROOT
HETATM    1  O   UNL     1      45.240  36.188   2.897  1.00  0.00    -0.304 OA
HETATM    2  O   UNL     1      49.686  33.543   2.731  1.00  0.00    -0.304 OA
HETATM    3  O   UNL     1      49.895  38.101   1.493  1.00  0.00    -0.304 OA
HETATM    4  O   UNL     1      47.420  35.920   4.274  1.00  0.00    -0.270 OA
HETATM    5  O   UNL     1      47.489  38.757   3.486  1.00  0.00    -0.270 OA
HETATM    6  O   UNL     1      52.509  34.994   2.074  1.00  0.00    -0.270 OA
HETATM    7  O   UNL     1      46.278  35.881   0.860  1.00  0.00    -0.263 OA
HETATM    8  O   UNL     1      51.154  33.893   4.470  1.00  0.00    -0.263 OA
HETATM    9  O   UNL     1      51.412  39.331   0.284  1.00  0.00    -0.263 OA
HETATM   10  N   UNL     1      47.525  33.610   4.229  1.00  0.00    -0.340 N 
HETATM   11  N   UNL     1      46.937  38.621   1.236  1.00  0.00    -0.340 N 
HETATM   12  N   UNL     1      50.815  35.723   0.656  1.00  0.00    -0.340 N 
HETATM   13  C   UNL     1      48.807  33.634   4.964  1.00  0.00     0.190 C 
HETATM   14  C   UNL     1      45.593  38.106   1.569  1.00  0.00     0.190 C 
HETATM   15  C   UNL     1      51.572  36.920   0.234  1.00  0.00     0.190 C 
HETATM   16  C   UNL     1      45.526  34.830   3.299  1.00  0.00     0.227 C 
HETATM   17  C   UNL     1      50.700  33.456   1.715  1.00  0.00     0.227 C 
HETATM   18  C   UNL     1      49.244  39.300   1.955  1.00  0.00     0.227 C 
HETATM   19  C   UNL     1      46.903  34.839   3.970  1.00  0.00     0.250 C 
HETATM   20  C   UNL     1      47.819  38.874   2.302  1.00  0.00     0.250 C 
HETATM   21  C   UNL     1      51.427  34.793   1.513  1.00  0.00     0.250 C 
HETATM   22  C   UNL     1      45.746  36.600   1.696  1.00  0.00     0.283 C 
HETATM   23  C   UNL     1      50.018  33.723   4.038  1.00  0.00     0.283 C 
HETATM   24  C   UNL     1      50.955  38.253   0.651  1.00  0.00     0.283 C 
HETATM   25  C   UNL     1      47.012  32.309   3.790  1.00  0.00     0.153 C 
HETATM   26  C   UNL     1      47.270  38.797  -0.181  1.00  0.00     0.153 C 
HETATM   27  C   UNL     1      49.522  35.479   0.012  1.00  0.00     0.153 C 
ENDROOT
BRANCH  16  28
HETATM   28  C   UNL     1      44.446  34.429   4.293  1.00  0.00     0.016 C 
HETATM   29  C   UNL     1      43.945  35.647   5.066  1.00  0.00     0.012 C 
HETATM   30  C   UNL     1      43.287  33.734   3.580  1.00  0.00     0.012 C 
ENDBRANCH  16  28
BRANCH  14  31
HETATM   31  C   UNL     1      44.485  38.440   0.578  1.00  0.00     0.010 C 
HETATM   32  C   UNL     1      43.301  37.492   0.756  1.00  0.00     0.012 C 
HETATM   33  C   UNL     1      44.038  39.891   0.742  1.00  0.00     0.012 C 
ENDBRANCH  14  31
BRANCH  13  34
HETATM   34  C   UNL     1      48.984  32.466   5.933  1.00  0.00     0.010 C 
HETATM   35  C   UNL     1      47.850  32.438   6.957  1.00  0.00     0.012 C 
HETATM   36  C   UNL     1      50.338  32.547   6.636  1.00  0.00     0.012 C 
ENDBRANCH  13  34
BRANCH  18  37
HETATM   37  C   UNL     1      49.991  39.820   3.180  1.00  0.00     0.016 C 
HETATM   38  C   UNL     1      51.114  38.861   3.574  1.00  0.00     0.012 C 
HETATM   39  C   UNL     1      50.548  41.218   2.919  1.00  0.00     0.012 C 
ENDBRANCH  18  37
BRANCH  17  40
HETATM   40  C   UNL     1      51.660  32.294   1.970  1.00  0.00     0.016 C 
HETATM   41  C   UNL     1      52.537  32.042   0.745  1.00  0.00     0.012 C 
HETATM   42  C   UNL     1      50.888  31.031   2.346  1.00  0.00     0.012 C 
ENDBRANCH  17  40
BRANCH  15  43
HETATM   43  C   UNL     1      51.844  36.904  -1.271  1.00  0.00     0.010 C 
HETATM   44  C   UNL     1      50.909  37.871  -1.992  1.00  0.00     0.012 C 
HETATM   45  C   UNL     1      53.303  37.253  -1.553  1.00  0.00     0.012 C 
ENDBRANCH  15  43
TORSDOF 6
ENDMDL
MODEL 5
REMARK VINA RESULT:    -4.730      3.994      8.642
REMARK INTER + INTRA:          -5.266
REMARK INTER:                  -6.077
REMARK INTRA:                   0.810
REMARK UNBOUND:                 1.122
REMARK  6 active torsions:
REMARK  status: ('A' for Active; 'I' for Inactive)
REMARK    1  A    between atoms: C_13  and  C_16 
REMARK    2  A    between atoms: C_14  and  C_17 
REMARK    3  A    between atoms: C_15  and  C_18 
REMARK    4  A    between atoms: C_19  and  C_22 
REMARK    5  A    between atoms: C_20  and  C_23 
REMARK    6  A    between atoms: C_21  and  C_24 
ROOT
HETATM    1  O   UNL     1      42.413  33.893   1.778  1.00  0.00    -0.304 OA
HETATM    2  O   UNL     1      44.751  38.082  -0.164  1.00  0.00    -0.304 OA
HETATM    3  O   UNL     1      40.109  38.447   0.655  1.00  0.00    -0.304 OA
HETATM    4  O   UNL     1      43.265  36.211   2.567  1.00  0.00    -0.270 OA
HETATM    5  O   UNL     1      40.369  36.374   3.070  1.00  0.00    -0.270 OA
HETATM    6  O   UNL     1      43.176  40.889  -0.547  1.00  0.00    -0.270 OA
HETATM    7  O   UNL     1      41.810  34.631  -0.322  1.00  0.00    -0.263 OA
HETATM    8  O   UNL     1      45.200  39.786   1.317  1.00  0.00    -0.263 OA
HETATM    9  O   UNL     1      38.485  39.874  -0.120  1.00  0.00    -0.263 OA
HETATM   10  N   UNL     1      45.327  36.146   1.521  1.00  0.00    -0.340 N 
HETATM   11  N   UNL     1      39.510  35.524   1.089  1.00  0.00    -0.340 N 
HETATM   12  N   UNL     1      41.893  39.079  -1.246  1.00  0.00    -0.340 N 
HETATM   13  C   UNL     1      45.633  37.512   1.996  1.00  0.00     0.190 C 
HETATM   14  C   UNL     1      40.110  34.202   1.365  1.00  0.00     0.190 C 
HETATM   15  C   UNL     1      40.636  39.857  -1.221  1.00  0.00     0.190 C 
HETATM   16  C   UNL     1      43.812  34.134   1.513  1.00  0.00     0.227 C 
HETATM   17  C   UNL     1      44.395  38.945  -1.257  1.00  0.00     0.227 C 
HETATM   18  C   UNL     1      39.226  37.947   1.678  1.00  0.00     0.227 C 
HETATM   19  C   UNL     1      44.103  35.583   1.910  1.00  0.00     0.250 C 
HETATM   20  C   UNL     1      39.751  36.554   2.016  1.00  0.00     0.250 C 
HETATM   21  C   UNL     1      43.107  39.732  -0.972  1.00  0.00     0.250 C 
HETATM   22  C   UNL     1      41.523  34.265   0.810  1.00  0.00     0.283 C 
HETATM   23  C   UNL     1      45.158  38.595   1.028  1.00  0.00     0.283 C 
HETATM   24  C   UNL     1      39.613  39.395  -0.186  1.00  0.00     0.283 C 
HETATM   25  C   UNL     1      46.305  35.490   0.648  1.00  0.00     0.153 C 
HETATM   26  C   UNL     1      38.738  35.681  -0.147  1.00  0.00     0.153 C 
HETATM   27  C   UNL     1      41.825  37.699  -1.732  1.00  0.00     0.153 C 
ENDROOT
BRANCH  16  28
HETATM   28  C   UNL     1      44.598  33.168   2.386  1.00  0.00     0.016 C 
HETATM   29  C   UNL     1      44.108  33.228   3.833  1.00  0.00     0.012 C 
HETATM   30  C   UNL     1      44.494  31.742   1.846  1.00  0.00     0.012 C 
ENDBRANCH  16  28
BRANCH  14  31
HETATM   31  C   UNL     1      39.371  33.000   0.790  1.00  0.00     0.010 C 
HETATM   32  C   UNL     1      40.344  31.857   0.509  1.00  0.00     0.012 C 
HETATM   33  C   UNL     1      38.267  32.543   1.740  1.00  0.00     0.012 C 
ENDBRANCH  14  31
BRANCH  13  34
HETATM   34  C   UNL     1      47.107  37.733   2.332  1.00  0.00     0.010 C 
HETATM   35  C   UNL     1      47.252  38.488   3.653  1.00  0.00     0.012 C 
HETATM   36  C   UNL     1      47.813  38.485   1.206  1.00  0.00     0.012 C 
ENDBRANCH  13  34
BRANCH  18  37
HETATM   37  C   UNL     1      39.293  38.883   2.882  1.00  0.00     0.016 C 
HETATM   38  C   UNL     1      40.508  39.806   2.779  1.00  0.00     0.012 C 
HETATM   39  C   UNL     1      38.009  39.701   3.004  1.00  0.00     0.012 C 
ENDBRANCH  18  37
BRANCH  17  40
HETATM   40  C   UNL     1      45.558  39.847  -1.671  1.00  0.00     0.016 C 
HETATM   41  C   UNL     1      45.124  40.813  -2.771  1.00  0.00     0.012 C 
HETATM   42  C   UNL     1      46.750  39.009  -2.131  1.00  0.00     0.012 C 
ENDBRANCH  17  40
BRANCH  15  43
HETATM   43  C   UNL     1      39.999  39.928  -2.610  1.00  0.00     0.010 C 
HETATM   44  C   UNL     1      38.790  38.999  -2.690  1.00  0.00     0.012 C 
HETATM   45  C   UNL     1      39.599  41.363  -2.941  1.00  0.00     0.012 C 
ENDBRANCH  15  43
TORSDOF 6
ENDMDL
MODEL 6
REMARK VINA RESULT:    -4.494      2.913      7.574
REMARK INTER + INTRA:          -4.948
REMARK INTER:                  -6.125
REMARK INTRA:                   1.177
REMARK UNBOUND:                 1.122
REMARK  6 active torsions:
REMARK  status: ('A' for Active; 'I' for Inactive)
REMARK    1  A    between atoms: C_13  and  C_16 
REMARK    2  A    between atoms: C_14  and  C_17 
REMARK    3  A    between atoms: C_15  and  C_18 
REMARK    4  A    between atoms: C_19  and  C_22 
REMARK    5  A    between atoms: C_20  and  C_23 
REMARK    6  A    between atoms: C_21  and  C_24 
ROOT
HETATM    1  O   UNL     1      41.967  33.789  -0.386  1.00  0.00    -0.304 OA
HETATM    2  O   UNL     1      46.125  35.455   2.205  1.00  0.00    -0.304 OA
HETATM    3  O   UNL     1      43.084  38.767   0.743  1.00  0.00    -0.304 OA
HETATM    4  O   UNL     1      42.592  34.660   1.974  1.00  0.00    -0.270 OA
HETATM    5  O   UNL     1      40.680  36.684   1.016  1.00  0.00    -0.270 OA
HETATM    6  O   UNL     1      46.492  38.572   3.017  1.00  0.00    -0.270 OA
HETATM    7  O   UNL     1      43.500  35.120  -1.479  1.00  0.00    -0.263 OA
HETATM    8  O   UNL     1      45.794  36.047   4.406  1.00  0.00    -0.263 OA
HETATM    9  O   UNL     1      43.269  41.032   0.414  1.00  0.00    -0.263 OA
HETATM   10  N   UNL     1      44.500  33.388   2.270  1.00  0.00    -0.340 N 
HETATM   11  N   UNL     1      41.455  37.065  -1.138  1.00  0.00    -0.340 N 
HETATM   12  N   UNL     1      45.730  38.335   0.832  1.00  0.00    -0.340 N 
HETATM   13  C   UNL     1      44.754  34.036   3.574  1.00  0.00     0.190 C 
HETATM   14  C   UNL     1      41.132  35.677  -1.528  1.00  0.00     0.190 C 
HETATM   15  C   UNL     1      45.284  39.741   0.749  1.00  0.00     0.190 C 
HETATM   16  C   UNL     1      43.014  33.038   0.266  1.00  0.00     0.227 C 
HETATM   17  C   UNL     1      47.059  36.511   1.922  1.00  0.00     0.227 C 
HETATM   18  C   UNL     1      41.650  38.836   0.630  1.00  0.00     0.227 C 
HETATM   19  C   UNL     1      43.348  33.769   1.570  1.00  0.00     0.250 C 
HETATM   20  C   UNL     1      41.214  37.438   0.197  1.00  0.00     0.250 C 
HETATM   21  C   UNL     1      46.398  37.896   1.988  1.00  0.00     0.250 C 
HETATM   22  C   UNL     1      42.350  34.849  -1.159  1.00  0.00     0.283 C 
HETATM   23  C   UNL     1      45.599  35.302   3.451  1.00  0.00     0.283 C 
HETATM   24  C   UNL     1      43.776  39.931   0.601  1.00  0.00     0.283 C 
HETATM   25  C   UNL     1      45.488  32.421   1.783  1.00  0.00     0.153 C 
HETATM   26  C   UNL     1      42.038  37.944  -2.156  1.00  0.00     0.153 C 
HETATM   27  C   UNL     1      45.611  37.515  -0.376  1.00  0.00     0.153 C 
ENDROOT
BRANCH  16  28
HETATM   28  C   UNL     1      42.450  31.655   0.555  1.00  0.00     0.016 C 
HETATM   29  C   UNL     1      40.952  31.611   0.256  1.00  0.00     0.012 C 
HETATM   30  C   UNL     1      43.187  30.590  -0.257  1.00  0.00     0.012 C 
ENDBRANCH  16  28
BRANCH  14  31
HETATM   31  C   UNL     1      40.773  35.462  -2.994  1.00  0.00     0.010 C 
HETATM   32  C   UNL     1      41.003  34.007  -3.394  1.00  0.00     0.012 C 
HETATM   33  C   UNL     1      39.326  35.869  -3.258  1.00  0.00     0.012 C 
ENDBRANCH  14  31
BRANCH  13  34
HETATM   34  C   UNL     1      45.372  33.104   4.616  1.00  0.00     0.010 C 
HETATM   35  C   UNL     1      44.295  32.245   5.277  1.00  0.00     0.012 C 
HETATM   36  C   UNL     1      46.140  33.902   5.668  1.00  0.00     0.012 C 
ENDBRANCH  13  34
BRANCH  18  37
HETATM   37  C   UNL     1      41.070  39.211   1.992  1.00  0.00     0.016 C 
HETATM   38  C   UNL     1      42.164  39.217   3.060  1.00  0.00     0.012 C 
HETATM   39  C   UNL     1      40.376  40.569   1.928  1.00  0.00     0.012 C 
ENDBRANCH  18  37
BRANCH  17  40
HETATM   40  C   UNL     1      48.311  36.412   2.794  1.00  0.00     0.016 C 
HETATM   41  C   UNL     1      49.403  37.345   2.275  1.00  0.00     0.012 C 
HETATM   42  C   UNL     1      48.816  34.972   2.847  1.00  0.00     0.012 C 
ENDBRANCH  17  40
BRANCH  15  43
HETATM   43  C   UNL     1      46.029  40.497  -0.353  1.00  0.00     0.010 C 
HETATM   44  C   UNL     1      47.538  40.403  -0.137  1.00  0.00     0.012 C 
HETATM   45  C   UNL     1      45.647  39.953  -1.726  1.00  0.00     0.012 C 
ENDBRANCH  15  43
TORSDOF 6
ENDMDL
MODEL 7
REMARK VINA RESULT:    -4.481      3.531      8.302
REMARK INTER + INTRA:          -4.930
REMARK INTER:                  -6.022
REMARK INTRA:                   1.091
REMARK UNBOUND:                 1.122
REMARK  6 active torsions:
REMARK  status: ('A' for Active; 'I' for Inactive)
REMARK    1  A    between atoms: C_13  and  C_16 
REMARK    2  A    between atoms: C_14  and  C_17 
REMARK    3  A    between atoms: C_15  and  C_18 
REMARK    4  A    between atoms: C_19  and  C_22 
REMARK    5  A    between atoms: C_20  and  C_23 
REMARK    6  A    between atoms: C_21  and  C_24 
ROOT
HETATM    1  O   UNL     1      48.688  41.828  -2.308  1.00  0.00    -0.304 OA
HETATM    2  O   UNL     1      46.642  37.963   0.460  1.00  0.00    -0.304 OA
HETATM    3  O   UNL     1      50.759  39.709   1.995  1.00  0.00    -0.304 OA
HETATM    4  O   UNL     1      47.411  41.468  -0.082  1.00  0.00    -0.270 OA
HETATM    5  O   UNL     1      49.989  42.573   0.815  1.00  0.00    -0.270 OA
HETATM    6  O   UNL     1      47.972  36.972   3.245  1.00  0.00    -0.270 OA
HETATM    7  O   UNL     1      49.821  39.822  -2.190  1.00  0.00    -0.263 OA
HETATM    8  O   UNL     1      45.599  38.550   2.427  1.00  0.00    -0.263 OA
HETATM    9  O   UNL     1      52.391  38.888   3.388  1.00  0.00    -0.263 OA
HETATM   10  N   UNL     1      45.779  40.045  -0.895  1.00  0.00    -0.340 N 
HETATM   11  N   UNL     1      51.486  41.325  -0.444  1.00  0.00    -0.340 N 
HETATM   12  N   UNL     1      49.580  37.331   1.603  1.00  0.00    -0.340 N 
HETATM   13  C   UNL     1      45.210  39.891   0.460  1.00  0.00     0.190 C 
HETATM   14  C   UNL     1      50.965  41.912  -1.696  1.00  0.00     0.190 C 
HETATM   15  C   UNL     1      50.686  37.376   2.581  1.00  0.00     0.190 C 
HETATM   16  C   UNL     1      47.418  41.155  -2.454  1.00  0.00     0.227 C 
HETATM   17  C   UNL     1      47.225  36.753   0.973  1.00  0.00     0.227 C 
HETATM   18  C   UNL     1      51.337  41.027   2.044  1.00  0.00     0.227 C 
HETATM   19  C   UNL     1      46.878  40.903  -1.044  1.00  0.00     0.250 C 
HETATM   20  C   UNL     1      50.875  41.715   0.761  1.00  0.00     0.250 C 
HETATM   21  C   UNL     1      48.281  37.035   2.051  1.00  0.00     0.250 C 
HETATM   22  C   UNL     1      49.788  41.042  -2.102  1.00  0.00     0.283 C 
HETATM   23  C   UNL     1      45.845  38.741   1.240  1.00  0.00     0.283 C 
HETATM   24  C   UNL     1      51.390  38.727   2.697  1.00  0.00     0.283 C 
HETATM   25  C   UNL     1      45.181  39.264  -1.982  1.00  0.00     0.153 C 
HETATM   26  C   UNL     1      52.576  40.350  -0.547  1.00  0.00     0.153 C 
HETATM   27  C   UNL     1      49.928  37.422   0.183  1.00  0.00     0.153 C 
ENDROOT
BRANCH  16  28
HETATM   28  C   UNL     1      46.505  42.101  -3.220  1.00  0.00     0.016 C 
HETATM   29  C   UNL     1      47.090  43.512  -3.248  1.00  0.00     0.012 C 
HETATM   30  C   UNL     1      46.269  41.592  -4.641  1.00  0.00     0.012 C 
ENDBRANCH  16  28
BRANCH  14  31
HETATM   31  C   UNL     1      51.959  42.023  -2.845  1.00  0.00     0.010 C 
HETATM   32  C   UNL     1      51.225  42.146  -4.179  1.00  0.00     0.012 C 
HETATM   33  C   UNL     1      52.892  43.213  -2.635  1.00  0.00     0.012 C 
ENDBRANCH  14  31
BRANCH  13  34
HETATM   34  C   UNL     1      43.689  39.747   0.477  1.00  0.00     0.010 C 
HETATM   35  C   UNL     1      43.019  41.043   0.024  1.00  0.00     0.012 C 
HETATM   36  C   UNL     1      43.198  39.350   1.868  1.00  0.00     0.012 C 
ENDBRANCH  13  34
BRANCH  18  37
HETATM   37  C   UNL     1      50.816  41.743   3.287  1.00  0.00     0.016 C 
HETATM   38  C   UNL     1      49.849  40.846   4.060  1.00  0.00     0.012 C 
HETATM   39  C   UNL     1      51.972  42.181   4.184  1.00  0.00     0.012 C 
ENDBRANCH  18  37
BRANCH  17  40
HETATM   40  C   UNL     1      46.158  35.762   1.438  1.00  0.00     0.016 C 
HETATM   41  C   UNL     1      46.775  34.390   1.700  1.00  0.00     0.012 C 
HETATM   42  C   UNL     1      45.035  35.657   0.407  1.00  0.00     0.012 C 
ENDBRANCH  17  40
BRANCH  15  43
HETATM   43  C   UNL     1      51.703  36.264   2.323  1.00  0.00     0.010 C 
HETATM   44  C   UNL     1      52.950  36.827   1.647  1.00  0.00     0.012 C 
HETATM   45  C   UNL     1      52.068  35.560   3.627  1.00  0.00     0.012 C 
ENDBRANCH  15  43
TORSDOF 6
ENDMDL
MODEL 8
REMARK VINA RESULT:    -4.422      7.702     12.419
REMARK INTER + INTRA:          -4.851
REMARK INTER:                  -5.649
REMARK INTRA:                   0.798
REMARK UNBOUND:                 1.122
REMARK  6 active torsions:
REMARK  status: ('A' for Active; 'I' for Inactive)
REMARK    1  A    between atoms: C_13  and  C_16 
REMARK    2  A    between atoms: C_14  and  C_17 
REMARK    3  A    between atoms: C_15  and  C_18 
REMARK    4  A    between atoms: C_19  and  C_22 
REMARK    5  A    between atoms: C_20  and  C_23 
REMARK    6  A    between atoms: C_21  and  C_24 
ROOT
HETATM    1  O   UNL     1      50.373  41.994   1.893  1.00  0.00    -0.304 OA
HETATM    2  O   UNL     1      55.300  43.576   1.972  1.00  0.00    -0.304 OA
HETATM    3  O   UNL     1      52.555  45.392  -1.422  1.00  0.00    -0.304 OA
HETATM    4  O   UNL     1      51.760  44.064   2.606  1.00  0.00    -0.270 OA
HETATM    5  O   UNL     1      50.014  45.143   0.495  1.00  0.00    -0.270 OA
HETATM    6  O   UNL     1      56.380  45.888  -0.026  1.00  0.00    -0.270 OA
HETATM    7  O   UNL     1      51.739  41.468   0.111  1.00  0.00    -0.263 OA
HETATM    8  O   UNL     1      55.691  45.669   2.849  1.00  0.00    -0.263 OA
HETATM    9  O   UNL     1      53.008  46.413  -3.429  1.00  0.00    -0.263 OA
HETATM   10  N   UNL     1      53.442  42.933   3.720  1.00  0.00    -0.340 N 
HETATM   11  N   UNL     1      50.214  43.512  -1.144  1.00  0.00    -0.340 N 
HETATM   12  N   UNL     1      55.015  44.362  -1.132  1.00  0.00    -0.340 N 
HETATM   13  C   UNL     1      54.149  44.204   3.984  1.00  0.00     0.190 C 
HETATM   14  C   UNL     1      49.574  42.512  -0.265  1.00  0.00     0.190 C 
HETATM   15  C   UNL     1      54.799  45.265  -2.281  1.00  0.00     0.190 C 
HETATM   16  C   UNL     1      51.423  41.707   2.843  1.00  0.00     0.227 C 
HETATM   17  C   UNL     1      56.277  43.685   0.924  1.00  0.00     0.227 C 
HETATM   18  C   UNL     1      51.177  45.805  -1.488  1.00  0.00     0.227 C 
HETATM   19  C   UNL     1      52.218  43.001   3.039  1.00  0.00     0.250 C 
HETATM   20  C   UNL     1      50.416  44.803  -0.622  1.00  0.00     0.250 C 
HETATM   21  C   UNL     1      55.896  44.755  -0.109  1.00  0.00     0.250 C 
HETATM   22  C   UNL     1      50.695  41.915   0.568  1.00  0.00     0.283 C 
HETATM   23  C   UNL     1      55.121  44.583   2.870  1.00  0.00     0.283 C 
HETATM   24  C   UNL     1      53.361  45.747  -2.461  1.00  0.00     0.283 C 
HETATM   25  C   UNL     1      54.085  41.689   4.153  1.00  0.00     0.153 C 
HETATM   26  C   UNL     1      50.628  43.082  -2.483  1.00  0.00     0.153 C 
HETATM   27  C   UNL     1      54.434  43.020  -1.207  1.00  0.00     0.153 C 
ENDROOT
BRANCH  16  28
HETATM   28  C   UNL     1      50.743  41.293   4.139  1.00  0.00     0.016 C 
HETATM   29  C   UNL     1      50.002  42.475   4.762  1.00  0.00     0.012 C 
HETATM   30  C   UNL     1      49.783  40.128   3.898  1.00  0.00     0.012 C 
ENDBRANCH  16  28
BRANCH  14  31
HETATM   31  C   UNL     1      48.794  41.408  -0.968  1.00  0.00     0.010 C 
HETATM   32  C   UNL     1      48.635  40.196  -0.052  1.00  0.00     0.012 C 
HETATM   33  C   UNL     1      47.429  41.919  -1.422  1.00  0.00     0.012 C 
ENDBRANCH  14  31
BRANCH  13  34
HETATM   34  C   UNL     1      54.870  44.239   5.331  1.00  0.00     0.010 C 
HETATM   35  C   UNL     1      54.516  45.512   6.100  1.00  0.00     0.012 C 
HETATM   36  C   UNL     1      56.381  44.133   5.139  1.00  0.00     0.012 C 
ENDBRANCH  13  34
BRANCH  18  37
HETATM   37  C   UNL     1      51.065  47.224  -0.937  1.00  0.00     0.016 C 
HETATM   38  C   UNL     1      52.366  47.639  -0.248  1.00  0.00     0.012 C 
HETATM   39  C   UNL     1      50.711  48.209  -2.049  1.00  0.00     0.012 C 
ENDBRANCH  18  37
BRANCH  17  40
HETATM   40  C   UNL     1      57.688  43.879   1.481  1.00  0.00     0.016 C 
HETATM   41  C   UNL     1      58.698  44.033   0.345  1.00  0.00     0.012 C 
HETATM   42  C   UNL     1      58.073  42.711   2.387  1.00  0.00     0.012 C 
ENDBRANCH  17  40
BRANCH  15  43
HETATM   43  C   UNL     1      55.323  44.649  -3.579  1.00  0.00     0.010 C 
HETATM   44  C   UNL     1      54.167  44.114  -4.421  1.00  0.00     0.012 C 
HETATM   45  C   UNL     1      56.134  45.673  -4.367  1.00  0.00     0.012 C 
ENDBRANCH  15  43
TORSDOF 6
ENDMDL
MODEL 9
REMARK VINA RESULT:    -4.408     17.734     21.131
REMARK INTER + INTRA:          -4.832
REMARK INTER:                  -5.622
REMARK INTRA:                   0.790
REMARK UNBOUND:                 1.122
REMARK  6 active torsions:
REMARK  status: ('A' for Active; 'I' for Inactive)
REMARK    1  A    between atoms: C_13  and  C_16 
REMARK    2  A    between atoms: C_14  and  C_17 
REMARK    3  A    between atoms: C_15  and  C_18 
REMARK    4  A    between atoms: C_19  and  C_22 
REMARK    5  A    between atoms: C_20  and  C_23 
REMARK    6  A    between atoms: C_21  and  C_24 
ROOT
HETATM    1  O   UNL     1      46.105  57.123   5.667  1.00  0.00    -0.304 OA
HETATM    2  O   UNL     1      49.850  54.742   3.004  1.00  0.00    -0.304 OA
HETATM    3  O   UNL     1      45.866  55.702   0.645  1.00  0.00    -0.304 OA
HETATM    4  O   UNL     1      47.910  57.678   3.892  1.00  0.00    -0.270 OA
HETATM    5  O   UNL     1      45.396  58.274   2.478  1.00  0.00    -0.270 OA
HETATM    6  O   UNL     1      49.585  54.180  -0.177  1.00  0.00    -0.270 OA
HETATM    7  O   UNL     1      45.724  54.991   4.874  1.00  0.00    -0.263 OA
HETATM    8  O   UNL     1      51.080  56.055   1.567  1.00  0.00    -0.263 OA
HETATM    9  O   UNL     1      44.947  54.870  -1.288  1.00  0.00    -0.263 OA
HETATM   10  N   UNL     1      49.672  56.564   4.893  1.00  0.00    -0.340 N 
HETATM   11  N   UNL     1      44.122  56.407   3.001  1.00  0.00    -0.340 N 
HETATM   12  N   UNL     1      47.611  53.688   0.951  1.00  0.00    -0.340 N 
HETATM   13  C   UNL     1      50.558  56.908   3.761  1.00  0.00     0.190 C 
HETATM   14  C   UNL     1      44.125  56.772   4.432  1.00  0.00     0.190 C 
HETATM   15  C   UNL     1      46.806  53.693  -0.288  1.00  0.00     0.190 C 
HETATM   16  C   UNL     1      47.452  56.785   6.064  1.00  0.00     0.227 C 
HETATM   17  C   UNL     1      49.815  53.594   2.140  1.00  0.00     0.227 C 
HETATM   18  C   UNL     1      44.929  56.796   0.656  1.00  0.00     0.227 C 
HETATM   19  C   UNL     1      48.356  57.045   4.856  1.00  0.00     0.250 C 
HETATM   20  C   UNL     1      44.840  57.233   2.117  1.00  0.00     0.250 C 
HETATM   21  C   UNL     1      49.004  53.859   0.863  1.00  0.00     0.250 C 
HETATM   22  C   UNL     1      45.389  56.160   5.012  1.00  0.00     0.283 C 
HETATM   23  C   UNL     1      50.519  55.870   2.642  1.00  0.00     0.283 C 
HETATM   24  C   UNL     1      45.759  54.802  -0.371  1.00  0.00     0.283 C 
HETATM   25  C   UNL     1      50.217  55.714   5.956  1.00  0.00     0.153 C 
HETATM   26  C   UNL     1      43.403  55.192   2.606  1.00  0.00     0.153 C 
HETATM   27  C   UNL     1      46.933  53.324   2.197  1.00  0.00     0.153 C 
ENDROOT
BRANCH  16  28
HETATM   28  C   UNL     1      47.816  57.708   7.217  1.00  0.00     0.016 C 
HETATM   29  C   UNL     1      46.961  58.974   7.185  1.00  0.00     0.012 C 
HETATM   30  C   UNL     1      47.656  56.989   8.556  1.00  0.00     0.012 C 
ENDBRANCH  16  28
BRANCH  14  31
HETATM   31  C   UNL     1      42.910  56.330   5.237  1.00  0.00     0.010 C 
HETATM   32  C   UNL     1      43.233  56.309   6.729  1.00  0.00     0.012 C 
HETATM   33  C   UNL     1      41.720  57.246   4.960  1.00  0.00     0.012 C 
ENDBRANCH  14  31
BRANCH  13  34
HETATM   34  C   UNL     1      52.008  57.169   4.171  1.00  0.00     0.010 C 
HETATM   35  C   UNL     1      52.486  58.517   3.633  1.00  0.00     0.012 C 
HETATM   36  C   UNL     1      52.918  56.045   3.682  1.00  0.00     0.012 C 
ENDBRANCH  13  34
BRANCH  18  37
HETATM   37  C   UNL     1      45.471  57.912  -0.233  1.00  0.00     0.016 C 
HETATM   38  C   UNL     1      46.925  57.639  -0.616  1.00  0.00     0.012 C 
HETATM   39  C   UNL     1      44.610  58.072  -1.485  1.00  0.00     0.012 C 
ENDBRANCH  18  37
BRANCH  17  40
HETATM   40  C   UNL     1      51.218  53.061   1.848  1.00  0.00     0.016 C 
HETATM   41  C   UNL     1      51.155  51.888   0.871  1.00  0.00     0.012 C 
HETATM   42  C   UNL     1      51.915  52.645   3.142  1.00  0.00     0.012 C 
ENDBRANCH  17  40
BRANCH  15  43
HETATM   43  C   UNL     1      46.162  52.329  -0.538  1.00  0.00     0.010 C 
HETATM   44  C   UNL     1      45.797  52.174  -2.013  1.00  0.00     0.012 C 
HETATM   45  C   UNL     1      47.097  51.208  -0.094  1.00  0.00     0.012 C 
ENDBRANCH  15  43
TORSDOF 6
ENDMDL
MODEL 10
REMARK VINA RESULT:    -4.400      9.744     14.188
REMARK INTER + INTRA:          -4.822
REMARK INTER:                  -5.619
REMARK INTRA:                   0.797
REMARK UNBOUND:                 1.122
REMARK  6 active torsions:
REMARK  status: ('A' for Active; 'I' for Inactive)
REMARK    1  A    between atoms: C_13  and  C_16 
REMARK    2  A    between atoms: C_14  and  C_17 
REMARK    3  A    between atoms: C_15  and  C_18 
REMARK    4  A    between atoms: C_19  and  C_22 
REMARK    5  A    between atoms: C_20  and  C_23 
REMARK    6  A    between atoms: C_21  and  C_24 
ROOT
HETATM    1  O   UNL     1      59.422  39.443   8.520  1.00  0.00    -0.304 OA
HETATM    2  O   UNL     1      58.645  35.613   5.127  1.00  0.00    -0.304 OA
HETATM    3  O   UNL     1      60.203  34.354   9.410  1.00  0.00    -0.304 OA
HETATM    4  O   UNL     1      57.691  37.577   8.025  1.00  0.00    -0.270 OA
HETATM    5  O   UNL     1      58.688  36.851  10.699  1.00  0.00    -0.270 OA
HETATM    6  O   UNL     1      58.952  32.499   5.973  1.00  0.00    -0.270 OA
HETATM    7  O   UNL     1      61.231  38.200   7.811  1.00  0.00    -0.263 OA
HETATM    8  O   UNL     1      56.726  34.372   5.402  1.00  0.00    -0.263 OA
HETATM    9  O   UNL     1      61.246  32.471  10.210  1.00  0.00    -0.263 OA
HETATM   10  N   UNL     1      57.529  37.913   5.742  1.00  0.00    -0.340 N 
HETATM   11  N   UNL     1      60.979  37.088  10.414  1.00  0.00    -0.340 N 
HETATM   12  N   UNL     1      60.681  33.798   6.829  1.00  0.00    -0.340 N 
HETATM   13  C   UNL     1      56.600  36.770   5.620  1.00  0.00     0.190 C 
HETATM   14  C   UNL     1      60.827  38.540  10.186  1.00  0.00     0.190 C 
HETATM   15  C   UNL     1      61.071  32.772   7.819  1.00  0.00     0.190 C 
HETATM   16  C   UNL     1      58.868  39.484   7.187  1.00  0.00     0.227 C 
HETATM   17  C   UNL     1      59.472  34.499   4.749  1.00  0.00     0.227 C 
HETATM   18  C   UNL     1      59.953  34.822  10.749  1.00  0.00     0.227 C 
HETATM   19  C   UNL     1      57.986  38.243   7.026  1.00  0.00     0.250 C 
HETATM   20  C   UNL     1      59.808  36.337  10.624  1.00  0.00     0.250 C 
HETATM   21  C   UNL     1      59.662  33.506   5.906  1.00  0.00     0.250 C 
HETATM   22  C   UNL     1      60.554  38.699   8.700  1.00  0.00     0.283 C 
HETATM   23  C   UNL     1      57.321  35.444   5.389  1.00  0.00     0.283 C 
HETATM   24  C   UNL     1      60.870  33.174   9.278  1.00  0.00     0.283 C 
HETATM   25  C   UNL     1      57.937  38.598   4.512  1.00  0.00     0.153 C 
HETATM   26  C   UNL     1      62.332  36.526  10.371  1.00  0.00     0.153 C 
HETATM   27  C   UNL     1      61.504  35.006   6.748  1.00  0.00     0.153 C 
ENDROOT
BRANCH  16  28
HETATM   28  C   UNL     1      58.034  40.753   7.096  1.00  0.00     0.016 C 
HETATM   29  C   UNL     1      56.865  40.702   8.078  1.00  0.00     0.012 C 
HETATM   30  C   UNL     1      58.896  41.988   7.356  1.00  0.00     0.012 C 
ENDBRANCH  16  28
BRANCH  14  31
HETATM   31  C   UNL     1      62.009  39.408  10.600  1.00  0.00     0.010 C 
HETATM   32  C   UNL     1      61.966  40.754   9.879  1.00  0.00     0.012 C 
HETATM   33  C   UNL     1      62.023  39.611  12.113  1.00  0.00     0.012 C 
ENDBRANCH  14  31
BRANCH  13  34
HETATM   34  C   UNL     1      55.522  36.963   4.554  1.00  0.00     0.010 C 
HETATM   35  C   UNL     1      54.137  36.665   5.127  1.00  0.00     0.012 C 
HETATM   36  C   UNL     1      55.799  36.080   3.339  1.00  0.00     0.012 C 
ENDBRANCH  13  34
BRANCH  18  37
HETATM   37  C   UNL     1      58.670  34.174  11.262  1.00  0.00     0.016 C 
HETATM   38  C   UNL     1      57.887  33.544  10.109  1.00  0.00     0.012 C 
HETATM   39  C   UNL     1      58.982  33.129  12.331  1.00  0.00     0.012 C 
ENDBRANCH  18  37
BRANCH  17  40
HETATM   40  C   UNL     1      58.970  33.826   3.471  1.00  0.00     0.016 C 
HETATM   41  C   UNL     1      59.837  32.619   3.123  1.00  0.00     0.012 C 
HETATM   42  C   UNL     1      58.947  34.823   2.314  1.00  0.00     0.012 C 
ENDBRANCH  17  40
BRANCH  15  43
HETATM   43  C   UNL     1      62.505  32.293   7.587  1.00  0.00     0.010 C 
HETATM   44  C   UNL     1      63.447  32.915   8.615  1.00  0.00     0.012 C 
HETATM   45  C   UNL     1      62.575  30.770   7.645  1.00  0.00     0.012 C 
ENDBRANCH  15  43
TORSDOF 6
ENDMDL
MODEL 11
REMARK VINA RESULT:    -4.355      2.973      7.153
REMARK INTER + INTRA:          -4.760
REMARK INTER:                  -5.569
REMARK INTRA:                   0.808
REMARK UNBOUND:                 1.122
REMARK  6 active torsions:
REMARK  status: ('A' for Active; 'I' for Inactive)
REMARK    1  A    between atoms: C_13  and  C_16 
REMARK    2  A    between atoms: C_14  and  C_17 
REMARK    3  A    between atoms: C_15  and  C_18 
REMARK    4  A    between atoms: C_19  and  C_22 
REMARK    5  A    between atoms: C_20  and  C_23 
REMARK    6  A    between atoms: C_21  and  C_24 
ROOT
HETATM    1  O   UNL     1      45.492  35.375   3.156  1.00  0.00    -0.304 OA
HETATM    2  O   UNL     1      48.618  38.131   0.088  1.00  0.00    -0.304 OA
HETATM    3  O   UNL     1      43.978  38.510  -0.740  1.00  0.00    -0.304 OA
HETATM    4  O   UNL     1      46.280  37.825   2.846  1.00  0.00    -0.270 OA
HETATM    5  O   UNL     1      43.381  38.003   2.355  1.00  0.00    -0.270 OA
HETATM    6  O   UNL     1      47.451  40.212  -2.107  1.00  0.00    -0.270 OA
HETATM    7  O   UNL     1      45.564  34.878   0.905  1.00  0.00    -0.263 OA
HETATM    8  O   UNL     1      48.775  40.384   0.540  1.00  0.00    -0.263 OA
HETATM    9  O   UNL     1      42.760  39.207  -2.558  1.00  0.00    -0.263 OA
HETATM   10  N   UNL     1      48.539  37.390   2.610  1.00  0.00    -0.340 N 
HETATM   11  N   UNL     1      43.043  36.192   0.945  1.00  0.00    -0.340 N 
HETATM   12  N   UNL     1      46.268  38.208  -2.105  1.00  0.00    -0.340 N 
HETATM   13  C   UNL     1      48.811  38.824   2.379  1.00  0.00     0.190 C 
HETATM   14  C   UNL     1      43.431  35.251   2.016  1.00  0.00     0.190 C 
HETATM   15  C   UNL     1      45.124  38.789  -2.837  1.00  0.00     0.190 C 
HETATM   16  C   UNL     1      46.925  35.550   3.210  1.00  0.00     0.227 C 
HETATM   17  C   UNL     1      48.654  38.279  -1.342  1.00  0.00     0.227 C 
HETATM   18  C   UNL     1      42.807  38.542   0.097  1.00  0.00     0.227 C 
HETATM   19  C   UNL     1      47.213  37.015   2.870  1.00  0.00     0.250 C 
HETATM   20  C   UNL     1      43.100  37.567   1.234  1.00  0.00     0.250 C 
HETATM   21  C   UNL     1      47.408  39.000  -1.877  1.00  0.00     0.250 C 
HETATM   22  C   UNL     1      44.942  35.126   1.930  1.00  0.00     0.283 C 
HETATM   23  C   UNL     1      48.717  39.214   0.905  1.00  0.00     0.283 C 
HETATM   24  C   UNL     1      43.817  38.850  -2.049  1.00  0.00     0.283 C 
HETATM   25  C   UNL     1      49.664  36.455   2.514  1.00  0.00     0.153 C 
HETATM   26  C   UNL     1      42.663  35.630  -0.355  1.00  0.00     0.153 C 
HETATM   27  C   UNL     1      46.225  36.775  -1.810  1.00  0.00     0.153 C 
ENDROOT
BRANCH  16  28
HETATM   28  C   UNL     1      47.353  35.235   4.636  1.00  0.00     0.016 C 
HETATM   29  C   UNL     1      46.148  35.243   5.576  1.00  0.00     0.012 C 
HETATM   30  C   UNL     1      48.071  33.887   4.699  1.00  0.00     0.012 C 
ENDBRANCH  16  28
BRANCH  14  31
HETATM   31  C   UNL     1      42.785  33.872   1.959  1.00  0.00     0.010 C 
HETATM   32  C   UNL     1      43.597  32.865   2.771  1.00  0.00     0.012 C 
HETATM   33  C   UNL     1      41.346  33.931   2.464  1.00  0.00     0.012 C 
ENDBRANCH  14  31
BRANCH  13  34
HETATM   34  C   UNL     1      50.146  39.298   2.953  1.00  0.00     0.010 C 
HETATM   35  C   UNL     1      49.933  40.453   3.931  1.00  0.00     0.012 C 
HETATM   36  C   UNL     1      51.099  39.713   1.835  1.00  0.00     0.012 C 
ENDBRANCH  13  34
BRANCH  18  37
HETATM   37  C   UNL     1      42.613  39.966   0.612  1.00  0.00     0.016 C 
HETATM   38  C   UNL     1      43.817  40.837   0.254  1.00  0.00     0.012 C 
HETATM   39  C   UNL     1      41.328  40.573   0.051  1.00  0.00     0.012 C 
ENDBRANCH  18  37
BRANCH  17  40
HETATM   40  C   UNL     1      49.957  38.925  -1.814  1.00  0.00     0.016 C 
HETATM   41  C   UNL     1      49.965  39.071  -3.334  1.00  0.00     0.012 C 
HETATM   42  C   UNL     1      51.161  38.110  -1.346  1.00  0.00     0.012 C 
ENDBRANCH  17  40
BRANCH  15  43
HETATM   43  C   UNL     1      44.908  38.087  -4.179  1.00  0.00     0.010 C 
HETATM   44  C   UNL     1      44.019  38.933  -5.087  1.00  0.00     0.012 C 
HETATM   45  C   UNL     1      46.246  37.799  -4.852  1.00  0.00     0.012 C 
ENDBRANCH  15  43
TORSDOF 6
ENDMDL
MODEL 12
REMARK VINA RESULT:    -4.352      3.185      7.149
REMARK INTER + INTRA:          -4.756
REMARK INTER:                  -5.576
REMARK INTRA:                   0.820
REMARK UNBOUND:                 1.122
REMARK  6 active torsions:
REMARK  status: ('A' for Active; 'I' for Inactive)
REMARK    1  A    between atoms: C_13  and  C_16 
REMARK    2  A    between atoms: C_14  and  C_17 
REMARK    3  A    between atoms: C_15  and  C_18 
REMARK    4  A    between atoms: C_19  and  C_22 
REMARK    5  A    between atoms: C_20  and  C_23 
REMARK    6  A    between atoms: C_21  and  C_24 
ROOT
HETATM    1  O   UNL     1      47.908  37.460   2.632  1.00  0.00    -0.304 OA
HETATM    2  O   UNL     1      46.390  38.464  -2.213  1.00  0.00    -0.304 OA
HETATM    3  O   UNL     1      42.973  37.528   0.918  1.00  0.00    -0.304 OA
HETATM    4  O   UNL     1      46.849  39.392   1.265  1.00  0.00    -0.270 OA
HETATM    5  O   UNL     1      44.762  38.774   3.249  1.00  0.00    -0.270 OA
HETATM    6  O   UNL     1      43.255  38.704  -3.002  1.00  0.00    -0.270 OA
HETATM    7  O   UNL     1      46.865  35.795   1.424  1.00  0.00    -0.263 OA
HETATM    8  O   UNL     1      45.529  40.564  -2.604  1.00  0.00    -0.263 OA
HETATM    9  O   UNL     1      40.787  36.856   0.702  1.00  0.00    -0.263 OA
HETATM   10  N   UNL     1      48.265  39.283  -0.560  1.00  0.00    -0.340 N 
HETATM   11  N   UNL     1      44.701  36.457   3.144  1.00  0.00    -0.340 N 
HETATM   12  N   UNL     1      43.654  36.892  -1.598  1.00  0.00    -0.340 N 
HETATM   13  C   UNL     1      47.505  40.354  -1.238  1.00  0.00     0.190 C 
HETATM   14  C   UNL     1      46.084  36.370   3.656  1.00  0.00     0.190 C 
HETATM   15  C   UNL     1      42.228  36.754  -1.236  1.00  0.00     0.190 C 
HETATM   16  C   UNL     1      48.683  37.871   1.484  1.00  0.00     0.227 C 
HETATM   17  C   UNL     1      45.470  37.779  -3.080  1.00  0.00     0.227 C 
HETATM   18  C   UNL     1      42.774  37.833   2.311  1.00  0.00     0.227 C 
HETATM   19  C   UNL     1      47.850  38.908   0.725  1.00  0.00     0.250 C 
HETATM   20  C   UNL     1      44.160  37.740   2.944  1.00  0.00     0.250 C 
HETATM   21  C   UNL     1      44.027  37.849  -2.557  1.00  0.00     0.250 C 
HETATM   22  C   UNL     1      46.984  36.473   2.436  1.00  0.00     0.283 C 
HETATM   23  C   UNL     1      46.351  39.818  -2.082  1.00  0.00     0.283 C 
HETATM   24  C   UNL     1      41.906  37.032   0.231  1.00  0.00     0.283 C 
HETATM   25  C   UNL     1      49.373  38.662  -1.291  1.00  0.00     0.153 C 
HETATM   26  C   UNL     1      44.001  35.204   2.845  1.00  0.00     0.153 C 
HETATM   27  C   UNL     1      44.586  35.896  -1.066  1.00  0.00     0.153 C 
ENDROOT
BRANCH  16  28
HETATM   28  C   UNL     1      49.963  38.496   2.019  1.00  0.00     0.016 C 
HETATM   29  C   UNL     1      49.649  39.525   3.104  1.00  0.00     0.012 C 
HETATM   30  C   UNL     1      50.906  37.421   2.559  1.00  0.00     0.012 C 
ENDBRANCH  16  28
BRANCH  14  31
HETATM   31  C   UNL     1      46.422  35.118   4.456  1.00  0.00     0.010 C 
HETATM   32  C   UNL     1      47.874  34.706   4.220  1.00  0.00     0.012 C 
HETATM   33  C   UNL     1      46.164  35.344   5.943  1.00  0.00     0.012 C 
ENDBRANCH  14  31
BRANCH  13  34
HETATM   34  C   UNL     1      48.374  41.285  -2.085  1.00  0.00     0.010 C 
HETATM   35  C   UNL     1      48.107  42.746  -1.726  1.00  0.00     0.012 C 
HETATM   36  C   UNL     1      48.130  41.047  -3.573  1.00  0.00     0.012 C 
ENDBRANCH  13  34
BRANCH  18  37
HETATM   37  C   UNL     1      42.196  39.241   2.425  1.00  0.00     0.016 C 
HETATM   38  C   UNL     1      42.351  39.996   1.104  1.00  0.00     0.012 C 
HETATM   39  C   UNL     1      40.728  39.191   2.843  1.00  0.00     0.012 C 
ENDBRANCH  18  37
BRANCH  17  40
HETATM   40  C   UNL     1      45.596  38.250  -4.529  1.00  0.00     0.016 C 
HETATM   41  C   UNL     1      44.580  37.535  -5.417  1.00  0.00     0.012 C 
HETATM   42  C   UNL     1      47.016  38.022  -5.045  1.00  0.00     0.012 C 
ENDBRANCH  17  40
BRANCH  15  43
HETATM   43  C   UNL     1      41.677  35.391  -1.656  1.00  0.00     0.010 C 
HETATM   44  C   UNL     1      41.552  34.470  -0.445  1.00  0.00     0.012 C 
HETATM   45  C   UNL     1      40.328  35.552  -2.351  1.00  0.00     0.012 C 
ENDBRANCH  15  43
TORSDOF 6
ENDMDL
MODEL 13
REMARK VINA RESULT:    -4.347      2.870      7.336
REMARK INTER + INTRA:          -4.749
REMARK INTER:                  -5.711
REMARK INTRA:                   0.961
REMARK UNBOUND:                 1.122
REMARK  6 active torsions:
REMARK  status: ('A' for Active; 'I' for Inactive)
REMARK    1  A    between atoms: C_13  and  C_16 
REMARK    2  A    between atoms: C_14  and  C_17 
REMARK    3  A    between atoms: C_15  and  C_18 
REMARK    4  A    between atoms: C_19  and  C_22 
REMARK    5  A    between atoms: C_20  and  C_23 
REMARK    6  A    between atoms: C_21  and  C_24 
ROOT
HETATM    1  O   UNL     1      45.184  38.420  -2.424  1.00  0.00    -0.304 OA
HETATM    2  O   UNL     1      43.328  36.406   1.967  1.00  0.00    -0.304 OA
HETATM    3  O   UNL     1      48.015  36.980   1.725  1.00  0.00    -0.304 OA
HETATM    4  O   UNL     1      44.695  39.143   0.016  1.00  0.00    -0.270 OA
HETATM    5  O   UNL     1      47.611  39.496  -0.198  1.00  0.00    -0.270 OA
HETATM    6  O   UNL     1      45.243  35.819   4.516  1.00  0.00    -0.270 OA
HETATM    7  O   UNL     1      45.765  36.261  -1.857  1.00  0.00    -0.263 OA
HETATM    8  O   UNL     1      43.194  37.829   3.772  1.00  0.00    -0.263 OA
HETATM    9  O   UNL     1      49.771  36.062   2.886  1.00  0.00    -0.263 OA
HETATM   10  N   UNL     1      42.590  38.204   0.195  1.00  0.00    -0.340 N 
HETATM   11  N   UNL     1      48.237  37.516  -1.234  1.00  0.00    -0.340 N 
HETATM   12  N   UNL     1      46.231  35.141   2.522  1.00  0.00    -0.340 N 
HETATM   13  C   UNL     1      42.497  38.630   1.607  1.00  0.00     0.190 C 
HETATM   14  C   UNL     1      47.481  37.881  -2.449  1.00  0.00     0.190 C 
HETATM   15  C   UNL     1      47.580  35.069   3.121  1.00  0.00     0.190 C 
HETATM   16  C   UNL     1      43.818  38.212  -2.005  1.00  0.00     0.227 C 
HETATM   17  C   UNL     1      43.737  35.259   2.731  1.00  0.00     0.227 C 
HETATM   18  C   UNL     1      48.878  37.979   1.149  1.00  0.00     0.227 C 
HETATM   19  C   UNL     1      43.746  38.557  -0.515  1.00  0.00     0.250 C 
HETATM   20  C   UNL     1      48.189  38.406  -0.146  1.00  0.00     0.250 C 
HETATM   21  C   UNL     1      45.133  35.444   3.345  1.00  0.00     0.250 C 
HETATM   22  C   UNL     1      46.062  37.393  -2.215  1.00  0.00     0.283 C 
HETATM   23  C   UNL     1      43.059  37.592   2.576  1.00  0.00     0.283 C 
HETATM   24  C   UNL     1      48.587  36.072   2.564  1.00  0.00     0.283 C 
HETATM   25  C   UNL     1      41.486  37.410  -0.355  1.00  0.00     0.153 C 
HETATM   26  C   UNL     1      48.955  36.237  -1.232  1.00  0.00     0.153 C 
HETATM   27  C   UNL     1      46.086  34.715   1.128  1.00  0.00     0.153 C 
ENDROOT
BRANCH  16  28
HETATM   28  C   UNL     1      42.958  39.166  -2.820  1.00  0.00     0.016 C 
HETATM   29  C   UNL     1      43.778  40.368  -3.286  1.00  0.00     0.012 C 
HETATM   30  C   UNL     1      42.337  38.447  -4.018  1.00  0.00     0.012 C 
ENDBRANCH  16  28
BRANCH  14  31
HETATM   31  C   UNL     1      48.019  37.325  -3.762  1.00  0.00     0.010 C 
HETATM   32  C   UNL     1      46.935  37.345  -4.838  1.00  0.00     0.012 C 
HETATM   33  C   UNL     1      49.242  38.117  -4.219  1.00  0.00     0.012 C 
ENDBRANCH  14  31
BRANCH  13  34
HETATM   34  C   UNL     1      41.087  39.028   2.039  1.00  0.00     0.010 C 
HETATM   35  C   UNL     1      41.139  40.057   3.168  1.00  0.00     0.012 C 
HETATM   36  C   UNL     1      40.287  37.801   2.471  1.00  0.00     0.012 C 
ENDBRANCH  13  34
BRANCH  18  37
HETATM   37  C   UNL     1      49.002  39.141   2.131  1.00  0.00     0.016 C 
HETATM   38  C   UNL     1      48.022  38.973   3.292  1.00  0.00     0.012 C 
HETATM   39  C   UNL     1      50.433  39.258   2.651  1.00  0.00     0.012 C 
ENDBRANCH  18  37
BRANCH  17  40
HETATM   40  C   UNL     1      42.685  34.862   3.767  1.00  0.00     0.016 C 
HETATM   41  C   UNL     1      43.193  33.713   4.636  1.00  0.00     0.012 C 
HETATM   42  C   UNL     1      41.375  34.479   3.082  1.00  0.00     0.012 C 
ENDBRANCH  17  40
BRANCH  15  43
HETATM   43  C   UNL     1      48.144  33.649   3.051  1.00  0.00     0.010 C 
HETATM   44  C   UNL     1      49.187  33.543   1.940  1.00  0.00     0.012 C 
HETATM   45  C   UNL     1      48.746  33.247   4.394  1.00  0.00     0.012 C 
ENDBRANCH  15  43
TORSDOF 6
ENDMDL
MODEL 14
REMARK VINA RESULT:    -4.331      2.181      6.878
REMARK INTER + INTRA:          -4.727
REMARK INTER:                  -5.459
REMARK INTRA:                   0.732
REMARK UNBOUND:                 1.122
REMARK  6 active torsions:
REMARK  status: ('A' for Active; 'I' for Inactive)
REMARK    1  A    between atoms: C_13  and  C_16 
REMARK    2  A    between atoms: C_14  and  C_17 
REMARK    3  A    between atoms: C_15  and  C_18 
REMARK    4  A    between atoms: C_19  and  C_22 
REMARK    5  A    between atoms: C_20  and  C_23 
REMARK    6  A    between atoms: C_21  and  C_24 
ROOT
HETATM    1  O   UNL     1      46.231  38.738   1.378  1.00  0.00    -0.304 OA
HETATM    2  O   UNL     1      48.499  34.178   2.295  1.00  0.00    -0.304 OA
HETATM    3  O   UNL     1      51.374  37.812   1.353  1.00  0.00    -0.304 OA
HETATM    4  O   UNL     1      47.521  37.532   3.276  1.00  0.00    -0.270 OA
HETATM    5  O   UNL     1      49.263  39.823   2.656  1.00  0.00    -0.270 OA
HETATM    6  O   UNL     1      51.722  33.884   2.480  1.00  0.00    -0.270 OA
HETATM    7  O   UNL     1      47.422  37.727  -0.318  1.00  0.00    -0.263 OA
HETATM    8  O   UNL     1      49.444  33.902   4.377  1.00  0.00    -0.263 OA
HETATM    9  O   UNL     1      53.555  37.946   0.648  1.00  0.00    -0.263 OA
HETATM   10  N   UNL     1      46.404  35.510   3.162  1.00  0.00    -0.340 N 
HETATM   11  N   UNL     1      49.304  39.754   0.337  1.00  0.00    -0.340 N 
HETATM   12  N   UNL     1      51.081  35.228   0.693  1.00  0.00    -0.340 N 
HETATM   13  C   UNL     1      47.276  34.946   4.214  1.00  0.00     0.190 C 
HETATM   14  C   UNL     1      47.857  40.046   0.276  1.00  0.00     0.190 C 
HETATM   15  C   UNL     1      52.431  35.810   0.541  1.00  0.00     0.190 C 
HETATM   16  C   UNL     1      45.651  37.480   1.784  1.00  0.00     0.227 C 
HETATM   17  C   UNL     1      49.532  33.473   1.585  1.00  0.00     0.227 C 
HETATM   18  C   UNL     1      51.358  39.216   1.675  1.00  0.00     0.227 C 
HETATM   19  C   UNL     1      46.608  36.848   2.798  1.00  0.00     0.250 C 
HETATM   20  C   UNL     1      49.889  39.627   1.609  1.00  0.00     0.250 C 
HETATM   21  C   UNL     1      50.877  34.212   1.642  1.00  0.00     0.250 C 
HETATM   22  C   UNL     1      47.159  38.700   0.375  1.00  0.00     0.283 C 
HETATM   23  C   UNL     1      48.539  34.298   3.650  1.00  0.00     0.283 C 
HETATM   24  C   UNL     1      52.526  37.305   0.834  1.00  0.00     0.283 C 
HETATM   25  C   UNL     1      45.412  34.623   2.547  1.00  0.00     0.153 C 
HETATM   26  C   UNL     1      50.021  39.582  -0.930  1.00  0.00     0.153 C 
HETATM   27  C   UNL     1      50.062  35.620  -0.283  1.00  0.00     0.153 C 
ENDROOT
BRANCH  16  28
HETATM   28  C   UNL     1      44.313  37.802   2.434  1.00  0.00     0.016 C 
HETATM   29  C   UNL     1      44.390  39.121   3.202  1.00  0.00     0.012 C 
HETATM   30  C   UNL     1      43.202  37.857   1.387  1.00  0.00     0.012 C 
ENDBRANCH  16  28
BRANCH  14  31
HETATM   31  C   UNL     1      47.379  40.797  -0.960  1.00  0.00     0.010 C 
HETATM   32  C   UNL     1      45.866  40.659  -1.121  1.00  0.00     0.012 C 
HETATM   33  C   UNL     1      47.776  42.269  -0.882  1.00  0.00     0.012 C 
ENDBRANCH  14  31
BRANCH  13  34
HETATM   34  C   UNL     1      46.565  33.965   5.144  1.00  0.00     0.010 C 
HETATM   35  C   UNL     1      46.662  34.431   6.596  1.00  0.00     0.012 C 
HETATM   36  C   UNL     1      47.144  32.560   4.994  1.00  0.00     0.012 C 
ENDBRANCH  13  34
BRANCH  18  37
HETATM   37  C   UNL     1      51.934  39.403   3.076  1.00  0.00     0.016 C 
HETATM   38  C   UNL     1      52.197  38.049   3.735  1.00  0.00     0.012 C 
HETATM   39  C   UNL     1      53.216  40.232   3.028  1.00  0.00     0.012 C 
ENDBRANCH  18  37
BRANCH  17  40
HETATM   40  C   UNL     1      49.640  32.016   2.038  1.00  0.00     0.016 C 
HETATM   41  C   UNL     1      50.744  31.294   1.269  1.00  0.00     0.012 C 
HETATM   42  C   UNL     1      48.303  31.298   1.860  1.00  0.00     0.012 C 
ENDBRANCH  17  40
BRANCH  15  43
HETATM   43  C   UNL     1      53.020  35.496  -0.836  1.00  0.00     0.010 C 
HETATM   44  C   UNL     1      52.940  36.721  -1.742  1.00  0.00     0.012 C 
HETATM   45  C   UNL     1      54.462  35.016  -0.703  1.00  0.00     0.012 C 
ENDBRANCH  15  43
TORSDOF 6
ENDMDL
MODEL 15
REMARK VINA RESULT:    -4.326     11.557     15.297
REMARK INTER + INTRA:          -4.721
REMARK INTER:                  -5.432
REMARK INTRA:                   0.711
REMARK UNBOUND:                 1.122
REMARK  6 active torsions:
REMARK  status: ('A' for Active; 'I' for Inactive)
REMARK    1  A    between atoms: C_13  and  C_16 
REMARK    2  A    between atoms: C_14  and  C_17 
REMARK    3  A    between atoms: C_15  and  C_18 
REMARK    4  A    between atoms: C_19  and  C_22 
REMARK    5  A    between atoms: C_20  and  C_23 
REMARK    6  A    between atoms: C_21  and  C_24 
ROOT
HETATM    1  O   UNL     1      59.217  33.856   5.415  1.00  0.00    -0.304 OA
HETATM    2  O   UNL     1      60.610  34.552  10.350  1.00  0.00    -0.304 OA
HETATM    3  O   UNL     1      59.748  38.459   7.830  1.00  0.00    -0.304 OA
HETATM    4  O   UNL     1      58.139  34.457   7.694  1.00  0.00    -0.270 OA
HETATM    5  O   UNL     1      57.617  36.858   6.071  1.00  0.00    -0.270 OA
HETATM    6  O   UNL     1      60.630  37.492  11.717  1.00  0.00    -0.270 OA
HETATM    7  O   UNL     1      61.206  34.932   5.869  1.00  0.00    -0.263 OA
HETATM    8  O   UNL     1      58.922  35.070  11.829  1.00  0.00    -0.263 OA
HETATM    9  O   UNL     1      60.333  40.663   8.101  1.00  0.00    -0.263 OA
HETATM   10  N   UNL     1      59.186  32.831   8.962  1.00  0.00    -0.340 N 
HETATM   11  N   UNL     1      59.691  37.207   5.088  1.00  0.00    -0.340 N 
HETATM   12  N   UNL     1      61.554  37.528   9.582  1.00  0.00    -0.340 N 
HETATM   13  C   UNL     1      58.540  33.344  10.189  1.00  0.00     0.190 C 
HETATM   14  C   UNL     1      59.586  35.930   4.352  1.00  0.00     0.190 C 
HETATM   15  C   UNL     1      61.429  38.996   9.465  1.00  0.00     0.190 C 
HETATM   16  C   UNL     1      59.451  32.884   6.457  1.00  0.00     0.227 C 
HETATM   17  C   UNL     1      61.583  35.426  10.946  1.00  0.00     0.227 C 
HETATM   18  C   UNL     1      58.797  38.805   6.805  1.00  0.00     0.227 C 
HETATM   19  C   UNL     1      58.872  33.463   7.751  1.00  0.00     0.250 C 
HETATM   20  C   UNL     1      58.640  37.543   5.961  1.00  0.00     0.250 C 
HETATM   21  C   UNL     1      61.199  36.905  10.791  1.00  0.00     0.250 C 
HETATM   22  C   UNL     1      60.130  34.866   5.290  1.00  0.00     0.283 C 
HETATM   23  C   UNL     1      59.361  34.432  10.878  1.00  0.00     0.283 C 
HETATM   24  C   UNL     1      60.461  39.477   8.387  1.00  0.00     0.283 C 
HETATM   25  C   UNL     1      60.136  31.723   9.100  1.00  0.00     0.153 C 
HETATM   26  C   UNL     1      60.896  38.016   4.888  1.00  0.00     0.153 C 
HETATM   27  C   UNL     1      62.212  36.816   8.485  1.00  0.00     0.153 C 
ENDROOT
BRANCH  16  28
HETATM   28  C   UNL     1      58.708  31.619   6.054  1.00  0.00     0.016 C 
HETATM   29  C   UNL     1      57.439  31.964   5.275  1.00  0.00     0.012 C 
HETATM   30  C   UNL     1      59.610  30.702   5.228  1.00  0.00     0.012 C 
ENDBRANCH  16  28
BRANCH  14  31
HETATM   31  C   UNL     1      60.310  35.871   3.012  1.00  0.00     0.010 C 
HETATM   32  C   UNL     1      60.581  34.422   2.612  1.00  0.00     0.012 C 
HETATM   33  C   UNL     1      59.499  36.582   1.932  1.00  0.00     0.012 C 
ENDBRANCH  14  31
BRANCH  13  34
HETATM   34  C   UNL     1      58.179  32.254  11.197  1.00  0.00     0.010 C 
HETATM   35  C   UNL     1      56.683  32.280  11.506  1.00  0.00     0.012 C 
HETATM   36  C   UNL     1      58.992  32.413  12.480  1.00  0.00     0.012 C 
ENDBRANCH  13  34
BRANCH  18  37
HETATM   37  C   UNL     1      57.483  39.205   7.472  1.00  0.00     0.016 C 
HETATM   38  C   UNL     1      57.470  38.773   8.938  1.00  0.00     0.012 C 
HETATM   39  C   UNL     1      57.255  40.711   7.356  1.00  0.00     0.012 C 
ENDBRANCH  18  37
BRANCH  17  40
HETATM   40  C   UNL     1      61.879  35.042  12.396  1.00  0.00     0.016 C 
HETATM   41  C   UNL     1      62.919  35.983  13.000  1.00  0.00     0.012 C 
HETATM   42  C   UNL     1      62.351  33.592  12.482  1.00  0.00     0.012 C 
ENDBRANCH  17  40
BRANCH  15  43
HETATM   43  C   UNL     1      62.797  39.658   9.291  1.00  0.00     0.010 C 
HETATM   44  C   UNL     1      63.010  40.067   7.836  1.00  0.00     0.012 C 
HETATM   45  C   UNL     1      62.927  40.865  10.214  1.00  0.00     0.012 C 
ENDBRANCH  15  43
TORSDOF 6
ENDMDL
MODEL 16
REMARK VINA RESULT:    -4.200      5.480     10.402
REMARK INTER + INTRA:          -4.551
REMARK INTER:                  -5.256
REMARK INTRA:                   0.705
REMARK UNBOUND:                 1.122
REMARK  6 active torsions:
REMARK  status: ('A' for Active; 'I' for Inactive)
REMARK    1  A    between atoms: C_13  and  C_16 
REMARK    2  A    between atoms: C_14  and  C_17 
REMARK    3  A    between atoms: C_15  and  C_18 
REMARK    4  A    between atoms: C_19  and  C_22 
REMARK    5  A    between atoms: C_20  and  C_23 
REMARK    6  A    between atoms: C_21  and  C_24 
ROOT
HETATM    1  O   UNL     1      55.261  37.719   2.690  1.00  0.00    -0.304 OA
HETATM    2  O   UNL     1      54.232  42.790   2.772  1.00  0.00    -0.304 OA
HETATM    3  O   UNL     1      50.730  39.949   1.351  1.00  0.00    -0.304 OA
HETATM    4  O   UNL     1      53.980  39.440   4.144  1.00  0.00    -0.270 OA
HETATM    5  O   UNL     1      51.842  37.628   3.240  1.00  0.00    -0.270 OA
HETATM    6  O   UNL     1      51.267  43.938   2.142  1.00  0.00    -0.270 OA
HETATM    7  O   UNL     1      54.812  38.796   0.701  1.00  0.00    -0.263 OA
HETATM    8  O   UNL     1      52.968  43.552   4.539  1.00  0.00    -0.263 OA
HETATM    9  O   UNL     1      48.812  40.307   0.139  1.00  0.00    -0.263 OA
HETATM   10  N   UNL     1      55.619  41.070   4.199  1.00  0.00    -0.340 N 
HETATM   11  N   UNL     1      52.337  37.425   0.982  1.00  0.00    -0.340 N 
HETATM   12  N   UNL     1      51.880  42.267   0.643  1.00  0.00    -0.340 N 
HETATM   13  C   UNL     1      54.731  41.965   4.971  1.00  0.00     0.190 C 
HETATM   14  C   UNL     1      53.618  36.760   1.295  1.00  0.00     0.190 C 
HETATM   15  C   UNL     1      50.489  42.046   0.195  1.00  0.00     0.190 C 
HETATM   16  C   UNL     1      56.070  38.821   3.158  1.00  0.00     0.227 C 
HETATM   17  C   UNL     1      53.625  43.650   1.793  1.00  0.00     0.227 C 
HETATM   18  C   UNL     1      50.276  38.639   1.742  1.00  0.00     0.227 C 
HETATM   19  C   UNL     1      55.130  39.799   3.870  1.00  0.00     0.250 C 
HETATM   20  C   UNL     1      51.545  37.854   2.063  1.00  0.00     0.250 C 
HETATM   21  C   UNL     1      52.148  43.301   1.557  1.00  0.00     0.250 C 
HETATM   22  C   UNL     1      54.629  37.877   1.489  1.00  0.00     0.283 C 
HETATM   23  C   UNL     1      53.861  42.849   4.080  1.00  0.00     0.283 C 
HETATM   24  C   UNL     1      49.913  40.674   0.537  1.00  0.00     0.283 C 
HETATM   25  C   UNL     1      56.931  41.587   3.799  1.00  0.00     0.153 C 
HETATM   26  C   UNL     1      51.997  37.626  -0.430  1.00  0.00     0.153 C 
HETATM   27  C   UNL     1      52.937  41.508  -0.029  1.00  0.00     0.153 C 
ENDROOT
BRANCH  16  28
HETATM   28  C   UNL     1      57.083  38.241   4.134  1.00  0.00     0.016 C 
HETATM   29  C   UNL     1      56.574  36.925   4.721  1.00  0.00     0.012 C 
HETATM   30  C   UNL     1      58.434  38.034   3.451  1.00  0.00     0.012 C 
ENDBRANCH  16  28
BRANCH  14  31
HETATM   31  C   UNL     1      54.126  35.766   0.257  1.00  0.00     0.010 C 
HETATM   32  C   UNL     1      55.630  35.550   0.411  1.00  0.00     0.012 C 
HETATM   33  C   UNL     1      53.379  34.440   0.373  1.00  0.00     0.012 C 
ENDBRANCH  14  31
BRANCH  13  34
HETATM   34  C   UNL     1      55.467  42.831   5.994  1.00  0.00     0.010 C 
HETATM   35  C   UNL     1      54.889  42.622   7.393  1.00  0.00     0.012 C 
HETATM   36  C   UNL     1      55.400  44.305   5.602  1.00  0.00     0.012 C 
ENDBRANCH  13  34
BRANCH  18  37
HETATM   37  C   UNL     1      49.375  38.780   2.966  1.00  0.00     0.016 C 
HETATM   38  C   UNL     1      49.548  40.157   3.607  1.00  0.00     0.012 C 
HETATM   39  C   UNL     1      47.914  38.544   2.593  1.00  0.00     0.012 C 
ENDBRANCH  18  37
BRANCH  17  40
HETATM   40  C   UNL     1      53.836  45.128   2.125  1.00  0.00     0.016 C 
HETATM   41  C   UNL     1      53.185  46.015   1.067  1.00  0.00     0.012 C 
HETATM   42  C   UNL     1      55.326  45.443   2.247  1.00  0.00     0.012 C 
ENDBRANCH  17  40
BRANCH  15  43
HETATM   43  C   UNL     1      50.334  42.335  -1.298  1.00  0.00     0.010 C 
HETATM   44  C   UNL     1      50.252  41.031  -2.088  1.00  0.00     0.012 C 
HETATM   45  C   UNL     1      49.100  43.196  -1.550  1.00  0.00     0.012 C 
ENDBRANCH  15  43
TORSDOF 6
ENDMDL
MODEL 17
REMARK VINA RESULT:    -4.127      5.885     10.249
REMARK INTER + INTRA:          -4.452
REMARK INTER:                  -5.445
REMARK INTRA:                   0.993
REMARK UNBOUND:                 1.122
REMARK  6 active torsions:
REMARK  status: ('A' for Active; 'I' for Inactive)
REMARK    1  A    between atoms: C_13  and  C_16 
REMARK    2  A    between atoms: C_14  and  C_17 
REMARK    3  A    between atoms: C_15  and  C_18 
REMARK    4  A    between atoms: C_19  and  C_22 
REMARK    5  A    between atoms: C_20  and  C_23 
REMARK    6  A    between atoms: C_21  and  C_24 
ROOT
HETATM    1  O   UNL     1      49.584  41.081   1.902  1.00  0.00    -0.304 OA
HETATM    2  O   UNL     1      53.211  42.669  -1.430  1.00  0.00    -0.304 OA
HETATM    3  O   UNL     1      48.970  41.651  -3.256  1.00  0.00    -0.304 OA
HETATM    4  O   UNL     1      50.229  43.207   0.567  1.00  0.00    -0.270 OA
HETATM    5  O   UNL     1      47.578  42.532  -0.521  1.00  0.00    -0.270 OA
HETATM    6  O   UNL     1      52.539  43.195  -4.558  1.00  0.00    -0.270 OA
HETATM    7  O   UNL     1      50.318  39.620   0.276  1.00  0.00    -0.263 OA
HETATM    8  O   UNL     1      53.057  44.850  -2.153  1.00  0.00    -0.263 OA
HETATM    9  O   UNL     1      48.254  41.151  -5.380  1.00  0.00    -0.263 OA
HETATM   10  N   UNL     1      52.492  43.190   1.045  1.00  0.00    -0.340 N 
HETATM   11  N   UNL     1      47.790  40.247  -0.862  1.00  0.00    -0.340 N 
HETATM   12  N   UNL     1      51.566  41.228  -3.787  1.00  0.00    -0.340 N 
HETATM   13  C   UNL     1      52.703  44.373   0.185  1.00  0.00     0.190 C 
HETATM   14  C   UNL     1      47.938  40.017   0.590  1.00  0.00     0.190 C 
HETATM   15  C   UNL     1      50.628  41.150  -4.926  1.00  0.00     0.190 C 
HETATM   16  C   UNL     1      50.926  41.554   2.149  1.00  0.00     0.227 C 
HETATM   17  C   UNL     1      53.631  42.138  -2.699  1.00  0.00     0.227 C 
HETATM   18  C   UNL     1      47.613  41.826  -2.806  1.00  0.00     0.227 C 
HETATM   19  C   UNL     1      51.180  42.715   1.184  1.00  0.00     0.250 C 
HETATM   20  C   UNL     1      47.654  41.577  -1.300  1.00  0.00     0.250 C 
HETATM   21  C   UNL     1      52.530  42.251  -3.763  1.00  0.00     0.250 C 
HETATM   22  C   UNL     1      49.418  40.182   0.886  1.00  0.00     0.283 C 
HETATM   23  C   UNL     1      52.992  44.003  -1.269  1.00  0.00     0.283 C 
HETATM   24  C   UNL     1      49.153  41.299  -4.558  1.00  0.00     0.283 C 
HETATM   25  C   UNL     1      53.670  42.574   1.663  1.00  0.00     0.153 C 
HETATM   26  C   UNL     1      47.832  39.080  -1.749  1.00  0.00     0.153 C 
HETATM   27  C   UNL     1      51.556  40.124  -2.825  1.00  0.00     0.153 C 
ENDROOT
BRANCH  16  28
HETATM   28  C   UNL     1      50.965  42.035   3.592  1.00  0.00     0.016 C 
HETATM   29  C   UNL     1      50.403  43.452   3.703  1.00  0.00     0.012 C 
HETATM   30  C   UNL     1      50.191  41.081   4.501  1.00  0.00     0.012 C 
ENDBRANCH  16  28
BRANCH  14  31
HETATM   31  C   UNL     1      47.445  38.670   1.106  1.00  0.00     0.010 C 
HETATM   32  C   UNL     1      48.099  38.337   2.445  1.00  0.00     0.012 C 
HETATM   33  C   UNL     1      45.924  38.669   1.237  1.00  0.00     0.012 C 
ENDBRANCH  14  31
BRANCH  13  34
HETATM   34  C   UNL     1      53.784  45.324   0.698  1.00  0.00     0.010 C 
HETATM   35  C   UNL     1      53.255  46.756   0.764  1.00  0.00     0.012 C 
HETATM   36  C   UNL     1      55.029  45.254  -0.182  1.00  0.00     0.012 C 
ENDBRANCH  13  34
BRANCH  18  37
HETATM   37  C   UNL     1      47.171  43.250  -3.130  1.00  0.00     0.016 C 
HETATM   38  C   UNL     1      48.361  44.091  -3.594  1.00  0.00     0.012 C 
HETATM   39  C   UNL     1      46.072  43.248  -4.190  1.00  0.00     0.012 C 
ENDBRANCH  18  37
BRANCH  17  40
HETATM   40  C   UNL     1      54.958  42.743  -3.156  1.00  0.00     0.016 C 
HETATM   41  C   UNL     1      55.357  42.193  -4.524  1.00  0.00     0.012 C 
HETATM   42  C   UNL     1      56.055  42.474  -2.128  1.00  0.00     0.012 C 
ENDBRANCH  17  40
BRANCH  15  43
HETATM   43  C   UNL     1      50.850  39.876  -5.743  1.00  0.00     0.010 C 
HETATM   44  C   UNL     1      50.204  40.006  -7.120  1.00  0.00     0.012 C 
HETATM   45  C   UNL     1      52.341  39.579  -5.872  1.00  0.00     0.012 C 
ENDBRANCH  15  43
TORSDOF 6
ENDMDL
MODEL 18
REMARK VINA RESULT:    -4.099      5.821      9.104
REMARK INTER + INTRA:          -4.414
REMARK INTER:                  -5.114
REMARK INTRA:                   0.700
REMARK UNBOUND:                 1.122
REMARK  6 active torsions:
REMARK  status: ('A' for Active; 'I' for Inactive)
REMARK    1  A    between atoms: C_13  and  C_16 
REMARK    2  A    between atoms: C_14  and  C_17 
REMARK    3  A    between atoms: C_15  and  C_18 
REMARK    4  A    between atoms: C_19  and  C_22 
REMARK    5  A    between atoms: C_20  and  C_23 
REMARK    6  A    between atoms: C_21  and  C_24 
ROOT
HETATM    1  O   UNL     1      51.474  40.679   2.743  1.00  0.00    -0.304 OA
HETATM    2  O   UNL     1      56.144  40.186   4.917  1.00  0.00    -0.304 OA
HETATM    3  O   UNL     1      54.984  36.964   1.657  1.00  0.00    -0.304 OA
HETATM    4  O   UNL     1      53.963  41.124   2.173  1.00  0.00    -0.270 OA
HETATM    5  O   UNL     1      53.178  39.127   0.156  1.00  0.00    -0.270 OA
HETATM    6  O   UNL     1      58.266  37.952   3.909  1.00  0.00    -0.270 OA
HETATM    7  O   UNL     1      51.915  38.810   4.020  1.00  0.00    -0.263 OA
HETATM    8  O   UNL     1      57.941  40.888   3.660  1.00  0.00    -0.263 OA
HETATM    9  O   UNL     1      55.776  34.863   1.175  1.00  0.00    -0.263 OA
HETATM   10  N   UNL     1      54.552  42.140   4.165  1.00  0.00    -0.340 N 
HETATM   11  N   UNL     1      52.040  37.582   1.460  1.00  0.00    -0.340 N 
HETATM   12  N   UNL     1      56.116  37.080   4.086  1.00  0.00    -0.340 N 
HETATM   13  C   UNL     1      55.955  42.256   3.714  1.00  0.00     0.190 C 
HETATM   14  C   UNL     1      50.997  38.579   1.779  1.00  0.00     0.190 C 
HETATM   15  C   UNL     1      56.438  35.903   3.253  1.00  0.00     0.190 C 
HETATM   16  C   UNL     1      52.153  41.539   3.682  1.00  0.00     0.227 C 
HETATM   17  C   UNL     1      56.813  39.044   5.479  1.00  0.00     0.227 C 
HETATM   18  C   UNL     1      54.250  37.005   0.419  1.00  0.00     0.227 C 
HETATM   19  C   UNL     1      53.628  41.577   3.274  1.00  0.00     0.250 C 
HETATM   20  C   UNL     1      53.116  38.000   0.657  1.00  0.00     0.250 C 
HETATM   21  C   UNL     1      57.139  37.987   4.413  1.00  0.00     0.250 C 
HETATM   22  C   UNL     1      51.506  39.336   2.994  1.00  0.00     0.283 C 
HETATM   23  C   UNL     1      56.795  41.031   4.073  1.00  0.00     0.283 C 
HETATM   24  C   UNL     1      55.694  35.832   1.922  1.00  0.00     0.283 C 
HETATM   25  C   UNL     1      54.231  42.586   5.524  1.00  0.00     0.153 C 
HETATM   26  C   UNL     1      51.900  36.239   2.031  1.00  0.00     0.153 C 
HETATM   27  C   UNL     1      54.779  37.145   4.678  1.00  0.00     0.153 C 
ENDROOT
BRANCH  16  28
HETATM   28  C   UNL     1      51.524  42.918   3.552  1.00  0.00     0.016 C 
HETATM   29  C   UNL     1      51.192  43.224   2.092  1.00  0.00     0.012 C 
HETATM   30  C   UNL     1      50.269  43.024   4.418  1.00  0.00     0.012 C 
ENDBRANCH  16  28
BRANCH  14  31
HETATM   31  C   UNL     1      49.604  38.024   2.049  1.00  0.00     0.010 C 
HETATM   32  C   UNL     1      48.783  39.013   2.875  1.00  0.00     0.012 C 
HETATM   33  C   UNL     1      48.891  37.699   0.739  1.00  0.00     0.012 C 
ENDBRANCH  14  31
BRANCH  13  34
HETATM   34  C   UNL     1      56.657  43.522   4.203  1.00  0.00     0.010 C 
HETATM   35  C   UNL     1      57.300  44.268   3.034  1.00  0.00     0.012 C 
HETATM   36  C   UNL     1      57.703  43.186   5.263  1.00  0.00     0.012 C 
ENDBRANCH  13  34
BRANCH  18  37
HETATM   37  C   UNL     1      55.188  37.474  -0.690  1.00  0.00     0.016 C 
HETATM   38  C   UNL     1      56.495  38.004  -0.101  1.00  0.00     0.012 C 
HETATM   39  C   UNL     1      55.466  36.343  -1.678  1.00  0.00     0.012 C 
ENDBRANCH  18  37
BRANCH  17  40
HETATM   40  C   UNL     1      58.035  39.449   6.302  1.00  0.00     0.016 C 
HETATM   41  C   UNL     1      58.756  38.214   6.838  1.00  0.00     0.012 C 
HETATM   42  C   UNL     1      57.628  40.373   7.448  1.00  0.00     0.012 C 
ENDBRANCH  17  40
BRANCH  15  43
HETATM   43  C   UNL     1      56.258  34.602   4.037  1.00  0.00     0.010 C 
HETATM   44  C   UNL     1      54.963  33.906   3.625  1.00  0.00     0.012 C 
HETATM   45  C   UNL     1      57.456  33.681   3.825  1.00  0.00     0.012 C 
ENDBRANCH  15  43
TORSDOF 6
ENDMDL
MODEL 19
REMARK VINA RESULT:    -4.062      4.107      8.237
REMARK INTER + INTRA:          -4.365
REMARK INTER:                  -5.708
REMARK INTRA:                   1.343
REMARK UNBOUND:                 1.122
REMARK  6 active torsions:
REMARK  status: ('A' for Active; 'I' for Inactive)
REMARK    1  A    between atoms: C_13  and  C_16 
REMARK    2  A    between atoms: C_14  and  C_17 
REMARK    3  A    between atoms: C_15  and  C_18 
REMARK    4  A    between atoms: C_19  and  C_22 
REMARK    5  A    between atoms: C_20  and  C_23 
REMARK    6  A    between atoms: C_21  and  C_24 
ROOT
HETATM    1  O   UNL     1      41.213  37.869  -2.816  1.00  0.00    -0.304 OA
HETATM    2  O   UNL     1      42.442  34.172   0.590  1.00  0.00    -0.304 OA
HETATM    3  O   UNL     1      42.725  38.635   2.126  1.00  0.00    -0.304 OA
HETATM    4  O   UNL     1      40.185  36.674  -0.759  1.00  0.00    -0.270 OA
HETATM    5  O   UNL     1      40.372  39.472   0.138  1.00  0.00    -0.270 OA
HETATM    6  O   UNL     1      43.110  34.861   3.686  1.00  0.00    -0.270 OA
HETATM    7  O   UNL     1      43.376  37.761  -2.024  1.00  0.00    -0.263 OA
HETATM    8  O   UNL     1      40.852  33.671   2.178  1.00  0.00    -0.263 OA
HETATM    9  O   UNL     1      43.822  39.623   3.886  1.00  0.00    -0.263 OA
HETATM   10  N   UNL     1      40.720  34.508  -1.369  1.00  0.00    -0.340 N 
HETATM   11  N   UNL     1      42.520  40.028  -0.539  1.00  0.00    -0.340 N 
HETATM   12  N   UNL     1      44.137  36.356   2.230  1.00  0.00    -0.340 N 
HETATM   13  C   UNL     1      40.151  33.991  -0.107  1.00  0.00     0.190 C 
HETATM   14  C   UNL     1      42.146  39.859  -1.958  1.00  0.00     0.190 C 
HETATM   15  C   UNL     1      44.388  37.349   3.297  1.00  0.00     0.190 C 
HETATM   16  C   UNL     1      41.137  36.433  -2.941  1.00  0.00     0.227 C 
HETATM   17  C   UNL     1      43.565  34.036   1.478  1.00  0.00     0.227 C 
HETATM   18  C   UNL     1      41.952  39.828   1.897  1.00  0.00     0.227 C 
HETATM   19  C   UNL     1      40.644  35.889  -1.597  1.00  0.00     0.250 C 
HETATM   20  C   UNL     1      41.536  39.762   0.430  1.00  0.00     0.250 C 
HETATM   21  C   UNL     1      43.569  35.116   2.569  1.00  0.00     0.250 C 
HETATM   22  C   UNL     1      42.353  38.386  -2.268  1.00  0.00     0.283 C 
HETATM   23  C   UNL     1      41.174  33.940   1.026  1.00  0.00     0.283 C 
HETATM   24  C   UNL     1      43.634  38.667   3.140  1.00  0.00     0.283 C 
HETATM   25  C   UNL     1      41.356  33.549  -2.277  1.00  0.00     0.153 C 
HETATM   26  C   UNL     1      43.899  40.426  -0.237  1.00  0.00     0.153 C 
HETATM   27  C   UNL     1      44.662  36.651   0.895  1.00  0.00     0.153 C 
ENDROOT
BRANCH  16  28
HETATM   28  C   UNL     1      40.128  36.139  -4.042  1.00  0.00     0.016 C 
HETATM   29  C   UNL     1      39.111  37.273  -4.158  1.00  0.00     0.012 C 
HETATM   30  C   UNL     1      40.836  35.918  -5.378  1.00  0.00     0.012 C 
ENDBRANCH  16  28
BRANCH  14  31
HETATM   31  C   UNL     1      42.910  40.719  -2.957  1.00  0.00     0.010 C 
HETATM   32  C   UNL     1      42.838  40.110  -4.356  1.00  0.00     0.012 C 
HETATM   33  C   UNL     1      42.366  42.146  -2.965  1.00  0.00     0.012 C 
ENDBRANCH  14  31
BRANCH  13  34
HETATM   34  C   UNL     1      39.472  32.629  -0.249  1.00  0.00     0.010 C 
HETATM   35  C   UNL     1      38.089  32.645   0.400  1.00  0.00     0.012 C 
HETATM   36  C   UNL     1      40.336  31.527   0.361  1.00  0.00     0.012 C 
ENDBRANCH  13  34
BRANCH  18  37
HETATM   37  C   UNL     1      40.741  39.812   2.827  1.00  0.00     0.016 C 
HETATM   38  C   UNL     1      39.919  41.090   2.663  1.00  0.00     0.012 C 
HETATM   39  C   UNL     1      39.876  38.581   2.567  1.00  0.00     0.012 C 
ENDBRANCH  18  37
BRANCH  17  40
HETATM   40  C   UNL     1      43.670  32.621   2.047  1.00  0.00     0.016 C 
HETATM   41  C   UNL     1      44.837  32.522   3.028  1.00  0.00     0.012 C 
HETATM   42  C   UNL     1      43.826  31.600   0.922  1.00  0.00     0.012 C 
ENDBRANCH  17  40
BRANCH  15  43
HETATM   43  C   UNL     1      45.885  37.605   3.477  1.00  0.00     0.010 C 
HETATM   44  C   UNL     1      46.626  36.293   3.717  1.00  0.00     0.012 C 
HETATM   45  C   UNL     1      46.452  38.330   2.260  1.00  0.00     0.012 C 
ENDBRANCH  15  43
TORSDOF 6
ENDMDL
MODEL 20
REMARK VINA RESULT:    -2.713      2.159      5.630
REMARK INTER + INTRA:          -2.542
REMARK INTER:                  -3.594
REMARK INTRA:                   1.053
REMARK UNBOUND:                 1.122
REMARK  6 active torsions:
REMARK  status: ('A' for Active; 'I' for Inactive)
REMARK    1  A    between atoms: C_13  and  C_16 
REMARK    2  A    between atoms: C_14  and  C_17 
REMARK    3  A    between atoms: C_15  and  C_18 
REMARK    4  A    between atoms: C_19  and  C_22 
REMARK    5  A    between atoms: C_20  and  C_23 
REMARK    6  A    between atoms: C_21  and  C_24 
ROOT
HETATM    1  O   UNL     1      45.659  34.231   3.631  1.00  0.00    -0.304 OA
HETATM    2  O   UNL     1      49.722  37.261   2.584  1.00  0.00    -0.304 OA
HETATM    3  O   UNL     1      50.198  32.668   1.570  1.00  0.00    -0.304 OA
HETATM    4  O   UNL     1      46.809  35.339   1.589  1.00  0.00    -0.270 OA
HETATM    5  O   UNL     1      47.063  32.464   1.003  1.00  0.00    -0.270 OA
HETATM    6  O   UNL     1      52.351  36.123   1.068  1.00  0.00    -0.270 OA
HETATM    7  O   UNL     1      47.628  33.889   4.781  1.00  0.00    -0.263 OA
HETATM    8  O   UNL     1      50.032  37.835   0.376  1.00  0.00    -0.263 OA
HETATM    9  O   UNL     1      52.024  31.318   1.224  1.00  0.00    -0.263 OA
HETATM   10  N   UNL     1      47.099  37.441   2.508  1.00  0.00    -0.340 N 
HETATM   11  N   UNL     1      47.781  31.640   3.050  1.00  0.00    -0.340 N 
HETATM   12  N   UNL     1      51.598  34.654   2.708  1.00  0.00    -0.340 N 
HETATM   13  C   UNL     1      47.801  37.898   1.291  1.00  0.00     0.190 C 
HETATM   14  C   UNL     1      46.505  32.030   3.685  1.00  0.00     0.190 C 
HETATM   15  C   UNL     1      52.370  33.519   2.160  1.00  0.00     0.190 C 
HETATM   16  C   UNL     1      45.795  35.666   3.731  1.00  0.00     0.227 C 
HETATM   17  C   UNL     1      51.120  37.107   2.880  1.00  0.00     0.227 C 
HETATM   18  C   UNL     1      49.312  31.653   1.061  1.00  0.00     0.227 C 
HETATM   19  C   UNL     1      46.612  36.127   2.521  1.00  0.00     0.250 C 
HETATM   20  C   UNL     1      47.954  31.954   1.690  1.00  0.00     0.250 C 
HETATM   21  C   UNL     1      51.741  35.924   2.123  1.00  0.00     0.250 C 
HETATM   22  C   UNL     1      46.684  33.473   4.122  1.00  0.00     0.283 C 
HETATM   23  C   UNL     1      49.307  37.649   1.348  1.00  0.00     0.283 C 
HETATM   24  C   UNL     1      51.526  32.370   1.613  1.00  0.00     0.283 C 
HETATM   25  C   UNL     1      46.992  38.378   3.630  1.00  0.00     0.153 C 
HETATM   26  C   UNL     1      48.792  30.988   3.888  1.00  0.00     0.153 C 
HETATM   27  C   UNL     1      50.856  34.430   3.950  1.00  0.00     0.153 C 
ENDROOT
BRANCH  16  28
HETATM   28  C   UNL     1      44.389  36.246   3.684  1.00  0.00     0.016 C 
HETATM   29  C   UNL     1      43.641  35.748   2.448  1.00  0.00     0.012 C 
HETATM   30  C   UNL     1      43.616  35.894   4.954  1.00  0.00     0.012 C 
ENDBRANCH  16  28
BRANCH  14  31
HETATM   31  C   UNL     1      46.057  31.174   4.863  1.00  0.00     0.010 C 
HETATM   32  C   UNL     1      45.283  32.017   5.875  1.00  0.00     0.012 C 
HETATM   33  C   UNL     1      45.208  30.000   4.383  1.00  0.00     0.012 C 
ENDBRANCH  14  31
BRANCH  13  34
HETATM   34  C   UNL     1      47.534  39.361   0.938  1.00  0.00     0.010 C 
HETATM   35  C   UNL     1      46.734  39.465  -0.360  1.00  0.00     0.012 C 
HETATM   36  C   UNL     1      48.844  40.137   0.822  1.00  0.00     0.012 C 
ENDBRANCH  13  34
BRANCH  18  37
HETATM   37  C   UNL     1      49.266  31.763  -0.461  1.00  0.00     0.016 C 
HETATM   38  C   UNL     1      49.925  33.061  -0.927  1.00  0.00     0.012 C 
HETATM   39  C   UNL     1      49.940  30.557  -1.111  1.00  0.00     0.012 C 
ENDBRANCH  18  37
BRANCH  17  40
HETATM   40  C   UNL     1      51.891  38.411   2.672  1.00  0.00     0.016 C 
HETATM   41  C   UNL     1      53.338  38.260   3.138  1.00  0.00     0.012 C 
HETATM   42  C   UNL     1      51.208  39.562   3.407  1.00  0.00     0.012 C 
ENDBRANCH  17  40
BRANCH  15  43
HETATM   43  C   UNL     1      53.389  32.999   3.174  1.00  0.00     0.010 C 
HETATM   44  C   UNL     1      54.269  34.139   3.680  1.00  0.00     0.012 C 
HETATM   45  C   UNL     1      52.682  32.308   4.336  1.00  0.00     0.012 C 
ENDBRANCH  15  43
TORSDOF 6
ENDMDL
