MODEL 1
REMARK VINA RESULT:    -5.184      0.000      0.000
REMARK INTER + INTRA:          -6.049
REMARK INTER:                  -7.002
REMARK INTRA:                   0.953
REMARK UNBOUND:                 0.953
REMARK  6 active torsions:
REMARK  status: ('A' for Active; 'I' for Inactive)
REMARK    1  A    between atoms: C_13  and  C_16 
REMARK    2  A    between atoms: C_14  and  C_17 
REMARK    3  A    between atoms: C_15  and  C_18 
REMARK    4  A    between atoms: C_19  and  C_22 
REMARK    5  A    between atoms: C_20  and  C_23 
REMARK    6  A    between atoms: C_21  and  C_24 
ROOT
HETATM    1  O   UNL     1      52.483  21.380  35.191  1.00  0.00    -0.304 OA
HETATM    2  O   UNL     1      55.285  21.238  30.843  1.00  0.00    -0.304 OA
HETATM    3  O   UNL     1      51.527  18.375  31.025  1.00  0.00    -0.304 OA
HETATM    4  O   UNL     1      52.365  22.241  32.749  1.00  0.00    -0.270 OA
HETATM    5  O   UNL     1      50.029  20.456  32.926  1.00  0.00    -0.270 OA
HETATM    6  O   UNL     1      54.365  19.482  28.278  1.00  0.00    -0.270 OA
HETATM    7  O   UNL     1      53.584  19.430  34.640  1.00  0.00    -0.263 OA
HETATM    8  O   UNL     1      54.416  22.351  29.024  1.00  0.00    -0.263 OA
HETATM    9  O   UNL     1      50.930  16.492  29.853  1.00  0.00    -0.263 OA
HETATM   10  N   UNL     1      54.531  23.039  32.605  1.00  0.00    -0.340 N 
HETATM   11  N   UNL     1      50.948  18.601  33.975  1.00  0.00    -0.340 N 
HETATM   12  N   UNL     1      54.100  18.306  30.267  1.00  0.00    -0.340 N 
HETATM   13  C   UNL     1      54.321  23.410  31.189  1.00  0.00     0.190 C 
HETATM   14  C   UNL     1      51.215  19.390  35.195  1.00  0.00     0.190 C 
HETATM   15  C   UNL     1      53.195  17.312  29.654  1.00  0.00     0.190 C 
HETATM   16  C   UNL     1      53.612  22.186  34.790  1.00  0.00     0.227 C 
HETATM   17  C   UNL     1      55.806  20.132  30.086  1.00  0.00     0.227 C 
HETATM   18  C   UNL     1      50.203  18.487  31.580  1.00  0.00     0.227 C 
HETATM   19  C   UNL     1      53.446  22.484  33.297  1.00  0.00     0.250 C 
HETATM   20  C   UNL     1      50.378  19.272  32.878  1.00  0.00     0.250 C 
HETATM   21  C   UNL     1      54.688  19.291  29.454  1.00  0.00     0.250 C 
HETATM   22  C   UNL     1      52.575  20.033  34.983  1.00  0.00     0.283 C 
HETATM   23  C   UNL     1      54.659  22.275  30.224  1.00  0.00     0.283 C 
HETATM   24  C   UNL     1      51.765  17.326  30.189  1.00  0.00     0.283 C 
HETATM   25  C   UNL     1      55.866  23.242  33.175  1.00  0.00     0.153 C 
HETATM   26  C   UNL     1      51.328  17.185  33.978  1.00  0.00     0.153 C 
HETATM   27  C   UNL     1      54.480  18.102  31.667  1.00  0.00     0.153 C 
ENDROOT
BRANCH  16  28
HETATM   28  C   UNL     1      53.548  23.469  35.605  1.00  0.00     0.016 C 
HETATM   29  C   UNL     1      52.316  24.290  35.224  1.00  0.00     0.012 C 
HETATM   30  C   UNL     1      53.542  23.160  37.102  1.00  0.00     0.012 C 
ENDBRANCH  16  28
BRANCH  14  31
HETATM   31  C   UNL     1      51.198  18.616  36.507  1.00  0.00     0.010 C 
HETATM   32  C   UNL     1      51.940  19.388  37.596  1.00  0.00     0.012 C 
HETATM   33  C   UNL     1      49.764  18.324  36.941  1.00  0.00     0.012 C 
ENDBRANCH  14  31
BRANCH  13  34
HETATM   34  C   UNL     1      55.059  24.680  30.769  1.00  0.00     0.010 C 
HETATM   35  C   UNL     1      54.092  25.683  30.140  1.00  0.00     0.012 C 
HETATM   36  C   UNL     1      56.193  24.352  29.800  1.00  0.00     0.012 C 
ENDBRANCH  13  34
BRANCH  18  37
HETATM   37  C   UNL     1      49.318  19.232  30.585  1.00  0.00     0.016 C 
HETATM   38  C   UNL     1      50.150  19.771  29.422  1.00  0.00     0.012 C 
HETATM   39  C   UNL     1      48.202  18.325  30.070  1.00  0.00     0.012 C 
ENDBRANCH  18  37
BRANCH  17  40
HETATM   40  C   UNL     1      56.852  20.584  29.066  1.00  0.00     0.016 C 
HETATM   41  C   UNL     1      57.355  19.395  28.250  1.00  0.00     0.012 C 
HETATM   42  C   UNL     1      58.015  21.286  29.765  1.00  0.00     0.012 C 
ENDBRANCH  17  40
BRANCH  15  43
HETATM   43  C   UNL     1      53.782  15.902  29.732  1.00  0.00     0.010 C 
HETATM   44  C   UNL     1      53.279  15.050  28.570  1.00  0.00     0.012 C 
HETATM   45  C   UNL     1      55.306  15.958  29.740  1.00  0.00     0.012 C 
ENDBRANCH  15  43
TORSDOF 6
ENDMDL
MODEL 2
REMARK VINA RESULT:    -5.163      2.904      5.598
REMARK INTER + INTRA:          -6.021
REMARK INTER:                  -6.950
REMARK INTRA:                   0.929
REMARK UNBOUND:                 0.953
REMARK  6 active torsions:
REMARK  status: ('A' for Active; 'I' for Inactive)
REMARK    1  A    between atoms: C_13  and  C_16 
REMARK    2  A    between atoms: C_14  and  C_17 
REMARK    3  A    between atoms: C_15  and  C_18 
REMARK    4  A    between atoms: C_19  and  C_22 
REMARK    5  A    between atoms: C_20  and  C_23 
REMARK    6  A    between atoms: C_21  and  C_24 
ROOT
HETATM    1  O   UNL     1      48.059  18.252  34.167  1.00  0.00    -0.304 OA
HETATM    2  O   UNL     1      53.149  17.817  34.998  1.00  0.00    -0.304 OA
HETATM    3  O   UNL     1      51.795  18.525  30.524  1.00  0.00    -0.304 OA
HETATM    4  O   UNL     1      50.161  19.762  34.322  1.00  0.00    -0.270 OA
HETATM    5  O   UNL     1      49.261  20.176  31.548  1.00  0.00    -0.270 OA
HETATM    6  O   UNL     1      55.308  18.272  32.624  1.00  0.00    -0.270 OA
HETATM    7  O   UNL     1      49.189  16.467  33.243  1.00  0.00    -0.263 OA
HETATM    8  O   UNL     1      54.360  19.775  34.997  1.00  0.00    -0.263 OA
HETATM    9  O   UNL     1      52.820  18.173  28.499  1.00  0.00    -0.263 OA
HETATM   10  N   UNL     1      51.062  18.831  36.237  1.00  0.00    -0.340 N 
HETATM   11  N   UNL     1      48.847  17.996  30.870  1.00  0.00    -0.340 N 
HETATM   12  N   UNL     1      53.503  16.990  31.912  1.00  0.00    -0.340 N 
HETATM   13  C   UNL     1      52.237  19.722  36.141  1.00  0.00     0.190 C 
HETATM   14  C   UNL     1      47.757  17.866  31.859  1.00  0.00     0.190 C 
HETATM   15  C   UNL     1      53.808  17.208  30.482  1.00  0.00     0.190 C 
HETATM   16  C   UNL     1      48.788  18.131  35.408  1.00  0.00     0.227 C 
HETATM   17  C   UNL     1      54.155  17.037  34.331  1.00  0.00     0.227 C 
HETATM   18  C   UNL     1      50.757  19.303  29.899  1.00  0.00     0.227 C 
HETATM   19  C   UNL     1      50.059  18.974  35.269  1.00  0.00     0.250 C 
HETATM   20  C   UNL     1      49.560  19.208  30.842  1.00  0.00     0.250 C 
HETATM   21  C   UNL     1      54.378  17.503  32.884  1.00  0.00     0.250 C 
HETATM   22  C   UNL     1      48.420  17.415  33.150  1.00  0.00     0.283 C 
HETATM   23  C   UNL     1      53.365  19.125  35.302  1.00  0.00     0.283 C 
HETATM   24  C   UNL     1      52.757  18.005  29.713  1.00  0.00     0.283 C 
HETATM   25  C   UNL     1      51.044  17.836  37.313  1.00  0.00     0.153 C 
HETATM   26  C   UNL     1      49.134  16.841  30.013  1.00  0.00     0.153 C 
HETATM   27  C   UNL     1      52.392  16.094  32.237  1.00  0.00     0.153 C 
ENDROOT
BRANCH  16  28
HETATM   28  C   UNL     1      47.890  18.688  36.503  1.00  0.00     0.016 C 
HETATM   29  C   UNL     1      46.513  19.040  35.943  1.00  0.00     0.012 C 
HETATM   30  C   UNL     1      47.760  17.692  37.654  1.00  0.00     0.012 C 
ENDBRANCH  16  28
BRANCH  14  31
HETATM   31  C   UNL     1      46.627  16.914  31.488  1.00  0.00     0.010 C 
HETATM   32  C   UNL     1      45.828  16.519  32.727  1.00  0.00     0.012 C 
HETATM   33  C   UNL     1      45.714  17.547  30.441  1.00  0.00     0.012 C 
ENDBRANCH  14  31
BRANCH  13  34
HETATM   34  C   UNL     1      52.785  20.169  37.497  1.00  0.00     0.010 C 
HETATM   35  C   UNL     1      52.958  21.687  37.534  1.00  0.00     0.012 C 
HETATM   36  C   UNL     1      54.109  19.472  37.802  1.00  0.00     0.012 C 
ENDBRANCH  13  34
BRANCH  18  37
HETATM   37  C   UNL     1      51.245  20.742  29.752  1.00  0.00     0.016 C 
HETATM   38  C   UNL     1      52.487  20.979  30.611  1.00  0.00     0.012 C 
HETATM   39  C   UNL     1      51.537  21.067  28.288  1.00  0.00     0.012 C 
ENDBRANCH  18  37
BRANCH  17  40
HETATM   40  C   UNL     1      55.453  16.973  35.137  1.00  0.00     0.016 C 
HETATM   41  C   UNL     1      56.520  16.188  34.378  1.00  0.00     0.012 C 
HETATM   42  C   UNL     1      55.202  16.351  36.509  1.00  0.00     0.012 C 
ENDBRANCH  17  40
BRANCH  15  43
HETATM   43  C   UNL     1      54.107  15.888  29.770  1.00  0.00     0.010 C 
HETATM   44  C   UNL     1      52.961  15.516  28.834  1.00  0.00     0.012 C 
HETATM   45  C   UNL     1      55.422  15.982  29.002  1.00  0.00     0.012 C 
ENDBRANCH  15  43
TORSDOF 6
ENDMDL
MODEL 3
REMARK VINA RESULT:    -4.861     21.338     26.134
REMARK INTER + INTRA:          -5.613
REMARK INTER:                  -6.464
REMARK INTRA:                   0.851
REMARK UNBOUND:                 0.953
REMARK  6 active torsions:
REMARK  status: ('A' for Active; 'I' for Inactive)
REMARK    1  A    between atoms: C_13  and  C_16 
REMARK    2  A    between atoms: C_14  and  C_17 
REMARK    3  A    between atoms: C_15  and  C_18 
REMARK    4  A    between atoms: C_19  and  C_22 
REMARK    5  A    between atoms: C_20  and  C_23 
REMARK    6  A    between atoms: C_21  and  C_24 
ROOT
HETATM    1  O   UNL     1      63.502  38.394  14.885  1.00  0.00    -0.304 OA
HETATM    2  O   UNL     1      61.961  33.501  15.570  1.00  0.00    -0.304 OA
HETATM    3  O   UNL     1      61.971  35.107  11.123  1.00  0.00    -0.304 OA
HETATM    4  O   UNL     1      64.410  35.986  14.573  1.00  0.00    -0.270 OA
HETATM    5  O   UNL     1      64.408  37.046  11.825  1.00  0.00    -0.270 OA
HETATM    6  O   UNL     1      61.295  31.557  13.063  1.00  0.00    -0.270 OA
HETATM    7  O   UNL     1      61.325  37.831  14.375  1.00  0.00    -0.263 OA
HETATM    8  O   UNL     1      63.486  31.861  15.037  1.00  0.00    -0.263 OA
HETATM    9  O   UNL     1      60.919  34.415   9.202  1.00  0.00    -0.263 OA
HETATM   10  N   UNL     1      63.733  35.140  16.616  1.00  0.00    -0.340 N 
HETATM   11  N   UNL     1      62.315  38.042  11.719  1.00  0.00    -0.340 N 
HETATM   12  N   UNL     1      60.399  33.683  12.766  1.00  0.00    -0.340 N 
HETATM   13  C   UNL     1      64.244  33.801  16.253  1.00  0.00     0.190 C 
HETATM   14  C   UNL     1      62.699  39.021  12.757  1.00  0.00     0.190 C 
HETATM   15  C   UNL     1      60.203  33.486  11.315  1.00  0.00     0.190 C 
HETATM   16  C   UNL     1      63.478  37.589  16.085  1.00  0.00     0.227 C 
HETATM   17  C   UNL     1      60.817  32.788  15.069  1.00  0.00     0.227 C 
HETATM   18  C   UNL     1      62.830  35.987  10.374  1.00  0.00     0.227 C 
HETATM   19  C   UNL     1      63.910  36.175  15.687  1.00  0.00     0.250 C 
HETATM   20  C   UNL     1      63.263  37.065  11.364  1.00  0.00     0.250 C 
HETATM   21  C   UNL     1      60.872  32.613  13.545  1.00  0.00     0.250 C 
HETATM   22  C   UNL     1      62.393  38.354  14.088  1.00  0.00     0.283 C 
HETATM   23  C   UNL     1      63.202  32.945  15.536  1.00  0.00     0.283 C 
HETATM   24  C   UNL     1      61.050  34.390  10.422  1.00  0.00     0.283 C 
HETATM   25  C   UNL     1      63.045  35.284  17.902  1.00  0.00     0.153 C 
HETATM   26  C   UNL     1      60.964  38.133  11.158  1.00  0.00     0.153 C 
HETATM   27  C   UNL     1      59.918  34.937  13.350  1.00  0.00     0.153 C 
ENDROOT
BRANCH  16  28
HETATM   28  C   UNL     1      64.481  38.207  17.049  1.00  0.00     0.016 C 
HETATM   29  C   UNL     1      65.439  39.138  16.308  1.00  0.00     0.012 C 
HETATM   30  C   UNL     1      63.761  38.960  18.167  1.00  0.00     0.012 C 
ENDBRANCH  16  28
BRANCH  14  31
HETATM   31  C   UNL     1      62.014  40.379  12.680  1.00  0.00     0.010 C 
HETATM   32  C   UNL     1      62.147  41.125  14.006  1.00  0.00     0.012 C 
HETATM   33  C   UNL     1      62.595  41.210  11.538  1.00  0.00     0.012 C 
ENDBRANCH  14  31
BRANCH  13  34
HETATM   34  C   UNL     1      64.826  33.023  17.432  1.00  0.00     0.010 C 
HETATM   35  C   UNL     1      66.246  32.552  17.119  1.00  0.00     0.012 C 
HETATM   36  C   UNL     1      63.936  31.835  17.790  1.00  0.00     0.012 C 
ENDBRANCH  13  34
BRANCH  18  37
HETATM   37  C   UNL     1      64.021  35.184   9.858  1.00  0.00     0.016 C 
HETATM   38  C   UNL     1      64.068  33.806  10.518  1.00  0.00     0.012 C 
HETATM   39  C   UNL     1      63.965  35.047   8.338  1.00  0.00     0.012 C 
ENDBRANCH  18  37
BRANCH  17  40
HETATM   40  C   UNL     1      60.603  31.467  15.808  1.00  0.00     0.016 C 
HETATM   41  C   UNL     1      59.343  30.767  15.303  1.00  0.00     0.012 C 
HETATM   42  C   UNL     1      60.520  31.702  17.315  1.00  0.00     0.012 C 
ENDBRANCH  17  40
BRANCH  15  43
HETATM   43  C   UNL     1      58.725  33.591  10.934  1.00  0.00     0.010 C 
HETATM   44  C   UNL     1      57.897  32.587  11.731  1.00  0.00     0.012 C 
HETATM   45  C   UNL     1      58.215  35.011  11.161  1.00  0.00     0.012 C 
ENDBRANCH  15  43
TORSDOF 6
ENDMDL
MODEL 4
REMARK VINA RESULT:    -4.851     19.808     24.433
REMARK INTER + INTRA:          -5.599
REMARK INTER:                  -6.814
REMARK INTRA:                   1.215
REMARK UNBOUND:                 0.953
REMARK  6 active torsions:
REMARK  status: ('A' for Active; 'I' for Inactive)
REMARK    1  A    between atoms: C_13  and  C_16 
REMARK    2  A    between atoms: C_14  and  C_17 
REMARK    3  A    between atoms: C_15  and  C_18 
REMARK    4  A    between atoms: C_19  and  C_22 
REMARK    5  A    between atoms: C_20  and  C_23 
REMARK    6  A    between atoms: C_21  and  C_24 
ROOT
HETATM    1  O   UNL     1      62.940  35.734  13.630  1.00  0.00    -0.304 OA
HETATM    2  O   UNL     1      61.817  31.193  15.845  1.00  0.00    -0.304 OA
HETATM    3  O   UNL     1      60.360  31.784  11.386  1.00  0.00    -0.304 OA
HETATM    4  O   UNL     1      63.756  33.274  13.591  1.00  0.00    -0.270 OA
HETATM    5  O   UNL     1      62.847  33.705  10.824  1.00  0.00    -0.270 OA
HETATM    6  O   UNL     1      60.427  28.783  14.181  1.00  0.00    -0.270 OA
HETATM    7  O   UNL     1      60.728  35.183  13.978  1.00  0.00    -0.263 OA
HETATM    8  O   UNL     1      63.128  29.402  15.235  1.00  0.00    -0.263 OA
HETATM    9  O   UNL     1      58.764  30.741  10.105  1.00  0.00    -0.263 OA
HETATM   10  N   UNL     1      63.792  32.930  15.878  1.00  0.00    -0.340 N 
HETATM   11  N   UNL     1      60.808  34.757  11.169  1.00  0.00    -0.340 N 
HETATM   12  N   UNL     1      59.433  30.835  13.718  1.00  0.00    -0.340 N 
HETATM   13  C   UNL     1      64.190  31.521  15.680  1.00  0.00     0.190 C 
HETATM   14  C   UNL     1      61.482  35.919  11.785  1.00  0.00     0.190 C 
HETATM   15  C   UNL     1      58.786  30.335  12.487  1.00  0.00     0.190 C 
HETATM   16  C   UNL     1      63.322  35.214  14.922  1.00  0.00     0.227 C 
HETATM   17  C   UNL     1      60.590  30.446  15.906  1.00  0.00     0.227 C 
HETATM   18  C   UNL     1      60.912  32.434  10.225  1.00  0.00     0.227 C 
HETATM   19  C   UNL     1      63.636  33.727  14.735  1.00  0.00     0.250 C 
HETATM   20  C   UNL     1      61.614  33.680  10.759  1.00  0.00     0.250 C 
HETATM   21  C   UNL     1      60.156  29.938  14.523  1.00  0.00     0.250 C 
HETATM   22  C   UNL     1      61.635  35.576  13.257  1.00  0.00     0.283 C 
HETATM   23  C   UNL     1      62.994  30.582  15.542  1.00  0.00     0.283 C 
HETATM   24  C   UNL     1      59.280  30.977  11.192  1.00  0.00     0.283 C 
HETATM   25  C   UNL     1      63.550  33.388  17.250  1.00  0.00     0.153 C 
HETATM   26  C   UNL     1      59.347  34.790  11.062  1.00  0.00     0.153 C 
HETATM   27  C   UNL     1      59.135  32.209  14.128  1.00  0.00     0.153 C 
ENDROOT
BRANCH  16  28
HETATM   28  C   UNL     1      64.566  35.976  15.354  1.00  0.00     0.016 C 
HETATM   29  C   UNL     1      65.180  36.721  14.170  1.00  0.00     0.012 C 
HETATM   30  C   UNL     1      64.238  36.950  16.485  1.00  0.00     0.012 C 
ENDBRANCH  16  28
BRANCH  14  31
HETATM   31  C   UNL     1      60.776  37.260  11.628  1.00  0.00     0.010 C 
HETATM   32  C   UNL     1      61.273  38.254  12.676  1.00  0.00     0.012 C 
HETATM   33  C   UNL     1      60.985  37.816  10.221  1.00  0.00     0.012 C 
ENDBRANCH  14  31
BRANCH  13  34
HETATM   34  C   UNL     1      65.139  30.992  16.755  1.00  0.00     0.010 C 
HETATM   35  C   UNL     1      66.390  30.387  16.120  1.00  0.00     0.012 C 
HETATM   36  C   UNL     1      64.436  29.963  17.638  1.00  0.00     0.012 C 
ENDBRANCH  13  34
BRANCH  18  37
HETATM   37  C   UNL     1      61.893  31.479   9.551  1.00  0.00     0.016 C 
HETATM   38  C   UNL     1      62.184  30.279  10.453  1.00  0.00     0.012 C 
HETATM   39  C   UNL     1      61.354  31.014   8.200  1.00  0.00     0.012 C 
ENDBRANCH  18  37
BRANCH  17  40
HETATM   40  C   UNL     1      60.655  29.332  16.950  1.00  0.00     0.016 C 
HETATM   41  C   UNL     1      59.362  28.520  16.952  1.00  0.00     0.012 C 
HETATM   42  C   UNL     1      60.928  29.910  18.337  1.00  0.00     0.012 C 
ENDBRANCH  17  40
BRANCH  15  43
HETATM   43  C   UNL     1      57.262  30.427  12.583  1.00  0.00     0.010 C 
HETATM   44  C   UNL     1      56.816  30.381  14.042  1.00  0.00     0.012 C 
HETATM   45  C   UNL     1      56.761  31.700  11.906  1.00  0.00     0.012 C 
ENDBRANCH  15  43
TORSDOF 6
ENDMDL
MODEL 5
REMARK VINA RESULT:    -4.651      2.828      6.146
REMARK INTER + INTRA:          -5.329
REMARK INTER:                  -6.032
REMARK INTRA:                   0.703
REMARK UNBOUND:                 0.953
REMARK  6 active torsions:
REMARK  status: ('A' for Active; 'I' for Inactive)
REMARK    1  A    between atoms: C_13  and  C_16 
REMARK    2  A    between atoms: C_14  and  C_17 
REMARK    3  A    between atoms: C_15  and  C_18 
REMARK    4  A    between atoms: C_19  and  C_22 
REMARK    5  A    between atoms: C_20  and  C_23 
REMARK    6  A    between atoms: C_21  and  C_24 
ROOT
HETATM    1  O   UNL     1      55.631  22.138  30.428  1.00  0.00    -0.304 OA
HETATM    2  O   UNL     1      56.124  18.350  33.919  1.00  0.00    -0.304 OA
HETATM    3  O   UNL     1      52.802  17.749  30.609  1.00  0.00    -0.304 OA
HETATM    4  O   UNL     1      56.625  19.751  30.609  1.00  0.00    -0.270 OA
HETATM    5  O   UNL     1      54.551  19.440  28.541  1.00  0.00    -0.270 OA
HETATM    6  O   UNL     1      54.434  15.593  33.693  1.00  0.00    -0.270 OA
HETATM    7  O   UNL     1      53.875  21.710  31.861  1.00  0.00    -0.263 OA
HETATM    8  O   UNL     1      57.232  16.454  33.227  1.00  0.00    -0.263 OA
HETATM    9  O   UNL     1      50.938  16.414  30.480  1.00  0.00    -0.263 OA
HETATM   10  N   UNL     1      57.698  20.024  32.640  1.00  0.00    -0.340 N 
HETATM   11  N   UNL     1      52.764  20.557  29.513  1.00  0.00    -0.340 N 
HETATM   12  N   UNL     1      53.108  17.455  33.258  1.00  0.00    -0.340 N 
HETATM   13  C   UNL     1      58.129  18.610  32.624  1.00  0.00     0.190 C 
HETATM   14  C   UNL     1      53.500  21.837  29.460  1.00  0.00     0.190 C 
HETATM   15  C   UNL     1      52.049  16.651  32.613  1.00  0.00     0.190 C 
HETATM   16  C   UNL     1      56.597  21.976  31.489  1.00  0.00     0.227 C 
HETATM   17  C   UNL     1      55.143  17.652  34.706  1.00  0.00     0.227 C 
HETATM   18  C   UNL     1      52.710  18.066  29.207  1.00  0.00     0.227 C 
HETATM   19  C   UNL     1      56.967  20.491  31.539  1.00  0.00     0.250 C 
HETATM   20  C   UNL     1      53.427  19.406  29.051  1.00  0.00     0.250 C 
HETATM   21  C   UNL     1      54.209  16.799  33.835  1.00  0.00     0.250 C 
HETATM   22  C   UNL     1      54.322  21.894  30.736  1.00  0.00     0.283 C 
HETATM   23  C   UNL     1      57.111  17.674  33.271  1.00  0.00     0.283 C 
HETATM   24  C   UNL     1      51.848  16.925  31.124  1.00  0.00     0.283 C 
HETATM   25  C   UNL     1      58.031  20.829  33.819  1.00  0.00     0.153 C 
HETATM   26  C   UNL     1      51.410  20.569  30.075  1.00  0.00     0.153 C 
HETATM   27  C   UNL     1      52.864  18.890  33.419  1.00  0.00     0.153 C 
ENDROOT
BRANCH  16  28
HETATM   28  C   UNL     1      57.807  22.819  31.114  1.00  0.00     0.016 C 
HETATM   29  C   UNL     1      57.814  23.119  29.616  1.00  0.00     0.012 C 
HETATM   30  C   UNL     1      57.831  24.119  31.918  1.00  0.00     0.012 C 
ENDBRANCH  16  28
BRANCH  14  31
HETATM   31  C   UNL     1      52.648  23.093  29.326  1.00  0.00     0.010 C 
HETATM   32  C   UNL     1      53.368  24.297  29.928  1.00  0.00     0.012 C 
HETATM   33  C   UNL     1      52.300  23.353  27.862  1.00  0.00     0.012 C 
ENDBRANCH  14  31
BRANCH  13  34
HETATM   34  C   UNL     1      59.507  18.379  33.243  1.00  0.00     0.010 C 
HETATM   35  C   UNL     1      60.407  17.604  32.282  1.00  0.00     0.012 C 
HETATM   36  C   UNL     1      59.385  17.641  34.574  1.00  0.00     0.012 C 
ENDBRANCH  13  34
BRANCH  18  37
HETATM   37  C   UNL     1      53.399  16.962  28.410  1.00  0.00     0.016 C 
HETATM   38  C   UNL     1      54.222  16.064  29.334  1.00  0.00     0.012 C 
HETATM   39  C   UNL     1      52.376  16.137  27.633  1.00  0.00     0.012 C 
ENDBRANCH  18  37
BRANCH  17  40
HETATM   40  C   UNL     1      55.788  16.853  35.838  1.00  0.00     0.016 C 
HETATM   41  C   UNL     1      54.726  16.098  36.635  1.00  0.00     0.012 C 
HETATM   42  C   UNL     1      56.594  17.772  36.753  1.00  0.00     0.012 C 
ENDBRANCH  17  40
BRANCH  15  43
HETATM   43  C   UNL     1      50.722  16.773  33.364  1.00  0.00     0.010 C 
HETATM   44  C   UNL     1      49.760  17.681  32.602  1.00  0.00     0.012 C 
HETATM   45  C   UNL     1      50.104  15.396  33.583  1.00  0.00     0.012 C 
ENDBRANCH  15  43
TORSDOF 6
ENDMDL
MODEL 6
REMARK VINA RESULT:    -4.613     15.011     19.835
REMARK INTER + INTRA:          -5.278
REMARK INTER:                  -6.028
REMARK INTRA:                   0.750
REMARK UNBOUND:                 0.953
REMARK  6 active torsions:
REMARK  status: ('A' for Active; 'I' for Inactive)
REMARK    1  A    between atoms: C_13  and  C_16 
REMARK    2  A    between atoms: C_14  and  C_17 
REMARK    3  A    between atoms: C_15  and  C_18 
REMARK    4  A    between atoms: C_19  and  C_22 
REMARK    5  A    between atoms: C_20  and  C_23 
REMARK    6  A    between atoms: C_21  and  C_24 
ROOT
HETATM    1  O   UNL     1      61.430  34.299  32.872  1.00  0.00    -0.304 OA
HETATM    2  O   UNL     1      64.811  33.891  28.976  1.00  0.00    -0.304 OA
HETATM    3  O   UNL     1      65.640  37.305  32.140  1.00  0.00    -0.304 OA
HETATM    4  O   UNL     1      63.822  33.403  32.433  1.00  0.00    -0.270 OA
HETATM    5  O   UNL     1      64.275  35.531  34.417  1.00  0.00    -0.270 OA
HETATM    6  O   UNL     1      67.498  35.700  28.855  1.00  0.00    -0.270 OA
HETATM    7  O   UNL     1      61.613  36.040  31.371  1.00  0.00    -0.263 OA
HETATM    8  O   UNL     1      66.821  32.879  29.463  1.00  0.00    -0.263 OA
HETATM    9  O   UNL     1      66.898  39.226  32.084  1.00  0.00    -0.263 OA
HETATM   10  N   UNL     1      63.366  32.276  30.466  1.00  0.00    -0.340 N 
HETATM   11  N   UNL     1      62.977  37.249  33.552  1.00  0.00    -0.340 N 
HETATM   12  N   UNL     1      65.642  36.956  29.480  1.00  0.00    -0.340 N 
HETATM   13  C   UNL     1      64.790  31.905  30.325  1.00  0.00     0.190 C 
HETATM   14  C   UNL     1      61.745  36.461  33.764  1.00  0.00     0.190 C 
HETATM   15  C   UNL     1      66.468  38.061  30.011  1.00  0.00     0.190 C 
HETATM   16  C   UNL     1      61.512  33.318  31.816  1.00  0.00     0.227 C 
HETATM   17  C   UNL     1      65.371  34.883  28.098  1.00  0.00     0.227 C 
HETATM   18  C   UNL     1      65.482  37.414  33.568  1.00  0.00     0.227 C 
HETATM   19  C   UNL     1      62.996  33.010  31.601  1.00  0.00     0.250 C 
HETATM   20  C   UNL     1      64.202  36.645  33.889  1.00  0.00     0.250 C 
HETATM   21  C   UNL     1      66.276  35.871  28.849  1.00  0.00     0.250 C 
HETATM   22  C   UNL     1      61.579  35.610  32.516  1.00  0.00     0.283 C 
HETATM   23  C   UNL     1      65.600  32.948  29.558  1.00  0.00     0.283 C 
HETATM   24  C   UNL     1      66.356  38.282  31.518  1.00  0.00     0.283 C 
HETATM   25  C   UNL     1      62.447  31.884  29.392  1.00  0.00     0.153 C 
HETATM   26  C   UNL     1      62.841  38.589  32.972  1.00  0.00     0.153 C 
HETATM   27  C   UNL     1      64.189  37.135  29.481  1.00  0.00     0.153 C 
ENDROOT
BRANCH  16  28
HETATM   28  C   UNL     1      60.771  32.082  32.304  1.00  0.00     0.016 C 
HETATM   29  C   UNL     1      60.551  32.147  33.815  1.00  0.00     0.012 C 
HETATM   30  C   UNL     1      59.436  31.928  31.577  1.00  0.00     0.012 C 
ENDBRANCH  16  28
BRANCH  14  31
HETATM   31  C   UNL     1      60.477  37.262  34.027  1.00  0.00     0.010 C 
HETATM   32  C   UNL     1      59.243  36.371  33.902  1.00  0.00     0.012 C 
HETATM   33  C   UNL     1      60.530  37.913  35.407  1.00  0.00     0.012 C 
ENDBRANCH  14  31
BRANCH  13  34
HETATM   34  C   UNL     1      65.009  30.525  29.706  1.00  0.00     0.010 C 
HETATM   35  C   UNL     1      65.978  29.701  30.553  1.00  0.00     0.012 C 
HETATM   36  C   UNL     1      65.525  30.650  28.274  1.00  0.00     0.012 C 
ENDBRANCH  13  34
BRANCH  18  37
HETATM   37  C   UNL     1      66.699  36.788  34.243  1.00  0.00     0.016 C 
HETATM   38  C   UNL     1      67.532  36.002  33.231  1.00  0.00     0.012 C 
HETATM   39  C   UNL     1      67.551  37.860  34.920  1.00  0.00     0.012 C 
ENDBRANCH  18  37
BRANCH  17  40
HETATM   40  C   UNL     1      66.063  34.249  26.892  1.00  0.00     0.016 C 
HETATM   41  C   UNL     1      66.810  35.307  26.083  1.00  0.00     0.012 C 
HETATM   42  C   UNL     1      65.050  33.518  26.014  1.00  0.00     0.012 C 
ENDBRANCH  17  40
BRANCH  15  43
HETATM   43  C   UNL     1      66.201  39.365  29.258  1.00  0.00     0.010 C 
HETATM   44  C   UNL     1      65.367  40.314  30.113  1.00  0.00     0.012 C 
HETATM   45  C   UNL     1      67.516  40.022  28.848  1.00  0.00     0.012 C 
ENDBRANCH  15  43
TORSDOF 6
ENDMDL
MODEL 7
REMARK VINA RESULT:    -4.608      1.734      7.983
REMARK INTER + INTRA:          -5.272
REMARK INTER:                  -5.975
REMARK INTRA:                   0.704
REMARK UNBOUND:                 0.953
REMARK  6 active torsions:
REMARK  status: ('A' for Active; 'I' for Inactive)
REMARK    1  A    between atoms: C_13  and  C_16 
REMARK    2  A    between atoms: C_14  and  C_17 
REMARK    3  A    between atoms: C_15  and  C_18 
REMARK    4  A    between atoms: C_19  and  C_22 
REMARK    5  A    between atoms: C_20  and  C_23 
REMARK    6  A    between atoms: C_21  and  C_24 
ROOT
HETATM    1  O   UNL     1      54.239  18.378  28.804  1.00  0.00    -0.304 OA
HETATM    2  O   UNL     1      51.897  19.119  33.359  1.00  0.00    -0.304 OA
HETATM    3  O   UNL     1      54.983  22.437  32.009  1.00  0.00    -0.304 OA
HETATM    4  O   UNL     1      52.340  19.816  29.826  1.00  0.00    -0.270 OA
HETATM    5  O   UNL     1      54.293  21.839  28.950  1.00  0.00    -0.270 OA
HETATM    6  O   UNL     1      52.319  21.840  35.070  1.00  0.00    -0.270 OA
HETATM    7  O   UNL     1      55.515  18.378  30.725  1.00  0.00    -0.263 OA
HETATM    8  O   UNL     1      50.181  20.654  33.393  1.00  0.00    -0.263 OA
HETATM    9  O   UNL     1      56.137  24.064  33.147  1.00  0.00    -0.263 OA
HETATM   10  N   UNL     1      51.282  18.129  31.002  1.00  0.00    -0.340 N 
HETATM   11  N   UNL     1      56.277  20.933  29.740  1.00  0.00    -0.340 N 
HETATM   12  N   UNL     1      54.328  21.045  34.207  1.00  0.00    -0.340 N 
HETATM   13  C   UNL     1      50.312  19.097  31.556  1.00  0.00     0.190 C 
HETATM   14  C   UNL     1      56.141  19.774  28.833  1.00  0.00     0.190 C 
HETATM   15  C   UNL     1      55.020  22.335  34.412  1.00  0.00     0.190 C 
HETATM   16  C   UNL     1      53.193  17.614  29.443  1.00  0.00     0.227 C 
HETATM   17  C   UNL     1      52.423  19.478  34.648  1.00  0.00     0.227 C 
HETATM   18  C   UNL     1      55.332  23.030  30.744  1.00  0.00     0.227 C 
HETATM   19  C   UNL     1      52.243  18.616  30.105  1.00  0.00     0.250 C 
HETATM   20  C   UNL     1      55.248  21.892  29.730  1.00  0.00     0.250 C 
HETATM   21  C   UNL     1      53.004  20.900  34.657  1.00  0.00     0.250 C 
HETATM   22  C   UNL     1      55.295  18.759  29.583  1.00  0.00     0.283 C 
HETATM   23  C   UNL     1      50.788  19.730  32.862  1.00  0.00     0.283 C 
HETATM   24  C   UNL     1      55.459  23.042  33.132  1.00  0.00     0.283 C 
HETATM   25  C   UNL     1      51.196  16.738  31.455  1.00  0.00     0.153 C 
HETATM   26  C   UNL     1      57.455  20.985  30.612  1.00  0.00     0.153 C 
HETATM   27  C   UNL     1      55.122  19.924  33.702  1.00  0.00     0.153 C 
ENDROOT
BRANCH  16  28
HETATM   28  C   UNL     1      52.479  16.841  28.345  1.00  0.00     0.016 C 
HETATM   29  C   UNL     1      52.676  17.520  26.991  1.00  0.00     0.012 C 
HETATM   30  C   UNL     1      52.972  15.395  28.294  1.00  0.00     0.012 C 
ENDBRANCH  16  28
BRANCH  14  31
HETATM   31  C   UNL     1      57.442  19.134  28.367  1.00  0.00     0.010 C 
HETATM   32  C   UNL     1      57.200  17.697  27.910  1.00  0.00     0.012 C 
HETATM   33  C   UNL     1      58.073  19.954  27.245  1.00  0.00     0.012 C 
ENDBRANCH  14  31
BRANCH  13  34
HETATM   34  C   UNL     1      48.907  18.524  31.743  1.00  0.00     0.010 C 
HETATM   35  C   UNL     1      47.875  19.372  31.002  1.00  0.00     0.012 C 
HETATM   36  C   UNL     1      48.555  18.429  33.226  1.00  0.00     0.012 C 
ENDBRANCH  13  34
BRANCH  18  37
HETATM   37  C   UNL     1      54.331  24.139  30.431  1.00  0.00     0.016 C 
HETATM   38  C   UNL     1      53.158  24.098  31.409  1.00  0.00     0.012 C 
HETATM   39  C   UNL     1      55.011  25.507  30.467  1.00  0.00     0.012 C 
ENDBRANCH  18  37
BRANCH  17  40
HETATM   40  C   UNL     1      51.400  19.252  35.762  1.00  0.00     0.016 C 
HETATM   41  C   UNL     1      52.006  19.585  37.124  1.00  0.00     0.012 C 
HETATM   42  C   UNL     1      50.889  17.813  35.739  1.00  0.00     0.012 C 
ENDBRANCH  17  40
BRANCH  15  43
HETATM   43  C   UNL     1      56.200  22.185  35.374  1.00  0.00     0.010 C 
HETATM   44  C   UNL     1      57.518  22.187  34.604  1.00  0.00     0.012 C 
HETATM   45  C   UNL     1      56.183  23.299  36.417  1.00  0.00     0.012 C 
ENDBRANCH  15  43
TORSDOF 6
ENDMDL
MODEL 8
REMARK VINA RESULT:    -4.546      2.524      6.993
REMARK INTER + INTRA:          -5.188
REMARK INTER:                  -5.882
REMARK INTRA:                   0.694
REMARK UNBOUND:                 0.953
REMARK  6 active torsions:
REMARK  status: ('A' for Active; 'I' for Inactive)
REMARK    1  A    between atoms: C_13  and  C_16 
REMARK    2  A    between atoms: C_14  and  C_17 
REMARK    3  A    between atoms: C_15  and  C_18 
REMARK    4  A    between atoms: C_19  and  C_22 
REMARK    5  A    between atoms: C_20  and  C_23 
REMARK    6  A    between atoms: C_21  and  C_24 
ROOT
HETATM    1  O   UNL     1      53.396  19.093  30.569  1.00  0.00    -0.304 OA
HETATM    2  O   UNL     1      53.133  24.238  31.058  1.00  0.00    -0.304 OA
HETATM    3  O   UNL     1      55.148  21.881  34.627  1.00  0.00    -0.304 OA
HETATM    4  O   UNL     1      54.940  21.166  30.376  1.00  0.00    -0.270 OA
HETATM    5  O   UNL     1      56.160  19.646  32.583  1.00  0.00    -0.270 OA
HETATM    6  O   UNL     1      54.513  25.787  33.548  1.00  0.00    -0.270 OA
HETATM    7  O   UNL     1      52.109  19.986  32.262  1.00  0.00    -0.263 OA
HETATM    8  O   UNL     1      55.077  25.407  30.663  1.00  0.00    -0.263 OA
HETATM    9  O   UNL     1      55.561  22.410  36.823  1.00  0.00    -0.263 OA
HETATM   10  N   UNL     1      53.513  22.491  29.129  1.00  0.00    -0.340 N 
HETATM   11  N   UNL     1      54.294  19.096  33.848  1.00  0.00    -0.340 N 
HETATM   12  N   UNL     1      53.390  23.871  34.241  1.00  0.00    -0.340 N 
HETATM   13  C   UNL     1      54.480  23.608  29.172  1.00  0.00     0.190 C 
HETATM   14  C   UNL     1      53.760  18.266  32.749  1.00  0.00     0.190 C 
HETATM   15  C   UNL     1      54.086  23.835  35.544  1.00  0.00     0.190 C 
HETATM   16  C   UNL     1      52.937  20.090  29.631  1.00  0.00     0.227 C 
HETATM   17  C   UNL     1      52.699  25.066  32.150  1.00  0.00     0.227 C 
HETATM   18  C   UNL     1      55.999  20.722  34.713  1.00  0.00     0.227 C 
HETATM   19  C   UNL     1      53.881  21.290  29.750  1.00  0.00     0.250 C 
HETATM   20  C   UNL     1      55.503  19.777  33.621  1.00  0.00     0.250 C 
HETATM   21  C   UNL     1      53.628  24.946  33.367  1.00  0.00     0.250 C 
HETATM   22  C   UNL     1      52.969  19.212  31.862  1.00  0.00     0.283 C 
HETATM   23  C   UNL     1      54.284  24.514  30.386  1.00  0.00     0.283 C 
HETATM   24  C   UNL     1      55.001  22.631  35.754  1.00  0.00     0.283 C 
HETATM   25  C   UNL     1      52.223  22.727  28.473  1.00  0.00     0.153 C 
HETATM   26  C   UNL     1      53.510  19.182  35.084  1.00  0.00     0.153 C 
HETATM   27  C   UNL     1      52.348  22.870  34.004  1.00  0.00     0.153 C 
ENDROOT
BRANCH  16  28
HETATM   28  C   UNL     1      53.031  19.468  28.246  1.00  0.00     0.016 C 
HETATM   29  C   UNL     1      53.920  18.225  28.272  1.00  0.00     0.012 C 
HETATM   30  C   UNL     1      51.641  19.119  27.714  1.00  0.00     0.012 C 
ENDBRANCH  16  28
BRANCH  14  31
HETATM   31  C   UNL     1      52.892  17.085  33.165  1.00  0.00     0.010 C 
HETATM   32  C   UNL     1      51.997  16.643  32.009  1.00  0.00     0.012 C 
HETATM   33  C   UNL     1      53.759  15.924  33.645  1.00  0.00     0.012 C 
ENDBRANCH  14  31
BRANCH  13  34
HETATM   34  C   UNL     1      54.503  24.452  27.898  1.00  0.00     0.010 C 
HETATM   35  C   UNL     1      55.937  24.644  27.405  1.00  0.00     0.012 C 
HETATM   36  C   UNL     1      53.834  25.805  28.133  1.00  0.00     0.012 C 
ENDBRANCH  13  34
BRANCH  18  37
HETATM   37  C   UNL     1      57.442  21.157  34.470  1.00  0.00     0.016 C 
HETATM   38  C   UNL     1      57.491  22.594  33.949  1.00  0.00     0.012 C 
HETATM   39  C   UNL     1      58.269  21.022  35.746  1.00  0.00     0.012 C 
ENDBRANCH  18  37
BRANCH  17  40
HETATM   40  C   UNL     1      52.483  26.515  31.714  1.00  0.00     0.016 C 
HETATM   41  C   UNL     1      51.974  27.358  32.881  1.00  0.00     0.012 C 
HETATM   42  C   UNL     1      51.509  26.583  30.539  1.00  0.00     0.012 C 
ENDBRANCH  17  40
BRANCH  15  43
HETATM   43  C   UNL     1      53.100  23.967  36.705  1.00  0.00     0.010 C 
HETATM   44  C   UNL     1      52.887  22.615  37.380  1.00  0.00     0.012 C 
HETATM   45  C   UNL     1      53.596  25.000  37.713  1.00  0.00     0.012 C 
ENDBRANCH  15  43
TORSDOF 6
ENDMDL
MODEL 9
REMARK VINA RESULT:    -4.529      2.617      7.129
REMARK INTER + INTRA:          -5.165
REMARK INTER:                  -6.649
REMARK INTRA:                   1.485
REMARK UNBOUND:                 0.953
REMARK  6 active torsions:
REMARK  status: ('A' for Active; 'I' for Inactive)
REMARK    1  A    between atoms: C_13  and  C_16 
REMARK    2  A    between atoms: C_14  and  C_17 
REMARK    3  A    between atoms: C_15  and  C_18 
REMARK    4  A    between atoms: C_19  and  C_22 
REMARK    5  A    between atoms: C_20  and  C_23 
REMARK    6  A    between atoms: C_21  and  C_24 
ROOT
HETATM    1  O   UNL     1      52.873  22.565  29.006  1.00  0.00    -0.304 OA
HETATM    2  O   UNL     1      52.569  25.180  33.462  1.00  0.00    -0.304 OA
HETATM    3  O   UNL     1      54.838  21.034  33.599  1.00  0.00    -0.304 OA
HETATM    4  O   UNL     1      54.373  24.031  30.530  1.00  0.00    -0.270 OA
HETATM    5  O   UNL     1      55.751  21.429  30.565  1.00  0.00    -0.270 OA
HETATM    6  O   UNL     1      54.081  24.162  36.142  1.00  0.00    -0.270 OA
HETATM    7  O   UNL     1      51.683  21.648  30.756  1.00  0.00    -0.263 OA
HETATM    8  O   UNL     1      54.467  26.301  34.125  1.00  0.00    -0.263 OA
HETATM    9  O   UNL     1      55.381  19.598  35.307  1.00  0.00    -0.263 OA
HETATM   10  N   UNL     1      52.851  25.732  30.905  1.00  0.00    -0.340 N 
HETATM   11  N   UNL     1      53.976  19.975  30.911  1.00  0.00    -0.340 N 
HETATM   12  N   UNL     1      53.031  22.411  35.028  1.00  0.00    -0.340 N 
HETATM   13  C   UNL     1      53.803  26.411  31.810  1.00  0.00     0.190 C 
HETATM   14  C   UNL     1      53.386  20.342  29.608  1.00  0.00     0.190 C 
HETATM   15  C   UNL     1      53.809  21.380  35.747  1.00  0.00     0.190 C 
HETATM   16  C   UNL     1      52.342  23.881  29.273  1.00  0.00     0.227 C 
HETATM   17  C   UNL     1      52.193  24.759  34.784  1.00  0.00     0.227 C 
HETATM   18  C   UNL     1      55.709  20.334  32.691  1.00  0.00     0.227 C 
HETATM   19  C   UNL     1      53.275  24.546  30.290  1.00  0.00     0.250 C 
HETATM   20  C   UNL     1      55.159  20.630  31.298  1.00  0.00     0.250 C 
HETATM   21  C   UNL     1      53.198  23.762  35.378  1.00  0.00     0.250 C 
HETATM   22  C   UNL     1      52.527  21.567  29.872  1.00  0.00     0.283 C 
HETATM   23  C   UNL     1      53.671  25.952  33.260  1.00  0.00     0.283 C 
HETATM   24  C   UNL     1      54.752  20.557  34.872  1.00  0.00     0.283 C 
HETATM   25  C   UNL     1      51.519  26.323  30.745  1.00  0.00     0.153 C 
HETATM   26  C   UNL     1      53.270  18.982  31.727  1.00  0.00     0.153 C 
HETATM   27  C   UNL     1      51.991  21.952  34.105  1.00  0.00     0.153 C 
ENDROOT
BRANCH  16  28
HETATM   28  C   UNL     1      52.357  24.639  27.954  1.00  0.00     0.016 C 
HETATM   29  C   UNL     1      53.792  24.868  27.479  1.00  0.00     0.012 C 
HETATM   30  C   UNL     1      51.556  23.888  26.890  1.00  0.00     0.012 C 
ENDBRANCH  16  28
BRANCH  14  31
HETATM   31  C   UNL     1      52.562  19.261  28.919  1.00  0.00     0.010 C 
HETATM   32  C   UNL     1      51.520  19.887  27.995  1.00  0.00     0.012 C 
HETATM   33  C   UNL     1      53.468  18.311  28.139  1.00  0.00     0.012 C 
ENDBRANCH  14  31
BRANCH  13  34
HETATM   34  C   UNL     1      53.734  27.936  31.744  1.00  0.00     0.010 C 
HETATM   35  C   UNL     1      52.620  28.465  32.645  1.00  0.00     0.012 C 
HETATM   36  C   UNL     1      53.528  28.407  30.306  1.00  0.00     0.012 C 
ENDBRANCH  13  34
BRANCH  18  37
HETATM   37  C   UNL     1      57.127  20.871  32.863  1.00  0.00     0.016 C 
HETATM   38  C   UNL     1      57.122  22.143  33.711  1.00  0.00     0.012 C 
HETATM   39  C   UNL     1      58.033  19.814  33.491  1.00  0.00     0.012 C 
ENDBRANCH  18  37
BRANCH  17  40
HETATM   40  C   UNL     1      51.929  25.950  35.706  1.00  0.00     0.016 C 
HETATM   41  C   UNL     1      51.734  25.483  37.146  1.00  0.00     0.012 C 
HETATM   42  C   UNL     1      50.712  26.740  35.228  1.00  0.00     0.012 C 
ENDBRANCH  17  40
BRANCH  15  43
HETATM   43  C   UNL     1      52.896  20.462  36.560  1.00  0.00     0.010 C 
HETATM   44  C   UNL     1      52.738  19.112  35.864  1.00  0.00     0.012 C 
HETATM   45  C   UNL     1      53.444  20.279  37.972  1.00  0.00     0.012 C 
ENDBRANCH  15  43
TORSDOF 6
ENDMDL
MODEL 10
REMARK VINA RESULT:    -4.382      2.110      7.996
REMARK INTER + INTRA:          -4.966
REMARK INTER:                  -5.897
REMARK INTRA:                   0.931
REMARK UNBOUND:                 0.953
REMARK  6 active torsions:
REMARK  status: ('A' for Active; 'I' for Inactive)
REMARK    1  A    between atoms: C_13  and  C_16 
REMARK    2  A    between atoms: C_14  and  C_17 
REMARK    3  A    between atoms: C_15  and  C_18 
REMARK    4  A    between atoms: C_19  and  C_22 
REMARK    5  A    between atoms: C_20  and  C_23 
REMARK    6  A    between atoms: C_21  and  C_24 
ROOT
HETATM    1  O   UNL     1      58.030  20.841  29.098  1.00  0.00    -0.304 OA
HETATM    2  O   UNL     1      53.865  18.849  31.435  1.00  0.00    -0.304 OA
HETATM    3  O   UNL     1      54.089  23.565  31.184  1.00  0.00    -0.304 OA
HETATM    4  O   UNL     1      55.521  20.412  28.610  1.00  0.00    -0.270 OA
HETATM    5  O   UNL     1      55.725  23.345  28.450  1.00  0.00    -0.270 OA
HETATM    6  O   UNL     1      51.413  20.720  32.434  1.00  0.00    -0.270 OA
HETATM    7  O   UNL     1      57.706  21.261  31.342  1.00  0.00    -0.263 OA
HETATM    8  O   UNL     1      51.915  18.824  30.211  1.00  0.00    -0.263 OA
HETATM    9  O   UNL     1      53.052  25.250  32.349  1.00  0.00    -0.263 OA
HETATM   10  N   UNL     1      55.425  18.243  29.406  1.00  0.00    -0.340 N 
HETATM   11  N   UNL     1      56.974  23.821  30.347  1.00  0.00    -0.340 N 
HETATM   12  N   UNL     1      53.479  21.652  32.962  1.00  0.00    -0.340 N 
HETATM   13  C   UNL     1      53.974  18.185  29.130  1.00  0.00     0.190 C 
HETATM   14  C   UNL     1      58.136  23.092  29.798  1.00  0.00     0.190 C 
HETATM   15  C   UNL     1      52.904  22.993  33.198  1.00  0.00     0.190 C 
HETATM   16  C   UNL     1      57.623  19.464  29.249  1.00  0.00     0.227 C 
HETATM   17  C   UNL     1      53.233  19.173  32.685  1.00  0.00     0.227 C 
HETATM   18  C   UNL     1      54.562  24.498  30.194  1.00  0.00     0.227 C 
HETATM   19  C   UNL     1      56.104  19.420  29.064  1.00  0.00     0.250 C 
HETATM   20  C   UNL     1      55.796  23.841  29.579  1.00  0.00     0.250 C 
HETATM   21  C   UNL     1      52.617  20.580  32.671  1.00  0.00     0.250 C 
HETATM   22  C   UNL     1      57.942  21.641  30.202  1.00  0.00     0.283 C 
HETATM   23  C   UNL     1      53.128  18.670  30.306  1.00  0.00     0.283 C 
HETATM   24  C   UNL     1      53.359  24.070  32.216  1.00  0.00     0.283 C 
HETATM   25  C   UNL     1      56.046  17.082  30.052  1.00  0.00     0.153 C 
HETATM   26  C   UNL     1      57.118  24.442  31.667  1.00  0.00     0.153 C 
HETATM   27  C   UNL     1      54.909  21.473  33.222  1.00  0.00     0.153 C 
ENDROOT
BRANCH  16  28
HETATM   28  C   UNL     1      58.321  18.675  28.151  1.00  0.00     0.016 C 
HETATM   29  C   UNL     1      57.813  19.101  26.774  1.00  0.00     0.012 C 
HETATM   30  C   UNL     1      59.837  18.852  28.239  1.00  0.00     0.012 C 
ENDBRANCH  16  28
BRANCH  14  31
HETATM   31  C   UNL     1      59.506  23.585  30.245  1.00  0.00     0.010 C 
HETATM   32  C   UNL     1      60.556  22.491  30.063  1.00  0.00     0.012 C 
HETATM   33  C   UNL     1      59.903  24.842  29.475  1.00  0.00     0.012 C 
ENDBRANCH  14  31
BRANCH  13  34
HETATM   34  C   UNL     1      53.487  16.808  28.679  1.00  0.00     0.010 C 
HETATM   35  C   UNL     1      52.644  16.923  27.409  1.00  0.00     0.012 C 
HETATM   36  C   UNL     1      52.690  16.125  29.789  1.00  0.00     0.012 C 
ENDBRANCH  13  34
BRANCH  18  37
HETATM   37  C   UNL     1      53.462  24.710  29.158  1.00  0.00     0.016 C 
HETATM   38  C   UNL     1      52.391  23.626  29.279  1.00  0.00     0.012 C 
HETATM   39  C   UNL     1      52.838  26.097  29.307  1.00  0.00     0.012 C 
ENDBRANCH  18  37
BRANCH  17  40
HETATM   40  C   UNL     1      52.236  18.097  33.114  1.00  0.00     0.016 C 
HETATM   41  C   UNL     1      51.555  18.486  34.424  1.00  0.00     0.012 C 
HETATM   42  C   UNL     1      52.933  16.744  33.253  1.00  0.00     0.012 C 
ENDBRANCH  17  40
BRANCH  15  43
HETATM   43  C   UNL     1      53.133  23.450  34.639  1.00  0.00     0.010 C 
HETATM   44  C   UNL     1      52.315  24.704  34.937  1.00  0.00     0.012 C 
HETATM   45  C   UNL     1      52.781  22.332  35.616  1.00  0.00     0.012 C 
ENDBRANCH  15  43
TORSDOF 6
ENDMDL
MODEL 11
REMARK VINA RESULT:    -4.333      3.053      7.390
REMARK INTER + INTRA:          -4.900
REMARK INTER:                  -5.721
REMARK INTRA:                   0.820
REMARK UNBOUND:                 0.953
REMARK  6 active torsions:
REMARK  status: ('A' for Active; 'I' for Inactive)
REMARK    1  A    between atoms: C_13  and  C_16 
REMARK    2  A    between atoms: C_14  and  C_17 
REMARK    3  A    between atoms: C_15  and  C_18 
REMARK    4  A    between atoms: C_19  and  C_22 
REMARK    5  A    between atoms: C_20  and  C_23 
REMARK    6  A    between atoms: C_21  and  C_24 
ROOT
HETATM    1  O   UNL     1      53.439  19.388  29.507  1.00  0.00    -0.304 OA
HETATM    2  O   UNL     1      53.982  19.118  34.647  1.00  0.00    -0.304 OA
HETATM    3  O   UNL     1      57.886  18.415  32.073  1.00  0.00    -0.304 OA
HETATM    4  O   UNL     1      54.356  20.821  31.464  1.00  0.00    -0.270 OA
HETATM    5  O   UNL     1      56.750  20.362  29.812  1.00  0.00    -0.270 OA
HETATM    6  O   UNL     1      56.888  18.753  36.037  1.00  0.00    -0.270 OA
HETATM    7  O   UNL     1      54.048  17.377  30.458  1.00  0.00    -0.263 OA
HETATM    8  O   UNL     1      54.927  20.948  35.676  1.00  0.00    -0.263 OA
HETATM    9  O   UNL     1      59.906  17.420  32.525  1.00  0.00    -0.263 OA
HETATM   10  N   UNL     1      52.581  20.519  32.916  1.00  0.00    -0.340 N 
HETATM   11  N   UNL     1      56.578  18.090  29.376  1.00  0.00    -0.340 N 
HETATM   12  N   UNL     1      56.632  17.355  34.195  1.00  0.00    -0.340 N 
HETATM   13  C   UNL     1      53.274  21.307  33.957  1.00  0.00     0.190 C 
HETATM   14  C   UNL     1      55.333  18.303  28.610  1.00  0.00     0.190 C 
HETATM   15  C   UNL     1      58.084  17.105  34.081  1.00  0.00     0.190 C 
HETATM   16  C   UNL     1      52.479  19.647  30.555  1.00  0.00     0.227 C 
HETATM   17  C   UNL     1      54.632  18.145  35.481  1.00  0.00     0.227 C 
HETATM   18  C   UNL     1      58.401  18.980  30.853  1.00  0.00     0.227 C 
HETATM   19  C   UNL     1      53.223  20.373  31.679  1.00  0.00     0.250 C 
HETATM   20  C   UNL     1      57.178  19.214  29.970  1.00  0.00     0.250 C 
HETATM   21  C   UNL     1      56.153  18.127  35.268  1.00  0.00     0.250 C 
HETATM   22  C   UNL     1      54.208  18.265  29.631  1.00  0.00     0.283 C 
HETATM   23  C   UNL     1      54.170  20.450  34.850  1.00  0.00     0.283 C 
HETATM   24  C   UNL     1      58.733  17.643  32.808  1.00  0.00     0.283 C 
HETATM   25  C   UNL     1      51.292  19.913  33.261  1.00  0.00     0.153 C 
HETATM   26  C   UNL     1      57.082  16.718  29.494  1.00  0.00     0.153 C 
HETATM   27  C   UNL     1      55.748  16.632  33.279  1.00  0.00     0.153 C 
ENDROOT
BRANCH  16  28
HETATM   28  C   UNL     1      51.403  20.540  29.956  1.00  0.00     0.016 C 
HETATM   29  C   UNL     1      51.867  21.122  28.621  1.00  0.00     0.012 C 
HETATM   30  C   UNL     1      50.097  19.768  29.777  1.00  0.00     0.012 C 
ENDBRANCH  16  28
BRANCH  14  31
HETATM   31  C   UNL     1      55.059  17.309  27.489  1.00  0.00     0.010 C 
HETATM   32  C   UNL     1      53.584  17.335  27.096  1.00  0.00     0.012 C 
HETATM   33  C   UNL     1      55.941  17.609  26.278  1.00  0.00     0.012 C 
ENDBRANCH  14  31
BRANCH  13  34
HETATM   34  C   UNL     1      52.334  22.144  34.824  1.00  0.00     0.010 C 
HETATM   35  C   UNL     1      52.679  23.629  34.715  1.00  0.00     0.012 C 
HETATM   36  C   UNL     1      52.391  21.688  36.280  1.00  0.00     0.012 C 
ENDBRANCH  13  34
BRANCH  18  37
HETATM   37  C   UNL     1      59.116  20.288  31.185  1.00  0.00     0.016 C 
HETATM   38  C   UNL     1      58.826  20.709  32.626  1.00  0.00     0.012 C 
HETATM   39  C   UNL     1      60.620  20.155  30.959  1.00  0.00     0.012 C 
ENDBRANCH  18  37
BRANCH  17  40
HETATM   40  C   UNL     1      54.245  18.307  36.951  1.00  0.00     0.016 C 
HETATM   41  C   UNL     1      54.940  17.254  37.811  1.00  0.00     0.012 C 
HETATM   42  C   UNL     1      52.729  18.223  37.120  1.00  0.00     0.012 C 
ENDBRANCH  17  40
BRANCH  15  43
HETATM   43  C   UNL     1      58.409  15.621  34.262  1.00  0.00     0.010 C 
HETATM   44  C   UNL     1      59.914  15.420  34.418  1.00  0.00     0.012 C 
HETATM   45  C   UNL     1      57.661  15.054  35.464  1.00  0.00     0.012 C 
ENDBRANCH  15  43
TORSDOF 6
ENDMDL
MODEL 12
REMARK VINA RESULT:    -4.321      3.002      7.381
REMARK INTER + INTRA:          -4.884
REMARK INTER:                  -5.575
REMARK INTRA:                   0.691
REMARK UNBOUND:                 0.953
REMARK  6 active torsions:
REMARK  status: ('A' for Active; 'I' for Inactive)
REMARK    1  A    between atoms: C_13  and  C_16 
REMARK    2  A    between atoms: C_14  and  C_17 
REMARK    3  A    between atoms: C_15  and  C_18 
REMARK    4  A    between atoms: C_19  and  C_22 
REMARK    5  A    between atoms: C_20  and  C_23 
REMARK    6  A    between atoms: C_21  and  C_24 
ROOT
HETATM    1  O   UNL     1      57.495  18.653  34.124  1.00  0.00    -0.304 OA
HETATM    2  O   UNL     1      53.621  18.539  30.694  1.00  0.00    -0.304 OA
HETATM    3  O   UNL     1      56.234  22.478  30.796  1.00  0.00    -0.304 OA
HETATM    4  O   UNL     1      57.135  18.331  31.578  1.00  0.00    -0.270 OA
HETATM    5  O   UNL     1      58.777  20.773  31.702  1.00  0.00    -0.270 OA
HETATM    6  O   UNL     1      53.175  20.927  28.547  1.00  0.00    -0.270 OA
HETATM    7  O   UNL     1      55.752  20.144  34.364  1.00  0.00    -0.263 OA
HETATM    8  O   UNL     1      54.203  18.146  28.501  1.00  0.00    -0.263 OA
HETATM    9  O   UNL     1      55.870  24.623  30.061  1.00  0.00    -0.263 OA
HETATM   10  N   UNL     1      55.364  16.850  31.707  1.00  0.00    -0.340 N 
HETATM   11  N   UNL     1      57.701  21.963  33.379  1.00  0.00    -0.340 N 
HETATM   12  N   UNL     1      53.654  21.754  30.668  1.00  0.00    -0.340 N 
HETATM   13  C   UNL     1      55.245  16.831  30.234  1.00  0.00     0.190 C 
HETATM   14  C   UNL     1      58.054  20.931  34.375  1.00  0.00     0.190 C 
HETATM   15  C   UNL     1      53.999  23.096  30.155  1.00  0.00     0.190 C 
HETATM   16  C   UNL     1      56.591  17.580  33.783  1.00  0.00     0.227 C 
HETATM   17  C   UNL     1      52.596  19.500  30.390  1.00  0.00     0.227 C 
HETATM   18  C   UNL     1      57.634  22.752  30.997  1.00  0.00     0.227 C 
HETATM   19  C   UNL     1      56.388  17.626  32.266  1.00  0.00     0.250 C 
HETATM   20  C   UNL     1      58.093  21.742  32.046  1.00  0.00     0.250 C 
HETATM   21  C   UNL     1      53.174  20.782  29.773  1.00  0.00     0.250 C 
HETATM   22  C   UNL     1      56.948  19.892  34.305  1.00  0.00     0.283 C 
HETATM   23  C   UNL     1      54.316  17.920  29.702  1.00  0.00     0.283 C 
HETATM   24  C   UNL     1      55.460  23.501  30.340  1.00  0.00     0.283 C 
HETATM   25  C   UNL     1      54.381  16.087  32.483  1.00  0.00     0.153 C 
HETATM   26  C   UNL     1      56.936  23.126  33.839  1.00  0.00     0.153 C 
HETATM   27  C   UNL     1      53.663  21.561  32.120  1.00  0.00     0.153 C 
ENDROOT
BRANCH  16  28
HETATM   28  C   UNL     1      57.272  16.283  34.195  1.00  0.00     0.016 C 
HETATM   29  C   UNL     1      58.766  16.506  34.420  1.00  0.00     0.012 C 
HETATM   30  C   UNL     1      56.622  15.708  35.454  1.00  0.00     0.012 C 
ENDBRANCH  16  28
BRANCH  14  31
HETATM   31  C   UNL     1      58.228  21.419  35.808  1.00  0.00     0.010 C 
HETATM   32  C   UNL     1      58.075  20.260  36.792  1.00  0.00     0.012 C 
HETATM   33  C   UNL     1      59.585  22.096  35.985  1.00  0.00     0.012 C 
ENDBRANCH  14  31
BRANCH  13  34
HETATM   34  C   UNL     1      54.829  15.475  29.666  1.00  0.00     0.010 C 
HETATM   35  C   UNL     1      55.831  15.000  28.614  1.00  0.00     0.012 C 
HETATM   36  C   UNL     1      53.424  15.546  29.072  1.00  0.00     0.012 C 
ENDBRANCH  13  34
BRANCH  18  37
HETATM   37  C   UNL     1      58.365  22.558  29.671  1.00  0.00     0.016 C 
HETATM   38  C   UNL     1      57.460  21.864  28.653  1.00  0.00     0.012 C 
HETATM   39  C   UNL     1      58.856  23.897  29.124  1.00  0.00     0.012 C 
ENDBRANCH  18  37
BRANCH  17  40
HETATM   40  C   UNL     1      51.479  18.890  29.543  1.00  0.00     0.016 C 
HETATM   41  C   UNL     1      50.390  19.923  29.264  1.00  0.00     0.012 C 
HETATM   42  C   UNL     1      50.889  17.662  30.236  1.00  0.00     0.012 C 
ENDBRANCH  17  40
BRANCH  15  43
HETATM   43  C   UNL     1      53.070  24.167  30.730  1.00  0.00     0.010 C 
HETATM   44  C   UNL     1      53.800  24.997  31.783  1.00  0.00     0.012 C 
HETATM   45  C   UNL     1      52.532  25.061  29.617  1.00  0.00     0.012 C 
ENDBRANCH  15  43
TORSDOF 6
ENDMDL
MODEL 13
REMARK VINA RESULT:    -4.320      2.704      6.526
REMARK INTER + INTRA:          -4.883
REMARK INTER:                  -6.170
REMARK INTRA:                   1.287
REMARK UNBOUND:                 0.953
REMARK  6 active torsions:
REMARK  status: ('A' for Active; 'I' for Inactive)
REMARK    1  A    between atoms: C_13  and  C_16 
REMARK    2  A    between atoms: C_14  and  C_17 
REMARK    3  A    between atoms: C_15  and  C_18 
REMARK    4  A    between atoms: C_19  and  C_22 
REMARK    5  A    between atoms: C_20  and  C_23 
REMARK    6  A    between atoms: C_21  and  C_24 
ROOT
HETATM    1  O   UNL     1      55.090  21.129  31.365  1.00  0.00    -0.304 OA
HETATM    2  O   UNL     1      54.172  17.407  34.841  1.00  0.00    -0.304 OA
HETATM    3  O   UNL     1      51.409  17.439  31.004  1.00  0.00    -0.304 OA
HETATM    4  O   UNL     1      55.511  18.591  31.683  1.00  0.00    -0.270 OA
HETATM    5  O   UNL     1      53.800  18.674  29.288  1.00  0.00    -0.270 OA
HETATM    6  O   UNL     1      52.000  15.063  34.295  1.00  0.00    -0.270 OA
HETATM    7  O   UNL     1      53.067  21.114  32.472  1.00  0.00    -0.263 OA
HETATM    8  O   UNL     1      54.955  15.304  34.324  1.00  0.00    -0.263 OA
HETATM    9  O   UNL     1      49.354  16.523  30.542  1.00  0.00    -0.263 OA
HETATM   10  N   UNL     1      56.258  18.680  33.870  1.00  0.00    -0.340 N 
HETATM   11  N   UNL     1      52.152  20.165  29.954  1.00  0.00    -0.340 N 
HETATM   12  N   UNL     1      51.191  17.151  33.663  1.00  0.00    -0.340 N 
HETATM   13  C   UNL     1      56.377  17.208  33.910  1.00  0.00     0.190 C 
HETATM   14  C   UNL     1      53.140  21.260  30.044  1.00  0.00     0.190 C 
HETATM   15  C   UNL     1      50.112  16.572  32.836  1.00  0.00     0.190 C 
HETATM   16  C   UNL     1      55.807  20.792  32.573  1.00  0.00     0.227 C 
HETATM   17  C   UNL     1      52.947  16.950  35.439  1.00  0.00     0.227 C 
HETATM   18  C   UNL     1      51.625  17.735  29.612  1.00  0.00     0.227 C 
HETATM   19  C   UNL     1      55.840  19.265  32.666  1.00  0.00     0.250 C 
HETATM   20  C   UNL     1      52.624  18.889  29.597  1.00  0.00     0.250 C 
HETATM   21  C   UNL     1      52.015  16.292  34.411  1.00  0.00     0.250 C 
HETATM   22  C   UNL     1      53.727  21.173  31.442  1.00  0.00     0.283 C 
HETATM   23  C   UNL     1      55.089  16.522  34.362  1.00  0.00     0.283 C 
HETATM   24  C   UNL     1      50.228  16.847  31.339  1.00  0.00     0.283 C 
HETATM   25  C   UNL     1      56.549  19.425  35.099  1.00  0.00     0.153 C 
HETATM   26  C   UNL     1      50.755  20.475  30.277  1.00  0.00     0.153 C 
HETATM   27  C   UNL     1      51.233  18.608  33.798  1.00  0.00     0.153 C 
ENDROOT
BRANCH  16  28
HETATM   28  C   UNL     1      57.213  21.353  32.421  1.00  0.00     0.016 C 
HETATM   29  C   UNL     1      57.503  21.694  30.960  1.00  0.00     0.012 C 
HETATM   30  C   UNL     1      57.403  22.585  33.305  1.00  0.00     0.012 C 
ENDBRANCH  16  28
BRANCH  14  31
HETATM   31  C   UNL     1      52.608  22.663  29.782  1.00  0.00     0.010 C 
HETATM   32  C   UNL     1      53.533  23.711  30.397  1.00  0.00     0.012 C 
HETATM   33  C   UNL     1      52.445  22.905  28.283  1.00  0.00     0.012 C 
ENDBRANCH  14  31
BRANCH  13  34
HETATM   34  C   UNL     1      57.549  16.707  34.753  1.00  0.00     0.010 C 
HETATM   35  C   UNL     1      58.499  15.860  33.906  1.00  0.00     0.012 C 
HETATM   36  C   UNL     1      57.050  15.908  35.955  1.00  0.00     0.012 C 
ENDBRANCH  13  34
BRANCH  18  37
HETATM   37  C   UNL     1      52.190  16.492  28.930  1.00  0.00     0.016 C 
HETATM   38  C   UNL     1      52.640  16.816  27.505  1.00  0.00     0.012 C 
HETATM   39  C   UNL     1      53.348  15.911  29.738  1.00  0.00     0.012 C 
ENDBRANCH  18  37
BRANCH  17  40
HETATM   40  C   UNL     1      53.207  16.060  36.655  1.00  0.00     0.016 C 
HETATM   41  C   UNL     1      51.889  15.595  37.272  1.00  0.00     0.012 C 
HETATM   42  C   UNL     1      54.053  16.798  37.690  1.00  0.00     0.012 C 
ENDBRANCH  17  40
BRANCH  15  43
HETATM   43  C   UNL     1      48.733  16.989  33.351  1.00  0.00     0.010 C 
HETATM   44  C   UNL     1      47.644  16.128  32.718  1.00  0.00     0.012 C 
HETATM   45  C   UNL     1      48.680  16.892  34.873  1.00  0.00     0.012 C 
ENDBRANCH  15  43
TORSDOF 6
ENDMDL
MODEL 14
REMARK VINA RESULT:    -4.283      2.760      7.616
REMARK INTER + INTRA:          -4.832
REMARK INTER:                  -5.816
REMARK INTRA:                   0.983
REMARK UNBOUND:                 0.953
REMARK  6 active torsions:
REMARK  status: ('A' for Active; 'I' for Inactive)
REMARK    1  A    between atoms: C_13  and  C_16 
REMARK    2  A    between atoms: C_14  and  C_17 
REMARK    3  A    between atoms: C_15  and  C_18 
REMARK    4  A    between atoms: C_19  and  C_22 
REMARK    5  A    between atoms: C_20  and  C_23 
REMARK    6  A    between atoms: C_21  and  C_24 
ROOT
HETATM    1  O   UNL     1      52.383  21.571  29.522  1.00  0.00    -0.304 OA
HETATM    2  O   UNL     1      56.535  19.305  31.622  1.00  0.00    -0.304 OA
HETATM    3  O   UNL     1      55.773  23.819  32.801  1.00  0.00    -0.304 OA
HETATM    4  O   UNL     1      53.134  20.559  31.787  1.00  0.00    -0.270 OA
HETATM    5  O   UNL     1      52.629  23.380  32.466  1.00  0.00    -0.270 OA
HETATM    6  O   UNL     1      58.363  20.812  33.834  1.00  0.00    -0.270 OA
HETATM    7  O   UNL     1      54.479  22.364  28.977  1.00  0.00    -0.263 OA
HETATM    8  O   UNL     1      56.342  18.643  33.819  1.00  0.00    -0.263 OA
HETATM    9  O   UNL     1      57.121  25.464  33.667  1.00  0.00    -0.263 OA
HETATM   10  N   UNL     1      54.084  18.622  30.954  1.00  0.00    -0.340 N 
HETATM   11  N   UNL     1      53.694  24.470  30.717  1.00  0.00    -0.340 N 
HETATM   12  N   UNL     1      57.803  22.224  32.072  1.00  0.00    -0.340 N 
HETATM   13  C   UNL     1      54.506  18.221  32.313  1.00  0.00     0.190 C 
HETATM   14  C   UNL     1      52.746  23.891  29.743  1.00  0.00     0.190 C 
HETATM   15  C   UNL     1      58.149  23.443  32.832  1.00  0.00     0.190 C 
HETATM   16  C   UNL     1      52.830  20.200  29.442  1.00  0.00     0.227 C 
HETATM   17  C   UNL     1      57.900  19.743  31.734  1.00  0.00     0.227 C 
HETATM   18  C   UNL     1      54.595  24.607  33.056  1.00  0.00     0.227 C 
HETATM   19  C   UNL     1      53.362  19.817  30.825  1.00  0.00     0.250 C 
HETATM   20  C   UNL     1      53.550  24.098  32.066  1.00  0.00     0.250 C 
HETATM   21  C   UNL     1      58.037  20.966  32.653  1.00  0.00     0.250 C 
HETATM   22  C   UNL     1      53.327  22.544  29.351  1.00  0.00     0.283 C 
HETATM   23  C   UNL     1      55.887  18.756  32.685  1.00  0.00     0.283 C 
HETATM   24  C   UNL     1      56.973  24.368  33.138  1.00  0.00     0.283 C 
HETATM   25  C   UNL     1      54.480  17.765  29.833  1.00  0.00     0.153 C 
HETATM   26  C   UNL     1      54.740  25.362  30.207  1.00  0.00     0.153 C 
HETATM   27  C   UNL     1      57.398  22.391  30.675  1.00  0.00     0.153 C 
ENDROOT
BRANCH  16  28
HETATM   28  C   UNL     1      51.613  19.360  29.083  1.00  0.00     0.016 C 
HETATM   29  C   UNL     1      50.335  20.008  29.614  1.00  0.00     0.012 C 
HETATM   30  C   UNL     1      51.522  19.159  27.570  1.00  0.00     0.012 C 
ENDBRANCH  16  28
BRANCH  14  31
HETATM   31  C   UNL     1      52.472  24.728  28.499  1.00  0.00     0.010 C 
HETATM   32  C   UNL     1      51.911  23.856  27.378  1.00  0.00     0.012 C 
HETATM   33  C   UNL     1      51.512  25.870  28.821  1.00  0.00     0.012 C 
ENDBRANCH  14  31
BRANCH  13  34
HETATM   34  C   UNL     1      54.456  16.713  32.553  1.00  0.00     0.010 C 
HETATM   35  C   UNL     1      53.021  16.255  32.810  1.00  0.00     0.012 C 
HETATM   36  C   UNL     1      55.359  16.321  33.721  1.00  0.00     0.012 C 
ENDBRANCH  13  34
BRANCH  18  37
HETATM   37  C   UNL     1      54.159  24.381  34.501  1.00  0.00     0.016 C 
HETATM   38  C   UNL     1      54.928  23.212  35.119  1.00  0.00     0.012 C 
HETATM   39  C   UNL     1      54.356  25.648  35.330  1.00  0.00     0.012 C 
ENDBRANCH  18  37
BRANCH  17  40
HETATM   40  C   UNL     1      58.833  18.599  32.129  1.00  0.00     0.016 C 
HETATM   41  C   UNL     1      60.288  18.975  31.858  1.00  0.00     0.012 C 
HETATM   42  C   UNL     1      58.461  17.319  31.384  1.00  0.00     0.012 C 
ENDBRANCH  17  40
BRANCH  15  43
HETATM   43  C   UNL     1      59.279  24.220  32.154  1.00  0.00     0.010 C 
HETATM   44  C   UNL     1      58.723  25.438  31.421  1.00  0.00     0.012 C 
HETATM   45  C   UNL     1      60.328  24.640  33.179  1.00  0.00     0.012 C 
ENDBRANCH  15  43
TORSDOF 6
ENDMDL
MODEL 15
REMARK VINA RESULT:    -4.268      3.089      6.637
REMARK INTER + INTRA:          -4.812
REMARK INTER:                  -5.520
REMARK INTRA:                   0.708
REMARK UNBOUND:                 0.953
REMARK  6 active torsions:
REMARK  status: ('A' for Active; 'I' for Inactive)
REMARK    1  A    between atoms: C_13  and  C_16 
REMARK    2  A    between atoms: C_14  and  C_17 
REMARK    3  A    between atoms: C_15  and  C_18 
REMARK    4  A    between atoms: C_19  and  C_22 
REMARK    5  A    between atoms: C_20  and  C_23 
REMARK    6  A    between atoms: C_21  and  C_24 
ROOT
HETATM    1  O   UNL     1      53.241  19.107  29.774  1.00  0.00    -0.304 OA
HETATM    2  O   UNL     1      56.127  22.908  31.776  1.00  0.00    -0.304 OA
HETATM    3  O   UNL     1      58.437  19.523  29.419  1.00  0.00    -0.304 OA
HETATM    4  O   UNL     1      54.500  21.236  28.997  1.00  0.00    -0.270 OA
HETATM    5  O   UNL     1      55.891  19.086  27.543  1.00  0.00    -0.270 OA
HETATM    6  O   UNL     1      59.314  23.103  31.217  1.00  0.00    -0.270 OA
HETATM    7  O   UNL     1      54.762  18.596  31.430  1.00  0.00    -0.263 OA
HETATM    8  O   UNL     1      56.872  24.515  30.304  1.00  0.00    -0.263 OA
HETATM    9  O   UNL     1      60.629  18.837  29.403  1.00  0.00    -0.263 OA
HETATM   10  N   UNL     1      53.756  22.653  30.666  1.00  0.00    -0.340 N 
HETATM   11  N   UNL     1      56.195  17.517  29.225  1.00  0.00    -0.340 N 
HETATM   12  N   UNL     1      58.655  20.924  31.697  1.00  0.00    -0.340 N 
HETATM   13  C   UNL     1      54.591  23.751  30.133  1.00  0.00     0.190 C 
HETATM   14  C   UNL     1      54.735  17.331  29.352  1.00  0.00     0.190 C 
HETATM   15  C   UNL     1      59.897  20.341  31.147  1.00  0.00     0.190 C 
HETATM   16  C   UNL     1      52.838  20.317  30.453  1.00  0.00     0.227 C 
HETATM   17  C   UNL     1      57.334  22.872  32.556  1.00  0.00     0.227 C 
HETATM   18  C   UNL     1      58.152  18.743  28.242  1.00  0.00     0.227 C 
HETATM   19  C   UNL     1      53.772  21.433  29.976  1.00  0.00     0.250 C 
HETATM   20  C   UNL     1      56.651  18.469  28.296  1.00  0.00     0.250 C 
HETATM   21  C   UNL     1      58.522  22.322  31.753  1.00  0.00     0.250 C 
HETATM   22  C   UNL     1      54.265  18.394  30.330  1.00  0.00     0.283 C 
HETATM   23  C   UNL     1      55.998  23.765  30.727  1.00  0.00     0.283 C 
HETATM   24  C   UNL     1      59.708  19.471  29.907  1.00  0.00     0.283 C 
HETATM   25  C   UNL     1      53.000  22.904  31.897  1.00  0.00     0.153 C 
HETATM   26  C   UNL     1      57.065  16.725  30.100  1.00  0.00     0.153 C 
HETATM   27  C   UNL     1      57.697  20.009  32.321  1.00  0.00     0.153 C 
ENDROOT
BRANCH  16  28
HETATM   28  C   UNL     1      51.403  20.600  30.034  1.00  0.00     0.016 C 
HETATM   29  C   UNL     1      51.133  20.056  28.632  1.00  0.00     0.012 C 
HETATM   30  C   UNL     1      50.419  20.001  31.038  1.00  0.00     0.012 C 
ENDBRANCH  16  28
BRANCH  14  31
HETATM   31  C   UNL     1      54.275  15.953  29.811  1.00  0.00     0.010 C 
HETATM   32  C   UNL     1      52.941  16.050  30.549  1.00  0.00     0.012 C 
HETATM   33  C   UNL     1      54.162  15.000  28.623  1.00  0.00     0.012 C 
ENDBRANCH  14  31
BRANCH  13  34
HETATM   34  C   UNL     1      53.957  25.134  30.278  1.00  0.00     0.010 C 
HETATM   35  C   UNL     1      53.968  25.875  28.942  1.00  0.00     0.012 C 
HETATM   36  C   UNL     1      54.679  25.951  31.348  1.00  0.00     0.012 C 
ENDBRANCH  13  34
BRANCH  18  37
HETATM   37  C   UNL     1      58.533  19.560  27.011  1.00  0.00     0.016 C 
HETATM   38  C   UNL     1      58.872  20.999  27.402  1.00  0.00     0.012 C 
HETATM   39  C   UNL     1      59.706  18.916  26.275  1.00  0.00     0.012 C 
ENDBRANCH  18  37
BRANCH  17  40
HETATM   40  C   UNL     1      57.634  24.224  33.202  1.00  0.00     0.016 C 
HETATM   41  C   UNL     1      58.961  24.178  33.957  1.00  0.00     0.012 C 
HETATM   42  C   UNL     1      56.499  24.637  34.137  1.00  0.00     0.012 C 
ENDBRANCH  17  40
BRANCH  15  43
HETATM   43  C   UNL     1      60.676  19.580  32.221  1.00  0.00     0.010 C 
HETATM   44  C   UNL     1      60.527  18.074  32.021  1.00  0.00     0.012 C 
HETATM   45  C   UNL     1      62.147  19.984  32.200  1.00  0.00     0.012 C 
ENDBRANCH  15  43
TORSDOF 6
ENDMDL
MODEL 16
REMARK VINA RESULT:    -4.146      2.126      8.397
REMARK INTER + INTRA:          -4.647
REMARK INTER:                  -6.058
REMARK INTRA:                   1.411
REMARK UNBOUND:                 0.953
REMARK  6 active torsions:
REMARK  status: ('A' for Active; 'I' for Inactive)
REMARK    1  A    between atoms: C_13  and  C_16 
REMARK    2  A    between atoms: C_14  and  C_17 
REMARK    3  A    between atoms: C_15  and  C_18 
REMARK    4  A    between atoms: C_19  and  C_22 
REMARK    5  A    between atoms: C_20  and  C_23 
REMARK    6  A    between atoms: C_21  and  C_24 
ROOT
HETATM    1  O   UNL     1      56.737  20.641  28.488  1.00  0.00    -0.304 OA
HETATM    2  O   UNL     1      53.397  20.224  32.418  1.00  0.00    -0.304 OA
HETATM    3  O   UNL     1      54.474  24.611  31.021  1.00  0.00    -0.304 OA
HETATM    4  O   UNL     1      54.192  20.846  28.932  1.00  0.00    -0.270 OA
HETATM    5  O   UNL     1      54.919  23.556  28.041  1.00  0.00    -0.270 OA
HETATM    6  O   UNL     1      51.916  22.818  33.679  1.00  0.00    -0.270 OA
HETATM    7  O   UNL     1      57.346  21.457  30.557  1.00  0.00    -0.263 OA
HETATM    8  O   UNL     1      51.174  20.553  31.915  1.00  0.00    -0.263 OA
HETATM    9  O   UNL     1      54.300  26.667  32.030  1.00  0.00    -0.263 OA
HETATM   10  N   UNL     1      53.951  18.926  30.199  1.00  0.00    -0.340 N 
HETATM   11  N   UNL     1      56.842  23.945  29.279  1.00  0.00    -0.340 N 
HETATM   12  N   UNL     1      54.175  23.218  33.295  1.00  0.00    -0.340 N 
HETATM   13  C   UNL     1      52.520  19.226  30.418  1.00  0.00     0.190 C 
HETATM   14  C   UNL     1      57.548  22.855  28.575  1.00  0.00     0.190 C 
HETATM   15  C   UNL     1      54.013  24.684  33.382  1.00  0.00     0.190 C 
HETATM   16  C   UNL     1      56.140  19.465  29.075  1.00  0.00     0.227 C 
HETATM   17  C   UNL     1      53.345  20.888  33.693  1.00  0.00     0.227 C 
HETATM   18  C   UNL     1      54.733  25.225  29.744  1.00  0.00     0.227 C 
HETATM   19  C   UNL     1      54.684  19.810  29.396  1.00  0.00     0.250 C 
HETATM   20  C   UNL     1      55.496  24.173  28.942  1.00  0.00     0.250 C 
HETATM   21  C   UNL     1      53.067  22.391  33.548  1.00  0.00     0.250 C 
HETATM   22  C   UNL     1      57.223  21.587  29.346  1.00  0.00     0.283 C 
HETATM   23  C   UNL     1      52.279  20.090  31.654  1.00  0.00     0.283 C 
HETATM   24  C   UNL     1      54.290  25.441  32.085  1.00  0.00     0.283 C 
HETATM   25  C   UNL     1      54.513  17.747  30.866  1.00  0.00     0.153 C 
HETATM   26  C   UNL     1      57.581  24.690  30.304  1.00  0.00     0.153 C 
HETATM   27  C   UNL     1      55.532  22.696  33.122  1.00  0.00     0.153 C 
ENDROOT
BRANCH  16  28
HETATM   28  C   UNL     1      56.214  18.364  28.028  1.00  0.00     0.016 C 
HETATM   29  C   UNL     1      56.967  18.847  26.789  1.00  0.00     0.012 C 
HETATM   30  C   UNL     1      56.878  17.113  28.603  1.00  0.00     0.012 C 
ENDBRANCH  16  28
BRANCH  14  31
HETATM   31  C   UNL     1      59.057  23.015  28.439  1.00  0.00     0.010 C 
HETATM   32  C   UNL     1      59.720  21.664  28.180  1.00  0.00     0.012 C 
HETATM   33  C   UNL     1      59.394  24.000  27.322  1.00  0.00     0.012 C 
ENDBRANCH  14  31
BRANCH  13  34
HETATM   34  C   UNL     1      51.632  17.983  30.477  1.00  0.00     0.010 C 
HETATM   35  C   UNL     1      51.938  17.160  31.727  1.00  0.00     0.012 C 
HETATM   36  C   UNL     1      51.808  17.133  29.221  1.00  0.00     0.012 C 
ENDBRANCH  13  34
BRANCH  18  37
HETATM   37  C   UNL     1      53.399  25.575  29.090  1.00  0.00     0.016 C 
HETATM   38  C   UNL     1      52.242  24.919  29.843  1.00  0.00     0.012 C 
HETATM   39  C   UNL     1      53.208  27.089  29.030  1.00  0.00     0.012 C 
ENDBRANCH  18  37
BRANCH  17  40
HETATM   40  C   UNL     1      52.375  20.198  34.653  1.00  0.00     0.016 C 
HETATM   41  C   UNL     1      52.380  20.892  36.013  1.00  0.00     0.012 C 
HETATM   42  C   UNL     1      52.727  18.720  34.803  1.00  0.00     0.012 C 
ENDBRANCH  17  40
BRANCH  15  43
HETATM   43  C   UNL     1      54.840  25.267  34.529  1.00  0.00     0.010 C 
HETATM   44  C   UNL     1      56.074  25.984  33.986  1.00  0.00     0.012 C 
HETATM   45  C   UNL     1      53.991  26.217  35.369  1.00  0.00     0.012 C 
ENDBRANCH  15  43
TORSDOF 6
ENDMDL
MODEL 17
REMARK VINA RESULT:    -4.120      3.183      5.521
REMARK INTER + INTRA:          -4.613
REMARK INTER:                  -5.636
REMARK INTRA:                   1.023
REMARK UNBOUND:                 0.953
REMARK  6 active torsions:
REMARK  status: ('A' for Active; 'I' for Inactive)
REMARK    1  A    between atoms: C_13  and  C_16 
REMARK    2  A    between atoms: C_14  and  C_17 
REMARK    3  A    between atoms: C_15  and  C_18 
REMARK    4  A    between atoms: C_19  and  C_22 
REMARK    5  A    between atoms: C_20  and  C_23 
REMARK    6  A    between atoms: C_21  and  C_24 
ROOT
HETATM    1  O   UNL     1      52.994  21.897  29.561  1.00  0.00    -0.304 OA
HETATM    2  O   UNL     1      57.745  22.424  31.546  1.00  0.00    -0.304 OA
HETATM    3  O   UNL     1      56.379  18.024  30.480  1.00  0.00    -0.304 OA
HETATM    4  O   UNL     1      55.465  21.881  28.775  1.00  0.00    -0.270 OA
HETATM    5  O   UNL     1      54.553  19.159  28.120  1.00  0.00    -0.270 OA
HETATM    6  O   UNL     1      59.776  19.910  31.796  1.00  0.00    -0.270 OA
HETATM    7  O   UNL     1      53.454  20.952  31.613  1.00  0.00    -0.263 OA
HETATM    8  O   UNL     1      59.498  22.296  30.059  1.00  0.00    -0.263 OA
HETATM    9  O   UNL     1      57.108  15.950  31.145  1.00  0.00    -0.263 OA
HETATM   10  N   UNL     1      56.161  23.762  29.927  1.00  0.00    -0.340 N 
HETATM   11  N   UNL     1      53.442  18.566  30.069  1.00  0.00    -0.340 N 
HETATM   12  N   UNL     1      57.619  19.344  32.460  1.00  0.00    -0.340 N 
HETATM   13  C   UNL     1      57.545  23.569  29.445  1.00  0.00     0.190 C 
HETATM   14  C   UNL     1      52.434  19.624  29.848  1.00  0.00     0.190 C 
HETATM   15  C   UNL     1      57.880  17.893  32.356  1.00  0.00     0.190 C 
HETATM   16  C   UNL     1      53.732  23.093  29.894  1.00  0.00     0.227 C 
HETATM   17  C   UNL     1      58.414  21.716  32.603  1.00  0.00     0.227 C 
HETATM   18  C   UNL     1      55.592  17.444  29.423  1.00  0.00     0.227 C 
HETATM   19  C   UNL     1      55.188  22.854  29.486  1.00  0.00     0.250 C 
HETATM   20  C   UNL     1      54.490  18.462  29.137  1.00  0.00     0.250 C 
HETATM   21  C   UNL     1      58.673  20.247  32.237  1.00  0.00     0.250 C 
HETATM   22  C   UNL     1      53.011  20.882  30.475  1.00  0.00     0.283 C 
HETATM   23  C   UNL     1      58.375  22.679  30.367  1.00  0.00     0.283 C 
HETATM   24  C   UNL     1      57.077  17.169  31.278  1.00  0.00     0.283 C 
HETATM   25  C   UNL     1      55.908  24.863  30.862  1.00  0.00     0.153 C 
HETATM   26  C   UNL     1      53.301  17.724  31.261  1.00  0.00     0.153 C 
HETATM   27  C   UNL     1      56.310  19.761  32.967  1.00  0.00     0.153 C 
ENDROOT
BRANCH  16  28
HETATM   28  C   UNL     1      53.125  24.226  29.080  1.00  0.00     0.016 C 
HETATM   29  C   UNL     1      52.246  23.674  27.959  1.00  0.00     0.012 C 
HETATM   30  C   UNL     1      52.319  25.166  29.976  1.00  0.00     0.012 C 
ENDBRANCH  16  28
BRANCH  14  31
HETATM   31  C   UNL     1      51.043  19.348  30.406  1.00  0.00     0.010 C 
HETATM   32  C   UNL     1      50.707  20.333  31.523  1.00  0.00     0.012 C 
HETATM   33  C   UNL     1      49.996  19.417  29.297  1.00  0.00     0.012 C 
ENDBRANCH  14  31
BRANCH  13  34
HETATM   34  C   UNL     1      58.292  24.876  29.181  1.00  0.00     0.010 C 
HETATM   35  C   UNL     1      58.882  24.885  27.771  1.00  0.00     0.012 C 
HETATM   36  C   UNL     1      59.390  25.091  30.220  1.00  0.00     0.012 C 
ENDBRANCH  13  34
BRANCH  18  37
HETATM   37  C   UNL     1      56.490  17.229  28.208  1.00  0.00     0.016 C 
HETATM   38  C   UNL     1      57.831  17.938  28.396  1.00  0.00     0.012 C 
HETATM   39  C   UNL     1      56.705  15.739  27.951  1.00  0.00     0.012 C 
ENDBRANCH  18  37
BRANCH  17  40
HETATM   40  C   UNL     1      59.680  22.442  33.060  1.00  0.00     0.016 C 
HETATM   41  C   UNL     1      60.385  21.652  34.160  1.00  0.00     0.012 C 
HETATM   42  C   UNL     1      59.345  23.852  33.542  1.00  0.00     0.012 C 
ENDBRANCH  17  40
BRANCH  15  43
HETATM   43  C   UNL     1      57.709  17.199  33.708  1.00  0.00     0.010 C 
HETATM   44  C   UNL     1      56.378  16.454  33.760  1.00  0.00     0.012 C 
HETATM   45  C   UNL     1      58.871  16.247  33.970  1.00  0.00     0.012 C 
ENDBRANCH  15  43
TORSDOF 6
ENDMDL
MODEL 18
REMARK VINA RESULT:    -4.031      2.251      3.808
REMARK INTER + INTRA:          -4.493
REMARK INTER:                  -5.961
REMARK INTRA:                   1.469
REMARK UNBOUND:                 0.953
REMARK  6 active torsions:
REMARK  status: ('A' for Active; 'I' for Inactive)
REMARK    1  A    between atoms: C_13  and  C_16 
REMARK    2  A    between atoms: C_14  and  C_17 
REMARK    3  A    between atoms: C_15  and  C_18 
REMARK    4  A    between atoms: C_19  and  C_22 
REMARK    5  A    between atoms: C_20  and  C_23 
REMARK    6  A    between atoms: C_21  and  C_24 
ROOT
HETATM    1  O   UNL     1      52.869  19.801  33.555  1.00  0.00    -0.304 OA
HETATM    2  O   UNL     1      55.802  22.782  30.506  1.00  0.00    -0.304 OA
HETATM    3  O   UNL     1      55.530  18.205  29.351  1.00  0.00    -0.304 OA
HETATM    4  O   UNL     1      52.763  20.934  31.226  1.00  0.00    -0.270 OA
HETATM    5  O   UNL     1      52.582  18.069  30.567  1.00  0.00    -0.270 OA
HETATM    6  O   UNL     1      57.163  21.632  27.798  1.00  0.00    -0.270 OA
HETATM    7  O   UNL     1      55.137  19.398  33.454  1.00  0.00    -0.263 OA
HETATM    8  O   UNL     1      54.885  23.401  28.487  1.00  0.00    -0.263 OA
HETATM    9  O   UNL     1      56.842  16.832  28.060  1.00  0.00    -0.263 OA
HETATM   10  N   UNL     1      53.560  23.009  31.863  1.00  0.00    -0.340 N 
HETATM   11  N   UNL     1      54.269  17.187  31.893  1.00  0.00    -0.340 N 
HETATM   12  N   UNL     1      57.376  20.140  29.570  1.00  0.00    -0.340 N 
HETATM   13  C   UNL     1      53.505  23.482  30.463  1.00  0.00     0.190 C 
HETATM   14  C   UNL     1      53.550  17.584  33.121  1.00  0.00     0.190 C 
HETATM   15  C   UNL     1      57.699  19.004  28.681  1.00  0.00     0.190 C 
HETATM   16  C   UNL     1      53.076  21.230  33.579  1.00  0.00     0.227 C 
HETATM   17  C   UNL     1      57.134  22.597  29.997  1.00  0.00     0.227 C 
HETATM   18  C   UNL     1      54.482  17.218  29.392  1.00  0.00     0.227 C 
HETATM   19  C   UNL     1      53.122  21.704  32.124  1.00  0.00     0.250 C 
HETATM   20  C   UNL     1      53.688  17.529  30.659  1.00  0.00     0.250 C 
HETATM   21  C   UNL     1      57.215  21.421  29.014  1.00  0.00     0.250 C 
HETATM   22  C   UNL     1      53.976  19.014  33.406  1.00  0.00     0.283 C 
HETATM   23  C   UNL     1      54.796  23.205  29.695  1.00  0.00     0.283 C 
HETATM   24  C   UNL     1      56.662  17.883  28.666  1.00  0.00     0.283 C 
HETATM   25  C   UNL     1      54.102  23.923  32.873  1.00  0.00     0.153 C 
HETATM   26  C   UNL     1      55.555  16.498  32.045  1.00  0.00     0.153 C 
HETATM   27  C   UNL     1      57.417  19.901  31.014  1.00  0.00     0.153 C 
ENDROOT
BRANCH  16  28
HETATM   28  C   UNL     1      51.884  21.835  34.305  1.00  0.00     0.016 C 
HETATM   29  C   UNL     1      50.742  20.825  34.403  1.00  0.00     0.012 C 
HETATM   30  C   UNL     1      52.288  22.321  35.697  1.00  0.00     0.012 C 
ENDBRANCH  16  28
BRANCH  14  31
HETATM   31  C   UNL     1      53.787  16.710  34.346  1.00  0.00     0.010 C 
HETATM   32  C   UNL     1      53.360  17.440  35.617  1.00  0.00     0.012 C 
HETATM   33  C   UNL     1      53.041  15.384  34.213  1.00  0.00     0.012 C 
ENDBRANCH  14  31
BRANCH  13  34
HETATM   34  C   UNL     1      53.130  24.957  30.325  1.00  0.00     0.010 C 
HETATM   35  C   UNL     1      52.055  25.142  29.254  1.00  0.00     0.012 C 
HETATM   36  C   UNL     1      54.360  25.800  29.998  1.00  0.00     0.012 C 
ENDBRANCH  13  34
BRANCH  18  37
HETATM   37  C   UNL     1      53.624  17.364  28.138  1.00  0.00     0.016 C 
HETATM   38  C   UNL     1      52.559  16.268  28.084  1.00  0.00     0.012 C 
HETATM   39  C   UNL     1      52.974  18.745  28.086  1.00  0.00     0.012 C 
ENDBRANCH  18  37
BRANCH  17  40
HETATM   40  C   UNL     1      57.706  23.891  29.418  1.00  0.00     0.016 C 
HETATM   41  C   UNL     1      59.076  23.641  28.792  1.00  0.00     0.012 C 
HETATM   42  C   UNL     1      57.797  24.968  30.498  1.00  0.00     0.012 C 
ENDBRANCH  17  40
BRANCH  15  43
HETATM   43  C   UNL     1      59.090  18.443  28.978  1.00  0.00     0.010 C 
HETATM   44  C   UNL     1      60.163  19.483  28.663  1.00  0.00     0.012 C 
HETATM   45  C   UNL     1      59.185  17.995  30.433  1.00  0.00     0.012 C 
ENDBRANCH  15  43
TORSDOF 6
ENDMDL
MODEL 19
REMARK VINA RESULT:    -3.967      2.217      2.871
REMARK INTER + INTRA:          -4.406
REMARK INTER:                  -5.246
REMARK INTRA:                   0.841
REMARK UNBOUND:                 0.953
REMARK  6 active torsions:
REMARK  status: ('A' for Active; 'I' for Inactive)
REMARK    1  A    between atoms: C_13  and  C_16 
REMARK    2  A    between atoms: C_14  and  C_17 
REMARK    3  A    between atoms: C_15  and  C_18 
REMARK    4  A    between atoms: C_19  and  C_22 
REMARK    5  A    between atoms: C_20  and  C_23 
REMARK    6  A    between atoms: C_21  and  C_24 
ROOT
HETATM    1  O   UNL     1      52.504  19.603  35.124  1.00  0.00    -0.304 OA
HETATM    2  O   UNL     1      57.086  20.036  32.757  1.00  0.00    -0.304 OA
HETATM    3  O   UNL     1      53.506  18.396  30.140  1.00  0.00    -0.304 OA
HETATM    4  O   UNL     1      53.706  21.166  33.442  1.00  0.00    -0.270 OA
HETATM    5  O   UNL     1      51.449  20.123  31.866  1.00  0.00    -0.270 OA
HETATM    6  O   UNL     1      57.425  19.470  29.583  1.00  0.00    -0.270 OA
HETATM    7  O   UNL     1      53.554  17.692  34.373  1.00  0.00    -0.263 OA
HETATM    8  O   UNL     1      57.350  21.845  31.356  1.00  0.00    -0.263 OA
HETATM    9  O   UNL     1      53.413  17.200  28.182  1.00  0.00    -0.263 OA
HETATM   10  N   UNL     1      55.713  21.347  34.578  1.00  0.00    -0.340 N 
HETATM   11  N   UNL     1      51.547  17.859  32.367  1.00  0.00    -0.340 N 
HETATM   12  N   UNL     1      56.093  17.861  30.608  1.00  0.00    -0.340 N 
HETATM   13  C   UNL     1      56.276  22.175  33.490  1.00  0.00     0.190 C 
HETATM   14  C   UNL     1      51.234  18.133  33.785  1.00  0.00     0.190 C 
HETATM   15  C   UNL     1      55.534  17.390  29.324  1.00  0.00     0.190 C 
HETATM   16  C   UNL     1      53.749  20.152  35.609  1.00  0.00     0.227 C 
HETATM   17  C   UNL     1      57.815  19.117  31.926  1.00  0.00     0.227 C 
HETATM   18  C   UNL     1      52.098  18.690  30.064  1.00  0.00     0.227 C 
HETATM   19  C   UNL     1      54.382  20.925  34.449  1.00  0.00     0.250 C 
HETATM   20  C   UNL     1      51.667  18.962  31.503  1.00  0.00     0.250 C 
HETATM   21  C   UNL     1      57.095  18.848  30.597  1.00  0.00     0.250 C 
HETATM   22  C   UNL     1      52.568  18.412  34.456  1.00  0.00     0.283 C 
HETATM   23  C   UNL     1      56.950  21.343  32.401  1.00  0.00     0.283 C 
HETATM   24  C   UNL     1      54.036  17.630  29.146  1.00  0.00     0.283 C 
HETATM   25  C   UNL     1      56.593  20.993  35.695  1.00  0.00     0.153 C 
HETATM   26  C   UNL     1      51.745  16.463  31.967  1.00  0.00     0.153 C 
HETATM   27  C   UNL     1      55.699  17.144  31.822  1.00  0.00     0.153 C 
ENDROOT
BRANCH  16  28
HETATM   28  C   UNL     1      53.400  21.091  36.754  1.00  0.00     0.016 C 
HETATM   29  C   UNL     1      52.625  22.304  36.240  1.00  0.00     0.012 C 
HETATM   30  C   UNL     1      52.595  20.359  37.827  1.00  0.00     0.012 C 
ENDBRANCH  16  28
BRANCH  14  31
HETATM   31  C   UNL     1      50.491  17.030  34.530  1.00  0.00     0.010 C 
HETATM   32  C   UNL     1      50.695  17.169  36.037  1.00  0.00     0.012 C 
HETATM   33  C   UNL     1      49.004  17.057  34.185  1.00  0.00     0.012 C 
ENDBRANCH  14  31
BRANCH  13  34
HETATM   34  C   UNL     1      57.236  23.261  33.977  1.00  0.00     0.010 C 
HETATM   35  C   UNL     1      56.849  24.621  33.398  1.00  0.00     0.012 C 
HETATM   36  C   UNL     1      58.677  22.914  33.609  1.00  0.00     0.012 C 
ENDBRANCH  13  34
BRANCH  18  37
HETATM   37  C   UNL     1      51.903  19.916  29.175  1.00  0.00     0.016 C 
HETATM   38  C   UNL     1      53.222  20.667  28.996  1.00  0.00     0.012 C 
HETATM   39  C   UNL     1      51.327  19.514  27.819  1.00  0.00     0.012 C 
ENDBRANCH  18  37
BRANCH  17  40
HETATM   40  C   UNL     1      59.267  19.554  31.733  1.00  0.00     0.016 C 
HETATM   41  C   UNL     1      60.000  18.588  30.805  1.00  0.00     0.012 C 
HETATM   42  C   UNL     1      59.982  19.654  33.079  1.00  0.00     0.012 C 
ENDBRANCH  17  40
BRANCH  15  43
HETATM   43  C   UNL     1      55.873  15.919  29.076  1.00  0.00     0.010 C 
HETATM   44  C   UNL     1      54.625  15.052  29.221  1.00  0.00     0.012 C 
HETATM   45  C   UNL     1      56.496  15.741  27.695  1.00  0.00     0.012 C 
ENDBRANCH  15  43
TORSDOF 6
ENDMDL
MODEL 20
REMARK VINA RESULT:    -3.918      2.908      7.040
REMARK INTER + INTRA:          -4.339
REMARK INTER:                  -5.364
REMARK INTRA:                   1.025
REMARK UNBOUND:                 0.953
REMARK  6 active torsions:
REMARK  status: ('A' for Active; 'I' for Inactive)
REMARK    1  A    between atoms: C_13  and  C_16 
REMARK    2  A    between atoms: C_14  and  C_17 
REMARK    3  A    between atoms: C_15  and  C_18 
REMARK    4  A    between atoms: C_19  and  C_22 
REMARK    5  A    between atoms: C_20  and  C_23 
REMARK    6  A    between atoms: C_21  and  C_24 
ROOT
HETATM    1  O   UNL     1      55.653  17.201  32.960  1.00  0.00    -0.304 OA
HETATM    2  O   UNL     1      54.363  21.693  30.738  1.00  0.00    -0.304 OA
HETATM    3  O   UNL     1      58.469  19.774  29.390  1.00  0.00    -0.304 OA
HETATM    4  O   UNL     1      54.724  18.082  30.706  1.00  0.00    -0.270 OA
HETATM    5  O   UNL     1      57.285  16.858  29.924  1.00  0.00    -0.270 OA
HETATM    6  O   UNL     1      56.140  22.988  28.356  1.00  0.00    -0.270 OA
HETATM    7  O   UNL     1      56.972  19.052  33.346  1.00  0.00    -0.263 OA
HETATM    8  O   UNL     1      53.543  21.577  28.590  1.00  0.00    -0.263 OA
HETATM    9  O   UNL     1      60.341  20.629  28.371  1.00  0.00    -0.263 OA
HETATM   10  N   UNL     1      53.137  19.522  31.576  1.00  0.00    -0.340 N 
HETATM   11  N   UNL     1      58.709  17.690  31.555  1.00  0.00    -0.340 N 
HETATM   12  N   UNL     1      57.474  22.169  30.078  1.00  0.00    -0.340 N 
HETATM   13  C   UNL     1      52.772  19.972  30.216  1.00  0.00     0.190 C 
HETATM   14  C   UNL     1      57.973  16.961  32.608  1.00  0.00     0.190 C 
HETATM   15  C   UNL     1      58.692  22.166  29.241  1.00  0.00     0.190 C 
HETATM   16  C   UNL     1      54.443  17.980  33.080  1.00  0.00     0.227 C 
HETATM   17  C   UNL     1      55.119  22.898  30.528  1.00  0.00     0.227 C 
HETATM   18  C   UNL     1      58.923  18.426  29.165  1.00  0.00     0.227 C 
HETATM   19  C   UNL     1      54.121  18.531  31.688  1.00  0.00     0.250 C 
HETATM   20  C   UNL     1      58.232  17.586  30.236  1.00  0.00     0.250 C 
HETATM   21  C   UNL     1      56.279  22.685  29.545  1.00  0.00     0.250 C 
HETATM   22  C   UNL     1      56.838  17.877  33.030  1.00  0.00     0.283 C 
HETATM   23  C   UNL     1      53.609  21.158  29.741  1.00  0.00     0.283 C 
HETATM   24  C   UNL     1      59.276  20.783  28.959  1.00  0.00     0.283 C 
HETATM   25  C   UNL     1      52.474  20.169  32.712  1.00  0.00     0.153 C 
HETATM   26  C   UNL     1      59.862  18.501  31.962  1.00  0.00     0.153 C 
HETATM   27  C   UNL     1      57.619  21.796  31.486  1.00  0.00     0.153 C 
ENDROOT
BRANCH  16  28
HETATM   28  C   UNL     1      53.351  17.029  33.547  1.00  0.00     0.016 C 
HETATM   29  C   UNL     1      53.768  15.576  33.321  1.00  0.00     0.012 C 
HETATM   30  C   UNL     1      53.021  17.266  35.021  1.00  0.00     0.012 C 
ENDBRANCH  16  28
BRANCH  14  31
HETATM   31  C   UNL     1      58.790  16.540  33.824  1.00  0.00     0.010 C 
HETATM   32  C   UNL     1      57.872  16.215  35.001  1.00  0.00     0.012 C 
HETATM   33  C   UNL     1      59.675  15.342  33.489  1.00  0.00     0.012 C 
ENDBRANCH  14  31
BRANCH  13  34
HETATM   34  C   UNL     1      51.286  20.292  30.051  1.00  0.00     0.010 C 
HETATM   35  C   UNL     1      50.427  19.119  30.523  1.00  0.00     0.012 C 
HETATM   36  C   UNL     1      50.965  20.639  28.599  1.00  0.00     0.012 C 
ENDBRANCH  13  34
BRANCH  18  37
HETATM   37  C   UNL     1      58.509  18.000  27.759  1.00  0.00     0.016 C 
HETATM   38  C   UNL     1      57.542  19.015  27.151  1.00  0.00     0.012 C 
HETATM   39  C   UNL     1      59.734  17.825  26.864  1.00  0.00     0.012 C 
ENDBRANCH  18  37
BRANCH  17  40
HETATM   40  C   UNL     1      54.220  24.071  30.135  1.00  0.00     0.016 C 
HETATM   41  C   UNL     1      55.010  25.378  30.137  1.00  0.00     0.012 C 
HETATM   42  C   UNL     1      53.020  24.167  31.075  1.00  0.00     0.012 C 
ENDBRANCH  17  40
BRANCH  15  43
HETATM   43  C   UNL     1      59.764  23.092  29.817  1.00  0.00     0.010 C 
HETATM   44  C   UNL     1      60.851  22.281  30.517  1.00  0.00     0.012 C 
HETATM   45  C   UNL     1      60.364  23.962  28.716  1.00  0.00     0.012 C 
ENDBRANCH  15  43
TORSDOF 6
ENDMDL
