MODEL 1
REMARK VINA RESULT:    -6.376      0.000      0.000
REMARK INTER + INTRA:          -6.738
REMARK INTER:                  -8.612
REMARK INTRA:                   1.874
REMARK UNBOUND:                 1.874
REMARK  6 active torsions:
REMARK  status: ('A' for Active; 'I' for Inactive)
REMARK    1  A    between atoms: C_13  and  C_16 
REMARK    2  A    between atoms: C_14  and  C_17 
REMARK    3  A    between atoms: C_15  and  C_18 
REMARK    4  A    between atoms: C_19  and  C_22 
REMARK    5  A    between atoms: C_20  and  C_23 
REMARK    6  A    between atoms: C_21  and  C_24 
ROOT
HETATM    1  O   UNL     1      32.203  48.979  44.146  1.00  0.00    -0.304 OA
HETATM    2  O   UNL     1      27.486  48.500  42.071  1.00  0.00    -0.304 OA
HETATM    3  O   UNL     1      28.193  46.348  46.221  1.00  0.00    -0.304 OA
HETATM    4  O   UNL     1      29.814  49.937  44.456  1.00  0.00    -0.270 OA
HETATM    5  O   UNL     1      30.317  48.592  47.027  1.00  0.00    -0.270 OA
HETATM    6  O   UNL     1      25.068  47.032  43.654  1.00  0.00    -0.270 OA
HETATM    7  O   UNL     1      31.475  46.886  43.509  1.00  0.00    -0.263 OA
HETATM    8  O   UNL     1      25.828  49.816  42.976  1.00  0.00    -0.263 OA
HETATM    9  O   UNL     1      27.104  44.647  47.313  1.00  0.00    -0.263 OA
HETATM   10  N   UNL     1      29.359  50.341  42.224  1.00  0.00    -0.340 N 
HETATM   11  N   UNL     1      31.199  46.566  46.320  1.00  0.00    -0.340 N 
HETATM   12  N   UNL     1      27.063  45.849  43.840  1.00  0.00    -0.340 N 
HETATM   13  C   UNL     1      27.994  50.795  42.565  1.00  0.00     0.190 C 
HETATM   14  C   UNL     1      32.374  47.249  45.741  1.00  0.00     0.190 C 
HETATM   15  C   UNL     1      26.580  45.056  44.990  1.00  0.00     0.190 C 
HETATM   16  C   UNL     1      31.647  49.585  42.959  1.00  0.00     0.227 C 
HETATM   17  C   UNL     1      26.649  47.347  41.875  1.00  0.00     0.227 C 
HETATM   18  C   UNL     1      28.940  46.674  47.409  1.00  0.00     0.227 C 
HETATM   19  C   UNL     1      30.199  49.963  43.281  1.00  0.00     0.250 C 
HETATM   20  C   UNL     1      30.205  47.368  46.910  1.00  0.00     0.250 C 
HETATM   21  C   UNL     1      26.182  46.743  43.206  1.00  0.00     0.250 C 
HETATM   22  C   UNL     1      31.969  47.646  44.331  1.00  0.00     0.283 C 
HETATM   23  C   UNL     1      26.978  49.654  42.581  1.00  0.00     0.283 C 
HETATM   24  C   UNL     1      27.321  45.306  46.301  1.00  0.00     0.283 C 
HETATM   25  C   UNL     1      29.727  50.281  40.807  1.00  0.00     0.153 C 
HETATM   26  C   UNL     1      31.131  45.106  46.207  1.00  0.00     0.153 C 
HETATM   27  C   UNL     1      28.389  45.529  43.307  1.00  0.00     0.153 C 
ENDROOT
BRANCH  16  28
HETATM   28  C   UNL     1      32.475  50.829  42.670  1.00  0.00     0.016 C 
HETATM   29  C   UNL     1      33.272  51.245  43.906  1.00  0.00     0.012 C 
HETATM   30  C   UNL     1      33.412  50.591  41.486  1.00  0.00     0.012 C 
ENDBRANCH  16  28
BRANCH  14  31
HETATM   31  C   UNL     1      33.666  46.443  45.710  1.00  0.00     0.010 C 
HETATM   32  C   UNL     1      34.752  47.197  44.945  1.00  0.00     0.012 C 
HETATM   33  C   UNL     1      34.134  46.122  47.127  1.00  0.00     0.012 C 
ENDBRANCH  14  31
BRANCH  13  34
HETATM   34  C   UNL     1      27.482  51.928  41.676  1.00  0.00     0.010 C 
HETATM   35  C   UNL     1      27.049  53.124  42.523  1.00  0.00     0.012 C 
HETATM   36  C   UNL     1      26.326  51.448  40.799  1.00  0.00     0.012 C 
ENDBRANCH  13  34
BRANCH  18  37
HETATM   37  C   UNL     1      28.094  47.602  48.278  1.00  0.00     0.016 C 
HETATM   38  C   UNL     1      28.808  47.905  49.595  1.00  0.00     0.012 C 
HETATM   39  C   UNL     1      27.772  48.896  47.534  1.00  0.00     0.012 C 
ENDBRANCH  18  37
BRANCH  17  40
HETATM   40  C   UNL     1      25.491  47.642  40.921  1.00  0.00     0.016 C 
HETATM   41  C   UNL     1      24.683  46.375  40.649  1.00  0.00     0.012 C 
HETATM   42  C   UNL     1      26.009  48.240  39.615  1.00  0.00     0.012 C 
ENDBRANCH  17  40
BRANCH  15  43
HETATM   43  C   UNL     1      26.556  43.562  44.664  1.00  0.00     0.010 C 
HETATM   44  C   UNL     1      25.287  43.204  43.895  1.00  0.00     0.012 C 
HETATM   45  C   UNL     1      27.798  43.170  43.869  1.00  0.00     0.012 C 
ENDBRANCH  15  43
TORSDOF 6
ENDMDL
MODEL 2
REMARK VINA RESULT:    -6.199      1.976      6.054
REMARK INTER + INTRA:          -6.499
REMARK INTER:                  -7.539
REMARK INTRA:                   1.040
REMARK UNBOUND:                 1.874
REMARK  6 active torsions:
REMARK  status: ('A' for Active; 'I' for Inactive)
REMARK    1  A    between atoms: C_13  and  C_16 
REMARK    2  A    between atoms: C_14  and  C_17 
REMARK    3  A    between atoms: C_15  and  C_18 
REMARK    4  A    between atoms: C_19  and  C_22 
REMARK    5  A    between atoms: C_20  and  C_23 
REMARK    6  A    between atoms: C_21  and  C_24 
ROOT
HETATM    1  O   UNL     1      26.033  46.667  42.032  1.00  0.00    -0.304 OA
HETATM    2  O   UNL     1      26.911  51.515  43.618  1.00  0.00    -0.304 OA
HETATM    3  O   UNL     1      29.338  48.104  45.815  1.00  0.00    -0.304 OA
HETATM    4  O   UNL     1      27.833  48.517  41.792  1.00  0.00    -0.270 OA
HETATM    5  O   UNL     1      29.298  46.352  43.147  1.00  0.00    -0.270 OA
HETATM    6  O   UNL     1      29.196  52.203  45.811  1.00  0.00    -0.270 OA
HETATM    7  O   UNL     1      25.460  47.254  44.187  1.00  0.00    -0.263 OA
HETATM    8  O   UNL     1      28.858  52.499  42.881  1.00  0.00    -0.263 OA
HETATM    9  O   UNL     1      30.435  48.008  47.831  1.00  0.00    -0.263 OA
HETATM   10  N   UNL     1      26.400  50.279  41.353  1.00  0.00    -0.340 N 
HETATM   11  N   UNL     1      27.784  45.733  44.792  1.00  0.00    -0.340 N 
HETATM   12  N   UNL     1      27.960  50.327  46.415  1.00  0.00    -0.340 N 
HETATM   13  C   UNL     1      27.538  51.222  41.318  1.00  0.00     0.190 C 
HETATM   14  C   UNL     1      26.818  45.278  43.770  1.00  0.00     0.190 C 
HETATM   15  C   UNL     1      28.968  49.879  47.398  1.00  0.00     0.190 C 
HETATM   16  C   UNL     1      25.534  47.918  41.509  1.00  0.00     0.227 C 
HETATM   17  C   UNL     1      26.963  52.087  44.936  1.00  0.00     0.227 C 
HETATM   18  C   UNL     1      29.941  46.867  45.392  1.00  0.00     0.227 C 
HETATM   19  C   UNL     1      26.687  48.924  41.569  1.00  0.00     0.250 C 
HETATM   20  C   UNL     1      28.991  46.296  44.342  1.00  0.00     0.250 C 
HETATM   21  C   UNL     1      28.150  51.550  45.749  1.00  0.00     0.250 C 
HETATM   22  C   UNL     1      26.011  46.508  43.389  1.00  0.00     0.283 C 
HETATM   23  C   UNL     1      27.862  51.808  42.690  1.00  0.00     0.283 C 
HETATM   24  C   UNL     1      29.656  48.558  47.060  1.00  0.00     0.283 C 
HETATM   25  C   UNL     1      25.050  50.828  41.197  1.00  0.00     0.153 C 
HETATM   26  C   UNL     1      27.403  45.599  46.202  1.00  0.00     0.153 C 
HETATM   27  C   UNL     1      26.720  49.553  46.316  1.00  0.00     0.153 C 
ENDROOT
BRANCH  16  28
HETATM   28  C   UNL     1      25.121  47.659  40.068  1.00  0.00     0.016 C 
HETATM   29  C   UNL     1      26.246  48.040  39.107  1.00  0.00     0.012 C 
HETATM   30  C   UNL     1      24.725  46.195  39.874  1.00  0.00     0.012 C 
ENDBRANCH  16  28
BRANCH  14  31
HETATM   31  C   UNL     1      25.888  44.146  44.187  1.00  0.00     0.010 C 
HETATM   32  C   UNL     1      24.691  44.059  43.242  1.00  0.00     0.012 C 
HETATM   33  C   UNL     1      26.640  42.818  44.222  1.00  0.00     0.012 C 
ENDBRANCH  14  31
BRANCH  13  34
HETATM   34  C   UNL     1      27.371  52.351  40.302  1.00  0.00     0.010 C 
HETATM   35  C   UNL     1      28.565  52.398  39.348  1.00  0.00     0.012 C 
HETATM   36  C   UNL     1      27.199  53.694  41.008  1.00  0.00     0.012 C 
ENDBRANCH  13  34
BRANCH  18  37
HETATM   37  C   UNL     1      31.317  47.169  44.804  1.00  0.00     0.016 C 
HETATM   38  C   UNL     1      31.463  48.664  44.516  1.00  0.00     0.012 C 
HETATM   39  C   UNL     1      32.423  46.694  45.743  1.00  0.00     0.012 C 
ENDBRANCH  18  37
BRANCH  17  40
HETATM   40  C   UNL     1      26.917  53.614  44.895  1.00  0.00     0.016 C 
HETATM   41  C   UNL     1      27.007  54.193  46.305  1.00  0.00     0.012 C 
HETATM   42  C   UNL     1      25.647  54.096  44.196  1.00  0.00     0.012 C 
ENDBRANCH  17  40
BRANCH  15  43
HETATM   43  C   UNL     1      28.385  49.832  48.810  1.00  0.00     0.010 C 
HETATM   44  C   UNL     1      28.110  48.390  49.227  1.00  0.00     0.012 C 
HETATM   45  C   UNL     1      29.329  50.509  49.800  1.00  0.00     0.012 C 
ENDBRANCH  15  43
TORSDOF 6
ENDMDL
MODEL 3
REMARK VINA RESULT:    -6.158      2.009      6.415
REMARK INTER + INTRA:          -6.443
REMARK INTER:                  -7.376
REMARK INTRA:                   0.933
REMARK UNBOUND:                 1.874
REMARK  6 active torsions:
REMARK  status: ('A' for Active; 'I' for Inactive)
REMARK    1  A    between atoms: C_13  and  C_16 
REMARK    2  A    between atoms: C_14  and  C_17 
REMARK    3  A    between atoms: C_15  and  C_18 
REMARK    4  A    between atoms: C_19  and  C_22 
REMARK    5  A    between atoms: C_20  and  C_23 
REMARK    6  A    between atoms: C_21  and  C_24 
ROOT
HETATM    1  O   UNL     1      28.201  52.050  42.132  1.00  0.00    -0.304 OA
HETATM    2  O   UNL     1      31.605  48.635  44.011  1.00  0.00    -0.304 OA
HETATM    3  O   UNL     1      27.045  47.402  44.219  1.00  0.00    -0.304 OA
HETATM    4  O   UNL     1      29.317  49.811  41.453  1.00  0.00    -0.270 OA
HETATM    5  O   UNL     1      26.461  49.106  41.583  1.00  0.00    -0.270 OA
HETATM    6  O   UNL     1      30.687  45.698  45.030  1.00  0.00    -0.270 OA
HETATM    7  O   UNL     1      28.146  51.546  44.382  1.00  0.00    -0.263 OA
HETATM    8  O   UNL     1      32.088  46.825  42.673  1.00  0.00    -0.263 OA
HETATM    9  O   UNL     1      25.892  45.861  45.472  1.00  0.00    -0.263 OA
HETATM   10  N   UNL     1      31.486  50.365  42.034  1.00  0.00    -0.340 N 
HETATM   11  N   UNL     1      25.837  50.091  43.589  1.00  0.00    -0.340 N 
HETATM   12  N   UNL     1      29.235  47.358  45.769  1.00  0.00    -0.340 N 
HETATM   13  C   UNL     1      31.951  49.012  41.665  1.00  0.00     0.190 C 
HETATM   14  C   UNL     1      26.115  51.436  43.046  1.00  0.00     0.190 C 
HETATM   15  C   UNL     1      28.166  46.392  46.094  1.00  0.00     0.190 C 
HETATM   16  C   UNL     1      29.645  52.083  42.128  1.00  0.00     0.227 C 
HETATM   17  C   UNL     1      31.626  47.898  45.245  1.00  0.00     0.227 C 
HETATM   18  C   UNL     1      25.911  47.593  43.352  1.00  0.00     0.227 C 
HETATM   19  C   UNL     1      30.128  50.658  41.846  1.00  0.00     0.250 C 
HETATM   20  C   UNL     1      26.093  48.987  42.756  1.00  0.00     0.250 C 
HETATM   21  C   UNL     1      30.480  46.878  45.325  1.00  0.00     0.250 C 
HETATM   22  C   UNL     1      27.591  51.688  43.300  1.00  0.00     0.283 C 
HETATM   23  C   UNL     1      31.876  48.023  42.827  1.00  0.00     0.283 C 
HETATM   24  C   UNL     1      26.901  46.521  45.248  1.00  0.00     0.283 C 
HETATM   25  C   UNL     1      32.466  51.294  42.605  1.00  0.00     0.153 C 
HETATM   26  C   UNL     1      25.348  49.997  44.968  1.00  0.00     0.153 C 
HETATM   27  C   UNL     1      28.998  48.765  46.098  1.00  0.00     0.153 C 
ENDROOT
BRANCH  16  28
HETATM   28  C   UNL     1      30.061  53.023  41.006  1.00  0.00     0.016 C 
HETATM   29  C   UNL     1      28.914  53.221  40.015  1.00  0.00     0.012 C 
HETATM   30  C   UNL     1      30.519  54.368  41.568  1.00  0.00     0.012 C 
ENDBRANCH  16  28
BRANCH  14  31
HETATM   31  C   UNL     1      25.281  52.574  43.621  1.00  0.00     0.010 C 
HETATM   32  C   UNL     1      25.960  53.919  43.369  1.00  0.00     0.012 C 
HETATM   33  C   UNL     1      23.875  52.564  43.026  1.00  0.00     0.012 C 
ENDBRANCH  14  31
BRANCH  13  34
HETATM   34  C   UNL     1      33.353  48.987  41.057  1.00  0.00     0.010 C 
HETATM   35  C   UNL     1      33.372  48.150  39.779  1.00  0.00     0.012 C 
HETATM   36  C   UNL     1      34.369  48.449  42.063  1.00  0.00     0.012 C 
ENDBRANCH  13  34
BRANCH  18  37
HETATM   37  C   UNL     1      25.932  46.512  42.275  1.00  0.00     0.016 C 
HETATM   38  C   UNL     1      27.143  45.595  42.455  1.00  0.00     0.012 C 
HETATM   39  C   UNL     1      24.639  45.701  42.298  1.00  0.00     0.012 C 
ENDBRANCH  18  37
BRANCH  17  40
HETATM   40  C   UNL     1      32.994  47.269  45.509  1.00  0.00     0.016 C 
HETATM   41  C   UNL     1      32.957  46.411  46.772  1.00  0.00     0.012 C 
HETATM   42  C   UNL     1      34.068  48.349  45.624  1.00  0.00     0.012 C 
ENDBRANCH  17  40
BRANCH  15  43
HETATM   43  C   UNL     1      27.819  46.426  47.583  1.00  0.00     0.010 C 
HETATM   44  C   UNL     1      26.879  45.277  47.939  1.00  0.00     0.012 C 
HETATM   45  C   UNL     1      29.088  46.364  48.428  1.00  0.00     0.012 C 
ENDBRANCH  15  43
TORSDOF 6
ENDMDL
MODEL 4
REMARK VINA RESULT:    -6.061      1.991      6.530
REMARK INTER + INTRA:          -6.313
REMARK INTER:                  -7.750
REMARK INTRA:                   1.437
REMARK UNBOUND:                 1.874
REMARK  6 active torsions:
REMARK  status: ('A' for Active; 'I' for Inactive)
REMARK    1  A    between atoms: C_13  and  C_16 
REMARK    2  A    between atoms: C_14  and  C_17 
REMARK    3  A    between atoms: C_15  and  C_18 
REMARK    4  A    between atoms: C_19  and  C_22 
REMARK    5  A    between atoms: C_20  and  C_23 
REMARK    6  A    between atoms: C_21  and  C_24 
ROOT
HETATM    1  O   UNL     1      28.639  50.918  43.133  1.00  0.00    -0.304 OA
HETATM    2  O   UNL     1      31.954  48.112  45.949  1.00  0.00    -0.304 OA
HETATM    3  O   UNL     1      27.839  46.053  44.863  1.00  0.00    -0.304 OA
HETATM    4  O   UNL     1      30.302  48.953  42.829  1.00  0.00    -0.270 OA
HETATM    5  O   UNL     1      27.712  47.728  42.148  1.00  0.00    -0.270 OA
HETATM    6  O   UNL     1      31.356  45.016  46.700  1.00  0.00    -0.270 OA
HETATM    7  O   UNL     1      28.047  50.318  45.280  1.00  0.00    -0.263 OA
HETATM    8  O   UNL     1      33.127  46.480  44.827  1.00  0.00    -0.263 OA
HETATM    9  O   UNL     1      26.690  44.275  45.754  1.00  0.00    -0.263 OA
HETATM   10  N   UNL     1      32.074  49.872  43.998  1.00  0.00    -0.340 N 
HETATM   11  N   UNL     1      26.373  48.497  43.880  1.00  0.00    -0.340 N 
HETATM   12  N   UNL     1      29.469  46.349  46.974  1.00  0.00    -0.340 N 
HETATM   13  C   UNL     1      32.871  48.644  43.794  1.00  0.00     0.190 C 
HETATM   14  C   UNL     1      26.534  49.892  43.422  1.00  0.00     0.190 C 
HETATM   15  C   UNL     1      28.553  45.189  46.992  1.00  0.00     0.190 C 
HETATM   16  C   UNL     1      29.992  51.216  43.540  1.00  0.00     0.227 C 
HETATM   17  C   UNL     1      31.763  47.340  47.147  1.00  0.00     0.227 C 
HETATM   18  C   UNL     1      26.981  46.068  43.707  1.00  0.00     0.227 C 
HETATM   19  C   UNL     1      30.794  49.917  43.427  1.00  0.00     0.250 C 
HETATM   20  C   UNL     1      27.057  47.495  43.169  1.00  0.00     0.250 C 
HETATM   21  C   UNL     1      30.855  46.125  46.909  1.00  0.00     0.250 C 
HETATM   22  C   UNL     1      27.804  50.400  44.083  1.00  0.00     0.283 C 
HETATM   23  C   UNL     1      32.659  47.611  44.899  1.00  0.00     0.283 C 
HETATM   24  C   UNL     1      27.578  45.118  45.819  1.00  0.00     0.283 C 
HETATM   25  C   UNL     1      32.659  50.941  44.812  1.00  0.00     0.153 C 
HETATM   26  C   UNL     1      25.542  48.257  45.064  1.00  0.00     0.153 C 
HETATM   27  C   UNL     1      28.888  47.673  47.204  1.00  0.00     0.153 C 
ENDROOT
BRANCH  16  28
HETATM   28  C   UNL     1      30.523  52.262  42.572  1.00  0.00     0.016 C 
HETATM   29  C   UNL     1      29.687  52.287  41.293  1.00  0.00     0.012 C 
HETATM   30  C   UNL     1      30.541  53.644  43.224  1.00  0.00     0.012 C 
ENDBRANCH  16  28
BRANCH  14  31
HETATM   31  C   UNL     1      25.373  50.832  43.721  1.00  0.00     0.010 C 
HETATM   32  C   UNL     1      25.791  51.899  44.730  1.00  0.00     0.012 C 
HETATM   33  C   UNL     1      24.862  51.480  42.436  1.00  0.00     0.012 C 
ENDBRANCH  14  31
BRANCH  13  34
HETATM   34  C   UNL     1      34.366  48.903  43.612  1.00  0.00     0.010 C 
HETATM   35  C   UNL     1      34.834  48.419  42.240  1.00  0.00     0.012 C 
HETATM   36  C   UNL     1      35.171  48.228  44.720  1.00  0.00     0.012 C 
ENDBRANCH  13  34
BRANCH  18  37
HETATM   37  C   UNL     1      27.508  45.055  42.694  1.00  0.00     0.016 C 
HETATM   38  C   UNL     1      28.878  44.528  43.123  1.00  0.00     0.012 C 
HETATM   39  C   UNL     1      26.522  43.902  42.519  1.00  0.00     0.012 C 
ENDBRANCH  18  37
BRANCH  17  40
HETATM   40  C   UNL     1      33.095  46.964  47.798  1.00  0.00     0.016 C 
HETATM   41  C   UNL     1      32.861  46.154  49.071  1.00  0.00     0.012 C 
HETATM   42  C   UNL     1      33.917  48.215  48.101  1.00  0.00     0.012 C 
ENDBRANCH  17  40
BRANCH  15  43
HETATM   43  C   UNL     1      27.801  45.096  48.320  1.00  0.00     0.010 C 
HETATM   44  C   UNL     1      28.746  44.670  49.441  1.00  0.00     0.012 C 
HETATM   45  C   UNL     1      27.138  46.430  48.653  1.00  0.00     0.012 C 
ENDBRANCH  15  43
TORSDOF 6
ENDMDL
MODEL 5
REMARK VINA RESULT:    -6.057     10.133     15.029
REMARK INTER + INTRA:          -6.306
REMARK INTER:                  -7.234
REMARK INTRA:                   0.928
REMARK UNBOUND:                 1.874
REMARK  6 active torsions:
REMARK  status: ('A' for Active; 'I' for Inactive)
REMARK    1  A    between atoms: C_13  and  C_16 
REMARK    2  A    between atoms: C_14  and  C_17 
REMARK    3  A    between atoms: C_15  and  C_18 
REMARK    4  A    between atoms: C_19  and  C_22 
REMARK    5  A    between atoms: C_20  and  C_23 
REMARK    6  A    between atoms: C_21  and  C_24 
ROOT
HETATM    1  O   UNL     1      41.421  42.318  47.764  1.00  0.00    -0.304 OA
HETATM    2  O   UNL     1      41.752  46.566  44.827  1.00  0.00    -0.304 OA
HETATM    3  O   UNL     1      42.960  42.483  42.773  1.00  0.00    -0.304 OA
HETATM    4  O   UNL     1      40.117  43.495  45.858  1.00  0.00    -0.270 OA
HETATM    5  O   UNL     1      40.884  40.928  44.636  1.00  0.00    -0.270 OA
HETATM    6  O   UNL     1      42.488  46.406  41.675  1.00  0.00    -0.270 OA
HETATM    7  O   UNL     1      43.493  42.985  47.001  1.00  0.00    -0.263 OA
HETATM    8  O   UNL     1      40.059  46.894  43.302  1.00  0.00    -0.263 OA
HETATM    9  O   UNL     1      44.207  41.969  40.915  1.00  0.00    -0.263 OA
HETATM   10  N   UNL     1      40.184  45.638  46.724  1.00  0.00    -0.340 N 
HETATM   11  N   UNL     1      43.116  40.775  45.253  1.00  0.00    -0.340 N 
HETATM   12  N   UNL     1      43.845  45.009  42.948  1.00  0.00    -0.340 N 
HETATM   13  C   UNL     1      39.491  46.164  45.530  1.00  0.00     0.190 C 
HETATM   14  C   UNL     1      42.744  40.692  46.680  1.00  0.00     0.190 C 
HETATM   15  C   UNL     1      44.281  44.227  41.773  1.00  0.00     0.190 C 
HETATM   16  C   UNL     1      41.039  43.679  48.058  1.00  0.00     0.227 C 
HETATM   17  C   UNL     1      42.800  47.046  43.968  1.00  0.00     0.227 C 
HETATM   18  C   UNL     1      42.467  41.132  42.855  1.00  0.00     0.227 C 
HETATM   19  C   UNL     1      40.413  44.257  46.786  1.00  0.00     0.250 C 
HETATM   20  C   UNL     1      42.078  40.934  44.318  1.00  0.00     0.250 C 
HETATM   21  C   UNL     1      43.015  46.128  42.756  1.00  0.00     0.250 C 
HETATM   22  C   UNL     1      42.634  42.128  47.164  1.00  0.00     0.283 C 
HETATM   23  C   UNL     1      40.455  46.568  44.416  1.00  0.00     0.283 C 
HETATM   24  C   UNL     1      43.833  42.767  41.768  1.00  0.00     0.283 C 
HETATM   25  C   UNL     1      40.617  46.599  47.743  1.00  0.00     0.153 C 
HETATM   26  C   UNL     1      44.541  40.724  44.913  1.00  0.00     0.153 C 
HETATM   27  C   UNL     1      44.448  44.681  44.241  1.00  0.00     0.153 C 
ENDROOT
BRANCH  16  28
HETATM   28  C   UNL     1      40.015  43.616  49.181  1.00  0.00     0.016 C 
HETATM   29  C   UNL     1      39.720  42.166  49.562  1.00  0.00     0.012 C 
HETATM   30  C   UNL     1      40.499  44.400  50.400  1.00  0.00     0.012 C 
ENDBRANCH  16  28
BRANCH  14  31
HETATM   31  C   UNL     1      43.696  39.907  47.574  1.00  0.00     0.010 C 
HETATM   32  C   UNL     1      43.345  40.115  49.046  1.00  0.00     0.012 C 
HETATM   33  C   UNL     1      43.663  38.422  47.220  1.00  0.00     0.012 C 
ENDBRANCH  14  31
BRANCH  13  34
HETATM   34  C   UNL     1      38.538  47.320  45.829  1.00  0.00     0.010 C 
HETATM   35  C   UNL     1      37.160  47.055  45.223  1.00  0.00     0.012 C 
HETATM   36  C   UNL     1      39.106  48.639  45.309  1.00  0.00     0.012 C 
ENDBRANCH  13  34
BRANCH  18  37
HETATM   37  C   UNL     1      41.263  40.994  41.927  1.00  0.00     0.016 C 
HETATM   38  C   UNL     1      40.953  42.326  41.244  1.00  0.00     0.012 C 
HETATM   39  C   UNL     1      41.504  39.903  40.886  1.00  0.00     0.012 C 
ENDBRANCH  18  37
BRANCH  17  40
HETATM   40  C   UNL     1      42.586  48.507  43.572  1.00  0.00     0.016 C 
HETATM   41  C   UNL     1      43.683  48.970  42.615  1.00  0.00     0.012 C 
HETATM   42  C   UNL     1      42.543  49.399  44.811  1.00  0.00     0.012 C 
ENDBRANCH  17  40
BRANCH  15  43
HETATM   43  C   UNL     1      45.794  44.323  41.571  1.00  0.00     0.010 C 
HETATM   44  C   UNL     1      46.480  43.053  42.066  1.00  0.00     0.012 C 
HETATM   45  C   UNL     1      46.121  44.576  40.103  1.00  0.00     0.012 C 
ENDBRANCH  15  43
TORSDOF 6
ENDMDL
MODEL 6
REMARK VINA RESULT:    -6.036      2.253      6.637
REMARK INTER + INTRA:          -6.279
REMARK INTER:                  -7.120
REMARK INTRA:                   0.841
REMARK UNBOUND:                 1.874
REMARK  6 active torsions:
REMARK  status: ('A' for Active; 'I' for Inactive)
REMARK    1  A    between atoms: C_13  and  C_16 
REMARK    2  A    between atoms: C_14  and  C_17 
REMARK    3  A    between atoms: C_15  and  C_18 
REMARK    4  A    between atoms: C_19  and  C_22 
REMARK    5  A    between atoms: C_20  and  C_23 
REMARK    6  A    between atoms: C_21  and  C_24 
ROOT
HETATM    1  O   UNL     1      32.369  46.256  47.818  1.00  0.00    -0.304 OA
HETATM    2  O   UNL     1      28.337  47.471  44.809  1.00  0.00    -0.304 OA
HETATM    3  O   UNL     1      32.500  49.376  43.629  1.00  0.00    -0.304 OA
HETATM    4  O   UNL     1      31.397  45.645  45.493  1.00  0.00    -0.270 OA
HETATM    5  O   UNL     1      34.009  46.827  44.820  1.00  0.00    -0.270 OA
HETATM    6  O   UNL     1      28.695  49.226  42.107  1.00  0.00    -0.270 OA
HETATM    7  O   UNL     1      31.664  48.450  47.734  1.00  0.00    -0.263 OA
HETATM    8  O   UNL     1      28.202  46.382  42.785  1.00  0.00    -0.263 OA
HETATM    9  O   UNL     1      33.091  51.185  42.342  1.00  0.00    -0.263 OA
HETATM   10  N   UNL     1      29.195  45.376  46.147  1.00  0.00    -0.340 N 
HETATM   11  N   UNL     1      34.011  48.724  46.155  1.00  0.00    -0.340 N 
HETATM   12  N   UNL     1      29.929  50.103  43.873  1.00  0.00    -0.340 N 
HETATM   13  C   UNL     1      28.791  45.114  44.750  1.00  0.00     0.190 C 
HETATM   14  C   UNL     1      34.006  47.896  47.379  1.00  0.00     0.190 C 
HETATM   15  C   UNL     1      30.775  50.923  42.981  1.00  0.00     0.190 C 
HETATM   16  C   UNL     1      31.009  45.771  47.851  1.00  0.00     0.227 C 
HETATM   17  C   UNL     1      27.874  48.738  44.310  1.00  0.00     0.227 C 
HETATM   18  C   UNL     1      33.863  48.911  43.656  1.00  0.00     0.227 C 
HETATM   19  C   UNL     1      30.556  45.598  46.398  1.00  0.00     0.250 C 
HETATM   20  C   UNL     1      33.970  48.057  44.918  1.00  0.00     0.250 C 
HETATM   21  C   UNL     1      28.868  49.365  43.322  1.00  0.00     0.250 C 
HETATM   22  C   UNL     1      32.545  47.603  47.674  1.00  0.00     0.283 C 
HETATM   23  C   UNL     1      28.426  46.388  43.991  1.00  0.00     0.283 C 
HETATM   24  C   UNL     1      32.250  50.531  42.952  1.00  0.00     0.283 C 
HETATM   25  C   UNL     1      28.143  45.423  47.166  1.00  0.00     0.153 C 
HETATM   26  C   UNL     1      34.021  50.182  46.315  1.00  0.00     0.153 C 
HETATM   27  C   UNL     1      30.133  50.243  45.316  1.00  0.00     0.153 C 
ENDROOT
BRANCH  16  28
HETATM   28  C   UNL     1      31.036  44.430  48.570  1.00  0.00     0.016 C 
HETATM   29  C   UNL     1      32.454  43.861  48.595  1.00  0.00     0.012 C 
HETATM   30  C   UNL     1      30.490  44.567  49.990  1.00  0.00     0.012 C 
ENDBRANCH  16  28
BRANCH  14  31
HETATM   31  C   UNL     1      34.678  48.508  48.602  1.00  0.00     0.010 C 
HETATM   32  C   UNL     1      34.180  47.837  49.880  1.00  0.00     0.012 C 
HETATM   33  C   UNL     1      36.197  48.394  48.494  1.00  0.00     0.012 C 
ENDBRANCH  14  31
BRANCH  13  34
HETATM   34  C   UNL     1      27.662  44.093  44.615  1.00  0.00     0.010 C 
HETATM   35  C   UNL     1      28.053  42.980  43.644  1.00  0.00     0.012 C 
HETATM   36  C   UNL     1      26.371  44.771  44.160  1.00  0.00     0.012 C 
ENDBRANCH  13  34
BRANCH  18  37
HETATM   37  C   UNL     1      34.125  48.091  42.396  1.00  0.00     0.016 C 
HETATM   38  C   UNL     1      32.820  47.829  41.643  1.00  0.00     0.012 C 
HETATM   39  C   UNL     1      35.132  48.797  41.491  1.00  0.00     0.012 C 
ENDBRANCH  18  37
BRANCH  17  40
HETATM   40  C   UNL     1      26.458  48.641  43.743  1.00  0.00     0.016 C 
HETATM   41  C   UNL     1      25.981  50.007  43.252  1.00  0.00     0.012 C 
HETATM   42  C   UNL     1      25.497  48.080  44.789  1.00  0.00     0.012 C 
ENDBRANCH  17  40
BRANCH  15  43
HETATM   43  C   UNL     1      30.623  52.414  43.287  1.00  0.00     0.010 C 
HETATM   44  C   UNL     1      29.150  52.814  43.273  1.00  0.00     0.012 C 
HETATM   45  C   UNL     1      31.260  52.750  44.632  1.00  0.00     0.012 C 
ENDBRANCH  15  43
TORSDOF 6
ENDMDL
MODEL 7
REMARK VINA RESULT:    -6.022      2.159      8.045
REMARK INTER + INTRA:          -6.260
REMARK INTER:                  -7.077
REMARK INTRA:                   0.817
REMARK UNBOUND:                 1.874
REMARK  6 active torsions:
REMARK  status: ('A' for Active; 'I' for Inactive)
REMARK    1  A    between atoms: C_13  and  C_16 
REMARK    2  A    between atoms: C_14  and  C_17 
REMARK    3  A    between atoms: C_15  and  C_18 
REMARK    4  A    between atoms: C_19  and  C_22 
REMARK    5  A    between atoms: C_20  and  C_23 
REMARK    6  A    between atoms: C_21  and  C_24 
ROOT
HETATM    1  O   UNL     1      25.859  47.716  42.163  1.00  0.00    -0.304 OA
HETATM    2  O   UNL     1      29.791  47.844  45.526  1.00  0.00    -0.304 OA
HETATM    3  O   UNL     1      27.913  52.011  44.315  1.00  0.00    -0.304 OA
HETATM    4  O   UNL     1      26.262  48.043  44.703  1.00  0.00    -0.270 OA
HETATM    5  O   UNL     1      25.074  50.613  43.893  1.00  0.00    -0.270 OA
HETATM    6  O   UNL     1      30.741  50.605  46.933  1.00  0.00    -0.270 OA
HETATM    7  O   UNL     1      27.826  48.743  41.536  1.00  0.00    -0.263 OA
HETATM    8  O   UNL     1      29.240  48.178  47.736  1.00  0.00    -0.263 OA
HETATM    9  O   UNL     1      28.682  54.172  44.431  1.00  0.00    -0.263 OA
HETATM   10  N   UNL     1      27.736  46.287  45.004  1.00  0.00    -0.340 N 
HETATM   11  N   UNL     1      26.272  51.084  41.962  1.00  0.00    -0.340 N 
HETATM   12  N   UNL     1      30.328  50.893  44.661  1.00  0.00    -0.340 N 
HETATM   13  C   UNL     1      27.910  46.651  46.426  1.00  0.00     0.190 C 
HETATM   14  C   UNL     1      25.701  49.901  41.287  1.00  0.00     0.190 C 
HETATM   15  C   UNL     1      30.248  52.364  44.780  1.00  0.00     0.190 C 
HETATM   16  C   UNL     1      26.572  46.631  42.796  1.00  0.00     0.227 C 
HETATM   17  C   UNL     1      30.982  48.648  45.562  1.00  0.00     0.227 C 
HETATM   18  C   UNL     1      26.577  52.468  44.034  1.00  0.00     0.227 C 
HETATM   19  C   UNL     1      26.842  47.053  44.243  1.00  0.00     0.250 C 
HETATM   20  C   UNL     1      25.903  51.311  43.300  1.00  0.00     0.250 C 
HETATM   21  C   UNL     1      30.666  50.133  45.794  1.00  0.00     0.250 C 
HETATM   22  C   UNL     1      26.608  48.738  41.652  1.00  0.00     0.283 C 
HETATM   23  C   UNL     1      29.040  47.656  46.645  1.00  0.00     0.283 C 
HETATM   24  C   UNL     1      28.875  52.961  44.478  1.00  0.00     0.283 C 
HETATM   25  C   UNL     1      28.535  45.176  44.479  1.00  0.00     0.153 C 
HETATM   26  C   UNL     1      27.211  51.918  41.205  1.00  0.00     0.153 C 
HETATM   27  C   UNL     1      30.224  50.316  43.320  1.00  0.00     0.153 C 
ENDROOT
BRANCH  16  28
HETATM   28  C   UNL     1      25.656  45.417  42.752  1.00  0.00     0.016 C 
HETATM   29  C   UNL     1      24.328  45.767  42.083  1.00  0.00     0.012 C 
HETATM   30  C   UNL     1      26.331  44.256  42.023  1.00  0.00     0.012 C 
ENDBRANCH  16  28
BRANCH  14  31
HETATM   31  C   UNL     1      25.556  50.001  39.773  1.00  0.00     0.010 C 
HETATM   32  C   UNL     1      25.521  48.609  39.144  1.00  0.00     0.012 C 
HETATM   33  C   UNL     1      24.301  50.787  39.404  1.00  0.00     0.012 C 
ENDBRANCH  14  31
BRANCH  13  34
HETATM   34  C   UNL     1      28.104  45.450  47.351  1.00  0.00     0.010 C 
HETATM   35  C   UNL     1      27.060  45.454  48.466  1.00  0.00     0.012 C 
HETATM   36  C   UNL     1      29.513  45.441  47.938  1.00  0.00     0.012 C 
ENDBRANCH  13  34
BRANCH  18  37
HETATM   37  C   UNL     1      25.879  52.781  45.355  1.00  0.00     0.016 C 
HETATM   38  C   UNL     1      26.699  52.258  46.534  1.00  0.00     0.012 C 
HETATM   39  C   UNL     1      25.637  54.282  45.496  1.00  0.00     0.012 C 
ENDBRANCH  18  37
BRANCH  17  40
HETATM   40  C   UNL     1      32.007  48.101  46.554  1.00  0.00     0.016 C 
HETATM   41  C   UNL     1      33.247  48.991  46.593  1.00  0.00     0.012 C 
HETATM   42  C   UNL     1      32.388  46.665  46.196  1.00  0.00     0.012 C 
ENDBRANCH  17  40
BRANCH  15  43
HETATM   43  C   UNL     1      31.326  53.049  43.940  1.00  0.00     0.010 C 
HETATM   44  C   UNL     1      30.720  53.635  42.667  1.00  0.00     0.012 C 
HETATM   45  C   UNL     1      32.026  54.134  44.752  1.00  0.00     0.012 C 
ENDBRANCH  15  43
TORSDOF 6
ENDMDL
MODEL 8
REMARK VINA RESULT:    -5.913      2.392      7.255
REMARK INTER + INTRA:          -6.113
REMARK INTER:                  -8.024
REMARK INTRA:                   1.912
REMARK UNBOUND:                 1.874
REMARK  6 active torsions:
REMARK  status: ('A' for Active; 'I' for Inactive)
REMARK    1  A    between atoms: C_13  and  C_16 
REMARK    2  A    between atoms: C_14  and  C_17 
REMARK    3  A    between atoms: C_15  and  C_18 
REMARK    4  A    between atoms: C_19  and  C_22 
REMARK    5  A    between atoms: C_20  and  C_23 
REMARK    6  A    between atoms: C_21  and  C_24 
ROOT
HETATM    1  O   UNL     1      31.591  49.123  44.199  1.00  0.00    -0.304 OA
HETATM    2  O   UNL     1      32.494  46.055  48.268  1.00  0.00    -0.304 OA
HETATM    3  O   UNL     1      28.186  45.787  46.339  1.00  0.00    -0.304 OA
HETATM    4  O   UNL     1      32.091  46.631  44.708  1.00  0.00    -0.270 OA
HETATM    5  O   UNL     1      29.414  46.524  43.486  1.00  0.00    -0.270 OA
HETATM    6  O   UNL     1      30.318  43.874  49.275  1.00  0.00    -0.270 OA
HETATM    7  O   UNL     1      30.389  49.463  46.138  1.00  0.00    -0.263 OA
HETATM    8  O   UNL     1      32.895  43.834  47.810  1.00  0.00    -0.263 OA
HETATM    9  O   UNL     1      26.166  45.013  47.111  1.00  0.00    -0.263 OA
HETATM   10  N   UNL     1      33.830  46.968  46.195  1.00  0.00    -0.340 N 
HETATM   11  N   UNL     1      28.331  48.246  44.602  1.00  0.00    -0.340 N 
HETATM   12  N   UNL     1      29.321  45.913  48.767  1.00  0.00    -0.340 N 
HETATM   13  C   UNL     1      33.939  45.513  46.428  1.00  0.00     0.190 C 
HETATM   14  C   UNL     1      29.242  49.243  44.004  1.00  0.00     0.190 C 
HETATM   15  C   UNL     1      27.968  45.325  48.691  1.00  0.00     0.190 C 
HETATM   16  C   UNL     1      32.811  48.901  44.939  1.00  0.00     0.227 C 
HETATM   17  C   UNL     1      31.727  45.809  49.459  1.00  0.00     0.227 C 
HETATM   18  C   UNL     1      27.681  45.853  44.992  1.00  0.00     0.227 C 
HETATM   19  C   UNL     1      32.872  47.407  45.270  1.00  0.00     0.250 C 
HETATM   20  C   UNL     1      28.551  46.893  44.289  1.00  0.00     0.250 C 
HETATM   21  C   UNL     1      30.400  45.099  49.152  1.00  0.00     0.250 C 
HETATM   22  C   UNL     1      30.448  49.307  44.926  1.00  0.00     0.283 C 
HETATM   23  C   UNL     1      33.042  45.027  47.565  1.00  0.00     0.283 C 
HETATM   24  C   UNL     1      27.324  45.365  47.306  1.00  0.00     0.283 C 
HETATM   25  C   UNL     1      34.702  47.854  46.972  1.00  0.00     0.153 C 
HETATM   26  C   UNL     1      27.285  48.731  45.508  1.00  0.00     0.153 C 
HETATM   27  C   UNL     1      29.438  47.364  48.608  1.00  0.00     0.153 C 
ENDROOT
BRANCH  16  28
HETATM   28  C   UNL     1      33.959  49.296  44.023  1.00  0.00     0.016 C 
HETATM   29  C   UNL     1      33.540  49.193  42.557  1.00  0.00     0.012 C 
HETATM   30  C   UNL     1      34.443  50.711  44.342  1.00  0.00     0.012 C 
ENDBRANCH  16  28
BRANCH  14  31
HETATM   31  C   UNL     1      28.664  50.637  43.796  1.00  0.00     0.010 C 
HETATM   32  C   UNL     1      29.782  51.669  43.667  1.00  0.00     0.012 C 
HETATM   33  C   UNL     1      27.762  50.667  42.564  1.00  0.00     0.012 C 
ENDBRANCH  14  31
BRANCH  13  34
HETATM   34  C   UNL     1      35.371  45.032  46.661  1.00  0.00     0.010 C 
HETATM   35  C   UNL     1      35.725  43.905  45.691  1.00  0.00     0.012 C 
HETATM   36  C   UNL     1      35.560  44.573  48.105  1.00  0.00     0.012 C 
ENDBRANCH  13  34
BRANCH  18  37
HETATM   37  C   UNL     1      27.819  44.475  44.350  1.00  0.00     0.016 C 
HETATM   38  C   UNL     1      27.129  44.445  42.986  1.00  0.00     0.012 C 
HETATM   39  C   UNL     1      29.290  44.087  44.214  1.00  0.00     0.012 C 
ENDBRANCH  18  37
BRANCH  17  40
HETATM   40  C   UNL     1      32.550  45.087  50.526  1.00  0.00     0.016 C 
HETATM   41  C   UNL     1      31.694  44.787  51.754  1.00  0.00     0.012 C 
HETATM   42  C   UNL     1      33.773  45.915  50.913  1.00  0.00     0.012 C 
ENDBRANCH  17  40
BRANCH  15  43
HETATM   43  C   UNL     1      27.034  45.942  49.733  1.00  0.00     0.010 C 
HETATM   44  C   UNL     1      26.795  44.965  50.881  1.00  0.00     0.012 C 
HETATM   45  C   UNL     1      27.610  47.255  50.254  1.00  0.00     0.012 C 
ENDBRANCH  15  43
TORSDOF 6
ENDMDL
MODEL 9
REMARK VINA RESULT:    -5.830     11.012     15.577
REMARK INTER + INTRA:          -6.001
REMARK INTER:                  -6.885
REMARK INTRA:                   0.885
REMARK UNBOUND:                 1.874
REMARK  6 active torsions:
REMARK  status: ('A' for Active; 'I' for Inactive)
REMARK    1  A    between atoms: C_13  and  C_16 
REMARK    2  A    between atoms: C_14  and  C_17 
REMARK    3  A    between atoms: C_15  and  C_18 
REMARK    4  A    between atoms: C_19  and  C_22 
REMARK    5  A    between atoms: C_20  and  C_23 
REMARK    6  A    between atoms: C_21  and  C_24 
ROOT
HETATM    1  O   UNL     1      40.613  44.409  44.148  1.00  0.00    -0.304 OA
HETATM    2  O   UNL     1      40.568  42.456  48.940  1.00  0.00    -0.304 OA
HETATM    3  O   UNL     1      44.458  41.659  46.374  1.00  0.00    -0.304 OA
HETATM    4  O   UNL     1      41.622  44.909  46.483  1.00  0.00    -0.270 OA
HETATM    5  O   UNL     1      44.010  44.418  44.831  1.00  0.00    -0.270 OA
HETATM    6  O   UNL     1      43.169  40.997  50.211  1.00  0.00    -0.270 OA
HETATM    7  O   UNL     1      40.667  42.119  44.417  1.00  0.00    -0.263 OA
HETATM    8  O   UNL     1      41.784  43.600  50.526  1.00  0.00    -0.263 OA
HETATM    9  O   UNL     1      46.155  40.120  46.532  1.00  0.00    -0.263 OA
HETATM   10  N   UNL     1      39.689  44.612  47.717  1.00  0.00    -0.340 N 
HETATM   11  N   UNL     1      43.387  42.500  43.684  1.00  0.00    -0.340 N 
HETATM   12  N   UNL     1      42.798  40.334  48.012  1.00  0.00    -0.340 N 
HETATM   13  C   UNL     1      40.430  44.853  48.973  1.00  0.00     0.190 C 
HETATM   14  C   UNL     1      42.302  43.230  42.997  1.00  0.00     0.190 C 
HETATM   15  C   UNL     1      44.163  39.790  47.860  1.00  0.00     0.190 C 
HETATM   16  C   UNL     1      39.634  44.556  45.199  1.00  0.00     0.227 C 
HETATM   17  C   UNL     1      40.902  41.148  49.434  1.00  0.00     0.227 C 
HETATM   18  C   UNL     1      45.205  42.430  45.413  1.00  0.00     0.227 C 
HETATM   19  C   UNL     1      40.403  44.703  46.514  1.00  0.00     0.250 C 
HETATM   20  C   UNL     1      44.157  43.210  44.623  1.00  0.00     0.250 C 
HETATM   21  C   UNL     1      42.395  40.832  49.263  1.00  0.00     0.250 C 
HETATM   22  C   UNL     1      41.100  43.152  43.923  1.00  0.00     0.283 C 
HETATM   23  C   UNL     1      41.022  43.576  49.565  1.00  0.00     0.283 C 
HETATM   24  C   UNL     1      45.038  40.520  46.843  1.00  0.00     0.283 C 
HETATM   25  C   UNL     1      38.270  44.258  47.817  1.00  0.00     0.153 C 
HETATM   26  C   UNL     1      43.563  41.079  43.368  1.00  0.00     0.153 C 
HETATM   27  C   UNL     1      41.872  40.161  46.891  1.00  0.00     0.153 C 
ENDROOT
BRANCH  16  28
HETATM   28  C   UNL     1      38.846  45.821  44.892  1.00  0.00     0.016 C 
HETATM   29  C   UNL     1      39.739  47.055  45.009  1.00  0.00     0.012 C 
HETATM   30  C   UNL     1      38.220  45.744  43.500  1.00  0.00     0.012 C 
ENDBRANCH  16  28
BRANCH  14  31
HETATM   31  C   UNL     1      41.930  42.723  41.609  1.00  0.00     0.010 C 
HETATM   32  C   UNL     1      40.502  43.129  41.254  1.00  0.00     0.012 C 
HETATM   33  C   UNL     1      42.912  43.248  40.565  1.00  0.00     0.012 C 
ENDBRANCH  14  31
BRANCH  13  34
HETATM   34  C   UNL     1      39.615  45.585  50.039  1.00  0.00     0.010 C 
HETATM   35  C   UNL     1      40.406  46.762  50.609  1.00  0.00     0.012 C 
HETATM   36  C   UNL     1      39.201  44.628  51.155  1.00  0.00     0.012 C 
ENDBRANCH  13  34
BRANCH  18  37
HETATM   37  C   UNL     1      46.152  43.362  46.165  1.00  0.00     0.016 C 
HETATM   38  C   UNL     1      45.831  43.365  47.660  1.00  0.00     0.012 C 
HETATM   39  C   UNL     1      47.606  42.958  45.931  1.00  0.00     0.012 C 
ENDBRANCH  18  37
BRANCH  17  40
HETATM   40  C   UNL     1      40.415  40.941  50.868  1.00  0.00     0.016 C 
HETATM   41  C   UNL     1      41.006  39.662  51.457  1.00  0.00     0.012 C 
HETATM   42  C   UNL     1      38.889  40.899  50.917  1.00  0.00     0.012 C 
ENDBRANCH  17  40
BRANCH  15  43
HETATM   43  C   UNL     1      44.134  38.290  47.562  1.00  0.00     0.010 C 
HETATM   44  C   UNL     1      44.350  38.038  46.072  1.00  0.00     0.012 C 
HETATM   45  C   UNL     1      45.188  37.562  48.390  1.00  0.00     0.012 C 
ENDBRANCH  15  43
TORSDOF 6
ENDMDL
MODEL 10
REMARK VINA RESULT:    -5.761      1.438      1.763
REMARK INTER + INTRA:          -5.908
REMARK INTER:                  -7.125
REMARK INTRA:                   1.218
REMARK UNBOUND:                 1.874
REMARK  6 active torsions:
REMARK  status: ('A' for Active; 'I' for Inactive)
REMARK    1  A    between atoms: C_13  and  C_16 
REMARK    2  A    between atoms: C_14  and  C_17 
REMARK    3  A    between atoms: C_15  and  C_18 
REMARK    4  A    between atoms: C_19  and  C_22 
REMARK    5  A    between atoms: C_20  and  C_23 
REMARK    6  A    between atoms: C_21  and  C_24 
ROOT
HETATM    1  O   UNL     1      33.225  48.590  45.409  1.00  0.00    -0.304 OA
HETATM    2  O   UNL     1      28.550  49.252  43.291  1.00  0.00    -0.304 OA
HETATM    3  O   UNL     1      28.812  46.238  46.924  1.00  0.00    -0.304 OA
HETATM    4  O   UNL     1      30.998  49.817  45.909  1.00  0.00    -0.270 OA
HETATM    5  O   UNL     1      31.223  47.929  48.158  1.00  0.00    -0.270 OA
HETATM    6  O   UNL     1      25.897  47.883  44.554  1.00  0.00    -0.270 OA
HETATM    7  O   UNL     1      32.212  46.799  44.366  1.00  0.00    -0.263 OA
HETATM    8  O   UNL     1      27.082  50.598  44.445  1.00  0.00    -0.263 OA
HETATM    9  O   UNL     1      27.452  44.538  47.655  1.00  0.00    -0.263 OA
HETATM   10  N   UNL     1      30.671  50.720  43.805  1.00  0.00    -0.340 N 
HETATM   11  N   UNL     1      31.813  45.973  47.057  1.00  0.00    -0.340 N 
HETATM   12  N   UNL     1      27.687  46.398  44.493  1.00  0.00    -0.340 N 
HETATM   13  C   UNL     1      29.380  51.299  44.233  1.00  0.00     0.190 C 
HETATM   14  C   UNL     1      33.092  46.571  46.623  1.00  0.00     0.190 C 
HETATM   15  C   UNL     1      27.060  45.475  45.462  1.00  0.00     0.190 C 
HETATM   16  C   UNL     1      32.800  49.496  44.368  1.00  0.00     0.227 C 
HETATM   17  C   UNL     1      27.557  48.302  42.869  1.00  0.00     0.227 C 
HETATM   18  C   UNL     1      29.566  46.205  48.151  1.00  0.00     0.227 C 
HETATM   19  C   UNL     1      31.415  50.017  44.763  1.00  0.00     0.250 C 
HETATM   20  C   UNL     1      30.934  46.783  47.798  1.00  0.00     0.250 C 
HETATM   21  C   UNL     1      26.967  47.523  44.054  1.00  0.00     0.250 C 
HETATM   22  C   UNL     1      32.791  47.297  45.323  1.00  0.00     0.283 C 
HETATM   23  C   UNL     1      28.205  50.346  44.023  1.00  0.00     0.283 C 
HETATM   24  C   UNL     1      27.793  45.344  46.795  1.00  0.00     0.283 C 
HETATM   25  C   UNL     1      31.066  50.888  42.404  1.00  0.00     0.153 C 
HETATM   26  C   UNL     1      31.531  44.592  46.654  1.00  0.00     0.153 C 
HETATM   27  C   UNL     1      28.965  45.993  43.904  1.00  0.00     0.153 C 
ENDROOT
BRANCH  16  28
HETATM   28  C   UNL     1      33.812  50.632  44.332  1.00  0.00     0.016 C 
HETATM   29  C   UNL     1      33.758  51.444  45.626  1.00  0.00     0.012 C 
HETATM   30  C   UNL     1      35.223  50.092  44.100  1.00  0.00     0.012 C 
ENDBRANCH  16  28
BRANCH  14  31
HETATM   31  C   UNL     1      34.251  45.601  46.428  1.00  0.00     0.010 C 
HETATM   32  C   UNL     1      35.415  46.290  45.719  1.00  0.00     0.012 C 
HETATM   33  C   UNL     1      34.703  45.028  47.769  1.00  0.00     0.012 C 
ENDBRANCH  14  31
BRANCH  13  34
HETATM   34  C   UNL     1      29.067  52.650  43.590  1.00  0.00     0.010 C 
HETATM   35  C   UNL     1      28.774  53.701  44.661  1.00  0.00     0.012 C 
HETATM   36  C   UNL     1      27.892  52.530  42.623  1.00  0.00     0.012 C 
ENDBRANCH  13  34
BRANCH  18  37
HETATM   37  C   UNL     1      28.844  47.058  49.190  1.00  0.00     0.016 C 
HETATM   38  C   UNL     1      27.818  47.972  48.519  1.00  0.00     0.012 C 
HETATM   39  C   UNL     1      28.169  46.177  50.239  1.00  0.00     0.012 C 
ENDBRANCH  18  37
BRANCH  17  40
HETATM   40  C   UNL     1      26.482  48.952  41.997  1.00  0.00     0.016 C 
HETATM   41  C   UNL     1      25.444  47.919  41.564  1.00  0.00     0.012 C 
HETATM   42  C   UNL     1      27.113  49.623  40.779  1.00  0.00     0.012 C 
ENDBRANCH  17  40
BRANCH  15  43
HETATM   43  C   UNL     1      26.823  44.097  44.844  1.00  0.00     0.010 C 
HETATM   44  C   UNL     1      25.693  44.159  43.820  1.00  0.00     0.012 C 
HETATM   45  C   UNL     1      28.104  43.573  44.202  1.00  0.00     0.012 C 
ENDBRANCH  15  43
TORSDOF 6
ENDMDL
MODEL 11
REMARK VINA RESULT:    -5.701      2.976      7.679
REMARK INTER + INTRA:          -5.827
REMARK INTER:                  -6.858
REMARK INTRA:                   1.032
REMARK UNBOUND:                 1.874
REMARK  6 active torsions:
REMARK  status: ('A' for Active; 'I' for Inactive)
REMARK    1  A    between atoms: C_13  and  C_16 
REMARK    2  A    between atoms: C_14  and  C_17 
REMARK    3  A    between atoms: C_15  and  C_18 
REMARK    4  A    between atoms: C_19  and  C_22 
REMARK    5  A    between atoms: C_20  and  C_23 
REMARK    6  A    between atoms: C_21  and  C_24 
ROOT
HETATM    1  O   UNL     1      29.953  45.704  50.114  1.00  0.00    -0.304 OA
HETATM    2  O   UNL     1      30.188  47.558  45.288  1.00  0.00    -0.304 OA
HETATM    3  O   UNL     1      34.319  46.743  47.439  1.00  0.00    -0.304 OA
HETATM    4  O   UNL     1      30.442  44.868  47.710  1.00  0.00    -0.270 OA
HETATM    5  O   UNL     1      32.986  44.368  49.106  1.00  0.00    -0.270 OA
HETATM    6  O   UNL     1      33.008  47.890  43.725  1.00  0.00    -0.270 OA
HETATM    7  O   UNL     1      30.871  47.791  49.767  1.00  0.00    -0.263 OA
HETATM    8  O   UNL     1      30.691  46.042  43.630  1.00  0.00    -0.263 OA
HETATM    9  O   UNL     1      36.457  47.493  47.067  1.00  0.00    -0.263 OA
HETATM   10  N   UNL     1      28.664  45.910  46.660  1.00  0.00    -0.340 N 
HETATM   11  N   UNL     1      33.284  46.368  50.245  1.00  0.00    -0.340 N 
HETATM   12  N   UNL     1      33.152  48.627  45.927  1.00  0.00    -0.340 N 
HETATM   13  C   UNL     1      29.120  45.408  45.346  1.00  0.00     0.190 C 
HETATM   14  C   UNL     1      32.076  46.117  51.057  1.00  0.00     0.190 C 
HETATM   15  C   UNL     1      34.629  48.590  45.929  1.00  0.00     0.190 C 
HETATM   16  C   UNL     1      28.892  45.962  49.168  1.00  0.00     0.227 C 
HETATM   17  C   UNL     1      30.955  48.635  44.722  1.00  0.00     0.227 C 
HETATM   18  C   UNL     1      34.798  45.732  48.347  1.00  0.00     0.227 C 
HETATM   19  C   UNL     1      29.404  45.536  47.790  1.00  0.00     0.250 C 
HETATM   20  C   UNL     1      33.615  45.420  49.260  1.00  0.00     0.250 C 
HETATM   21  C   UNL     1      32.461  48.338  44.737  1.00  0.00     0.250 C 
HETATM   22  C   UNL     1      30.913  46.667  50.250  1.00  0.00     0.283 C 
HETATM   23  C   UNL     1      30.102  46.355  44.659  1.00  0.00     0.283 C 
HETATM   24  C   UNL     1      35.247  47.567  46.879  1.00  0.00     0.283 C 
HETATM   25  C   UNL     1      27.495  46.794  46.686  1.00  0.00     0.153 C 
HETATM   26  C   UNL     1      34.033  47.603  50.497  1.00  0.00     0.153 C 
HETATM   27  C   UNL     1      32.487  49.140  47.126  1.00  0.00     0.153 C 
ENDROOT
BRANCH  16  28
HETATM   28  C   UNL     1      27.708  45.106  49.590  1.00  0.00     0.016 C 
HETATM   29  C   UNL     1      28.181  43.748  50.107  1.00  0.00     0.012 C 
HETATM   30  C   UNL     1      26.875  45.821  50.654  1.00  0.00     0.012 C 
ENDBRANCH  16  28
BRANCH  14  31
HETATM   31  C   UNL     1      32.075  46.717  52.458  1.00  0.00     0.010 C 
HETATM   32  C   UNL     1      30.645  46.938  52.946  1.00  0.00     0.012 C 
HETATM   33  C   UNL     1      32.840  45.820  53.427  1.00  0.00     0.012 C 
ENDBRANCH  14  31
BRANCH  13  34
HETATM   34  C   UNL     1      27.980  45.064  44.388  1.00  0.00     0.010 C 
HETATM   35  C   UNL     1      26.963  44.147  45.068  1.00  0.00     0.012 C 
HETATM   36  C   UNL     1      28.520  44.413  43.117  1.00  0.00     0.012 C 
ENDBRANCH  13  34
BRANCH  18  37
HETATM   37  C   UNL     1      35.223  44.510  47.537  1.00  0.00     0.016 C 
HETATM   38  C   UNL     1      34.735  44.624  46.093  1.00  0.00     0.012 C 
HETATM   39  C   UNL     1      36.740  44.337  47.577  1.00  0.00     0.012 C 
ENDBRANCH  18  37
BRANCH  17  40
HETATM   40  C   UNL     1      30.444  49.028  43.336  1.00  0.00     0.016 C 
HETATM   41  C   UNL     1      31.076  50.343  42.884  1.00  0.00     0.012 C 
HETATM   42  C   UNL     1      28.921  49.136  43.335  1.00  0.00     0.012 C 
ENDBRANCH  17  40
BRANCH  15  43
HETATM   43  C   UNL     1      35.220  49.978  46.179  1.00  0.00     0.010 C 
HETATM   44  C   UNL     1      35.704  50.100  47.621  1.00  0.00     0.012 C 
HETATM   45  C   UNL     1      36.358  50.258  45.203  1.00  0.00     0.012 C 
ENDBRANCH  15  43
TORSDOF 6
ENDMDL
MODEL 12
REMARK VINA RESULT:    -5.638     13.496     17.558
REMARK INTER + INTRA:          -5.741
REMARK INTER:                  -6.725
REMARK INTRA:                   0.985
REMARK UNBOUND:                 1.874
REMARK  6 active torsions:
REMARK  status: ('A' for Active; 'I' for Inactive)
REMARK    1  A    between atoms: C_13  and  C_16 
REMARK    2  A    between atoms: C_14  and  C_17 
REMARK    3  A    between atoms: C_15  and  C_18 
REMARK    4  A    between atoms: C_19  and  C_22 
REMARK    5  A    between atoms: C_20  and  C_23 
REMARK    6  A    between atoms: C_21  and  C_24 
ROOT
HETATM    1  O   UNL     1      39.432  36.204  55.134  1.00  0.00    -0.304 OA
HETATM    2  O   UNL     1      34.824  38.256  56.288  1.00  0.00    -0.304 OA
HETATM    3  O   UNL     1      37.711  40.907  53.644  1.00  0.00    -0.304 OA
HETATM    4  O   UNL     1      37.140  36.645  54.006  1.00  0.00    -0.270 OA
HETATM    5  O   UNL     1      38.989  38.266  52.385  1.00  0.00    -0.270 OA
HETATM    6  O   UNL     1      33.860  41.091  55.045  1.00  0.00    -0.270 OA
HETATM    7  O   UNL     1      39.355  38.101  56.443  1.00  0.00    -0.263 OA
HETATM    8  O   UNL     1      33.238  38.224  54.619  1.00  0.00    -0.263 OA
HETATM    9  O   UNL     1      37.797  43.156  53.186  1.00  0.00    -0.263 OA
HETATM   10  N   UNL     1      35.802  35.880  55.730  1.00  0.00    -0.340 N 
HETATM   11  N   UNL     1      40.242  39.316  54.032  1.00  0.00    -0.340 N 
HETATM   12  N   UNL     1      36.075  41.169  55.754  1.00  0.00    -0.340 N 
HETATM   13  C   UNL     1      34.586  36.256  54.980  1.00  0.00     0.190 C 
HETATM   14  C   UNL     1      40.790  38.019  54.480  1.00  0.00     0.190 C 
HETATM   15  C   UNL     1      36.365  42.392  54.976  1.00  0.00     0.190 C 
HETATM   16  C   UNL     1      38.307  35.623  55.828  1.00  0.00     0.227 C 
HETATM   17  C   UNL     1      34.462  39.555  56.790  1.00  0.00     0.227 C 
HETATM   18  C   UNL     1      38.655  40.625  52.594  1.00  0.00     0.227 C 
HETATM   19  C   UNL     1      37.040  36.098  55.110  1.00  0.00     0.250 C 
HETATM   20  C   UNL     1      39.304  39.299  52.983  1.00  0.00     0.250 C 
HETATM   21  C   UNL     1      34.762  40.667  55.774  1.00  0.00     0.250 C 
HETATM   22  C   UNL     1      39.792  37.474  55.487  1.00  0.00     0.283 C 
HETATM   23  C   UNL     1      34.143  37.692  55.254  1.00  0.00     0.283 C 
HETATM   24  C   UNL     1      37.377  42.212  53.847  1.00  0.00     0.283 C 
HETATM   25  C   UNL     1      35.633  35.340  57.083  1.00  0.00     0.153 C 
HETATM   26  C   UNL     1      40.684  40.525  54.733  1.00  0.00     0.153 C 
HETATM   27  C   UNL     1      37.139  40.644  56.612  1.00  0.00     0.153 C 
ENDROOT
BRANCH  16  28
HETATM   28  C   UNL     1      38.454  34.113  55.717  1.00  0.00     0.016 C 
HETATM   29  C   UNL     1      39.667  33.750  54.862  1.00  0.00     0.012 C 
HETATM   30  C   UNL     1      38.567  33.477  57.102  1.00  0.00     0.012 C 
ENDBRANCH  16  28
BRANCH  14  31
HETATM   31  C   UNL     1      42.185  38.059  55.090  1.00  0.00     0.010 C 
HETATM   32  C   UNL     1      42.427  36.826  55.958  1.00  0.00     0.012 C 
HETATM   33  C   UNL     1      43.247  38.162  53.998  1.00  0.00     0.012 C 
ENDBRANCH  14  31
BRANCH  13  34
HETATM   34  C   UNL     1      33.409  35.305  55.196  1.00  0.00     0.010 C 
HETATM   35  C   UNL     1      32.542  35.227  53.940  1.00  0.00     0.012 C 
HETATM   36  C   UNL     1      32.573  35.741  56.397  1.00  0.00     0.012 C 
ENDBRANCH  13  34
BRANCH  18  37
HETATM   37  C   UNL     1      37.897  40.515  51.273  1.00  0.00     0.016 C 
HETATM   38  C   UNL     1      36.388  40.530  51.515  1.00  0.00     0.012 C 
HETATM   39  C   UNL     1      38.299  41.643  50.324  1.00  0.00     0.012 C 
ENDBRANCH  18  37
BRANCH  17  40
HETATM   40  C   UNL     1      33.019  39.588  57.293  1.00  0.00     0.016 C 
HETATM   41  C   UNL     1      32.646  40.992  57.764  1.00  0.00     0.012 C 
HETATM   42  C   UNL     1      32.819  38.574  58.418  1.00  0.00     0.012 C 
ENDBRANCH  17  40
BRANCH  15  43
HETATM   43  C   UNL     1      36.782  43.546  55.890  1.00  0.00     0.010 C 
HETATM   44  C   UNL     1      38.292  43.758  55.826  1.00  0.00     0.012 C 
HETATM   45  C   UNL     1      36.041  44.824  55.506  1.00  0.00     0.012 C 
ENDBRANCH  15  43
TORSDOF 6
ENDMDL
MODEL 13
REMARK VINA RESULT:    -5.561      2.790      7.331
REMARK INTER + INTRA:          -5.637
REMARK INTER:                  -6.635
REMARK INTRA:                   0.998
REMARK UNBOUND:                 1.874
REMARK  6 active torsions:
REMARK  status: ('A' for Active; 'I' for Inactive)
REMARK    1  A    between atoms: C_13  and  C_16 
REMARK    2  A    between atoms: C_14  and  C_17 
REMARK    3  A    between atoms: C_15  and  C_18 
REMARK    4  A    between atoms: C_19  and  C_22 
REMARK    5  A    between atoms: C_20  and  C_23 
REMARK    6  A    between atoms: C_21  and  C_24 
ROOT
HETATM    1  O   UNL     1      32.227  50.361  45.399  1.00  0.00    -0.304 OA
HETATM    2  O   UNL     1      33.780  46.102  47.894  1.00  0.00    -0.304 OA
HETATM    3  O   UNL     1      29.256  46.212  46.524  1.00  0.00    -0.304 OA
HETATM    4  O   UNL     1      32.869  47.904  44.879  1.00  0.00    -0.270 OA
HETATM    5  O   UNL     1      30.053  48.038  44.029  1.00  0.00    -0.270 OA
HETATM    6  O   UNL     1      31.833  43.536  48.262  1.00  0.00    -0.270 OA
HETATM    7  O   UNL     1      31.296  49.872  47.452  1.00  0.00    -0.263 OA
HETATM    8  O   UNL     1      34.182  44.242  46.597  1.00  0.00    -0.263 OA
HETATM    9  O   UNL     1      27.388  45.051  47.183  1.00  0.00    -0.263 OA
HETATM   10  N   UNL     1      34.786  47.814  46.169  1.00  0.00    -0.340 N 
HETATM   11  N   UNL     1      29.083  49.140  45.825  1.00  0.00    -0.340 N 
HETATM   12  N   UNL     1      30.713  45.534  48.672  1.00  0.00    -0.340 N 
HETATM   13  C   UNL     1      34.972  46.387  45.829  1.00  0.00     0.190 C 
HETATM   14  C   UNL     1      29.871  50.356  45.539  1.00  0.00     0.190 C 
HETATM   15  C   UNL     1      29.381  44.908  48.542  1.00  0.00     0.190 C 
HETATM   16  C   UNL     1      33.544  49.983  45.854  1.00  0.00     0.227 C 
HETATM   17  C   UNL     1      33.194  45.377  48.988  1.00  0.00     0.227 C 
HETATM   18  C   UNL     1      28.568  46.726  45.368  1.00  0.00     0.227 C 
HETATM   19  C   UNL     1      33.696  48.482  45.594  1.00  0.00     0.250 C 
HETATM   20  C   UNL     1      29.299  48.017  45.006  1.00  0.00     0.250 C 
HETATM   21  C   UNL     1      31.860  44.724  48.597  1.00  0.00     0.250 C 
HETATM   22  C   UNL     1      31.191  50.175  46.271  1.00  0.00     0.283 C 
HETATM   23  C   UNL     1      34.256  45.450  46.799  1.00  0.00     0.283 C 
HETATM   24  C   UNL     1      28.551  45.399  47.358  1.00  0.00     0.283 C 
HETATM   25  C   UNL     1      35.730  48.421  47.113  1.00  0.00     0.153 C 
HETATM   26  C   UNL     1      28.158  49.175  46.963  1.00  0.00     0.153 C 
HETATM   27  C   UNL     1      30.762  46.947  49.053  1.00  0.00     0.153 C 
ENDROOT
BRANCH  16  28
HETATM   28  C   UNL     1      34.541  50.777  45.023  1.00  0.00     0.016 C 
HETATM   29  C   UNL     1      33.889  51.286  43.739  1.00  0.00     0.012 C 
HETATM   30  C   UNL     1      35.112  51.942  45.831  1.00  0.00     0.012 C 
ENDBRANCH  16  28
BRANCH  14  31
HETATM   31  C   UNL     1      29.227  51.679  45.936  1.00  0.00     0.010 C 
HETATM   32  C   UNL     1      30.283  52.773  46.066  1.00  0.00     0.012 C 
HETATM   33  C   UNL     1      28.160  52.082  44.921  1.00  0.00     0.012 C 
ENDBRANCH  14  31
BRANCH  13  34
HETATM   34  C   UNL     1      36.436  45.971  45.695  1.00  0.00     0.010 C 
HETATM   35  C   UNL     1      37.085  46.658  44.494  1.00  0.00     0.012 C 
HETATM   36  C   UNL     1      36.558  44.454  45.573  1.00  0.00     0.012 C 
ENDBRANCH  13  34
BRANCH  18  37
HETATM   37  C   UNL     1      28.658  45.694  44.247  1.00  0.00     0.016 C 
HETATM   38  C   UNL     1      29.633  44.578  44.620  1.00  0.00     0.012 C 
HETATM   39  C   UNL     1      27.279  45.117  43.932  1.00  0.00     0.012 C 
ENDBRANCH  18  37
BRANCH  17  40
HETATM   40  C   UNL     1      34.179  44.383  49.604  1.00  0.00     0.016 C 
HETATM   41  C   UNL     1      33.628  43.821  50.913  1.00  0.00     0.012 C 
HETATM   42  C   UNL     1      35.537  45.044  49.832  1.00  0.00     0.012 C 
ENDBRANCH  17  40
BRANCH  15  43
HETATM   43  C   UNL     1      28.582  45.024  49.841  1.00  0.00     0.010 C 
HETATM   44  C   UNL     1      27.420  45.999  49.667  1.00  0.00     0.012 C 
HETATM   45  C   UNL     1      28.075  43.654  50.280  1.00  0.00     0.012 C 
ENDBRANCH  15  43
TORSDOF 6
ENDMDL
MODEL 14
REMARK VINA RESULT:    -5.480     11.705     16.281
REMARK INTER + INTRA:          -5.527
REMARK INTER:                  -7.082
REMARK INTRA:                   1.555
REMARK UNBOUND:                 1.874
REMARK  6 active torsions:
REMARK  status: ('A' for Active; 'I' for Inactive)
REMARK    1  A    between atoms: C_13  and  C_16 
REMARK    2  A    between atoms: C_14  and  C_17 
REMARK    3  A    between atoms: C_15  and  C_18 
REMARK    4  A    between atoms: C_19  and  C_22 
REMARK    5  A    between atoms: C_20  and  C_23 
REMARK    6  A    between atoms: C_21  and  C_24 
ROOT
HETATM    1  O   UNL     1      41.349  44.030  43.539  1.00  0.00    -0.304 OA
HETATM    2  O   UNL     1      42.207  43.618  48.626  1.00  0.00    -0.304 OA
HETATM    3  O   UNL     1      44.677  40.715  45.827  1.00  0.00    -0.304 OA
HETATM    4  O   UNL     1      43.134  44.710  45.291  1.00  0.00    -0.270 OA
HETATM    5  O   UNL     1      44.626  42.905  43.505  1.00  0.00    -0.270 OA
HETATM    6  O   UNL     1      44.506  41.666  49.814  1.00  0.00    -0.270 OA
HETATM    7  O   UNL     1      40.791  42.064  44.606  1.00  0.00    -0.263 OA
HETATM    8  O   UNL     1      44.141  44.582  49.421  1.00  0.00    -0.263 OA
HETATM    9  O   UNL     1      45.791  38.743  46.205  1.00  0.00    -0.263 OA
HETATM   10  N   UNL     1      41.686  45.530  46.896  1.00  0.00    -0.340 N 
HETATM   11  N   UNL     1      43.129  41.146  43.276  1.00  0.00    -0.340 N 
HETATM   12  N   UNL     1      43.289  40.633  48.122  1.00  0.00    -0.340 N 
HETATM   13  C   UNL     1      42.817  45.794  47.811  1.00  0.00     0.190 C 
HETATM   14  C   UNL     1      42.158  42.026  42.593  1.00  0.00     0.190 C 
HETATM   15  C   UNL     1      44.308  39.583  47.918  1.00  0.00     0.190 C 
HETATM   16  C   UNL     1      40.837  44.824  44.632  1.00  0.00     0.227 C 
HETATM   17  C   UNL     1      42.267  42.469  49.487  1.00  0.00     0.227 C 
HETATM   18  C   UNL     1      45.284  40.846  44.528  1.00  0.00     0.227 C 
HETATM   19  C   UNL     1      41.984  45.009  45.629  1.00  0.00     0.250 C 
HETATM   20  C   UNL     1      44.329  41.727  43.726  1.00  0.00     0.250 C 
HETATM   21  C   UNL     1      43.464  41.566  49.159  1.00  0.00     0.250 C 
HETATM   22  C   UNL     1      41.339  42.673  43.697  1.00  0.00     0.283 C 
HETATM   23  C   UNL     1      43.149  44.598  48.700  1.00  0.00     0.283 C 
HETATM   24  C   UNL     1      45.002  39.613  46.558  1.00  0.00     0.283 C 
HETATM   25  C   UNL     1      40.331  45.796  47.389  1.00  0.00     0.153 C 
HETATM   26  C   UNL     1      42.761  39.741  43.471  1.00  0.00     0.153 C 
HETATM   27  C   UNL     1      42.054  40.537  47.341  1.00  0.00     0.153 C 
ENDROOT
BRANCH  16  28
HETATM   28  C   UNL     1      40.413  46.161  44.044  1.00  0.00     0.016 C 
HETATM   29  C   UNL     1      41.086  46.394  42.692  1.00  0.00     0.012 C 
HETATM   30  C   UNL     1      38.893  46.233  43.903  1.00  0.00     0.012 C 
ENDBRANCH  16  28
BRANCH  14  31
HETATM   31  C   UNL     1      41.239  41.349  41.584  1.00  0.00     0.010 C 
HETATM   32  C   UNL     1      40.519  42.391  40.731  1.00  0.00     0.012 C 
HETATM   33  C   UNL     1      42.028  40.386  40.701  1.00  0.00     0.012 C 
ENDBRANCH  14  31
BRANCH  13  34
HETATM   34  C   UNL     1      42.634  47.042  48.673  1.00  0.00     0.010 C 
HETATM   35  C   UNL     1      43.840  47.972  48.539  1.00  0.00     0.012 C 
HETATM   36  C   UNL     1      42.413  46.662  50.136  1.00  0.00     0.012 C 
ENDBRANCH  13  34
BRANCH  18  37
HETATM   37  C   UNL     1      46.653  41.503  44.693  1.00  0.00     0.016 C 
HETATM   38  C   UNL     1      46.819  42.054  46.109  1.00  0.00     0.012 C 
HETATM   39  C   UNL     1      47.769  40.512  44.370  1.00  0.00     0.012 C 
ENDBRANCH  18  37
BRANCH  17  40
HETATM   40  C   UNL     1      42.211  42.862  50.963  1.00  0.00     0.016 C 
HETATM   41  C   UNL     1      42.309  41.625  51.853  1.00  0.00     0.012 C 
HETATM   42  C   UNL     1      40.931  43.640  51.264  1.00  0.00     0.012 C 
ENDBRANCH  17  40
BRANCH  15  43
HETATM   43  C   UNL     1      43.737  38.192  48.197  1.00  0.00     0.010 C 
HETATM   44  C   UNL     1      44.537  37.127  47.451  1.00  0.00     0.012 C 
HETATM   45  C   UNL     1      43.731  37.909  49.697  1.00  0.00     0.012 C 
ENDBRANCH  15  43
TORSDOF 6
ENDMDL
MODEL 15
REMARK VINA RESULT:    -5.349     11.598     15.678
REMARK INTER + INTRA:          -5.351
REMARK INTER:                  -6.264
REMARK INTRA:                   0.913
REMARK UNBOUND:                 1.874
REMARK  6 active torsions:
REMARK  status: ('A' for Active; 'I' for Inactive)
REMARK    1  A    between atoms: C_13  and  C_16 
REMARK    2  A    between atoms: C_14  and  C_17 
REMARK    3  A    between atoms: C_15  and  C_18 
REMARK    4  A    between atoms: C_19  and  C_22 
REMARK    5  A    between atoms: C_20  and  C_23 
REMARK    6  A    between atoms: C_21  and  C_24 
ROOT
HETATM    1  O   UNL     1      44.994  46.139  47.383  1.00  0.00    -0.304 OA
HETATM    2  O   UNL     1      42.381  42.868  44.342  1.00  0.00    -0.304 OA
HETATM    3  O   UNL     1      43.504  41.296  48.657  1.00  0.00    -0.304 OA
HETATM    4  O   UNL     1      42.589  45.215  47.101  1.00  0.00    -0.270 OA
HETATM    5  O   UNL     1      43.339  44.276  49.790  1.00  0.00    -0.270 OA
HETATM    6  O   UNL     1      41.336  39.998  45.427  1.00  0.00    -0.270 OA
HETATM    7  O   UNL     1      46.016  44.182  46.716  1.00  0.00    -0.263 OA
HETATM    8  O   UNL     1      40.134  42.630  44.783  1.00  0.00    -0.263 OA
HETATM    9  O   UNL     1      43.659  39.195  49.571  1.00  0.00    -0.263 OA
HETATM   10  N   UNL     1      42.440  45.456  44.806  1.00  0.00    -0.340 N 
HETATM   11  N   UNL     1      45.474  43.451  49.409  1.00  0.00    -0.340 N 
HETATM   12  N   UNL     1      43.514  40.437  46.115  1.00  0.00    -0.340 N 
HETATM   13  C   UNL     1      41.095  44.842  44.809  1.00  0.00     0.190 C 
HETATM   14  C   UNL     1      45.964  44.802  49.069  1.00  0.00     0.190 C 
HETATM   15  C   UNL     1      43.475  39.404  47.171  1.00  0.00     0.190 C 
HETATM   16  C   UNL     1      44.429  46.346  46.071  1.00  0.00     0.227 C 
HETATM   17  C   UNL     1      42.603  41.482  44.028  1.00  0.00     0.227 C 
HETATM   18  C   UNL     1      43.577  41.903  49.961  1.00  0.00     0.227 C 
HETATM   19  C   UNL     1      43.080  45.621  46.042  1.00  0.00     0.250 C 
HETATM   20  C   UNL     1      44.109  43.313  49.718  1.00  0.00     0.250 C 
HETATM   21  C   UNL     1      42.412  40.577  45.254  1.00  0.00     0.250 C 
HETATM   22  C   UNL     1      45.691  44.981  47.585  1.00  0.00     0.283 C 
HETATM   23  C   UNL     1      41.139  43.322  44.662  1.00  0.00     0.283 C 
HETATM   24  C   UNL     1      43.571  39.937  48.599  1.00  0.00     0.283 C 
HETATM   25  C   UNL     1      43.026  45.815  43.511  1.00  0.00     0.153 C 
HETATM   26  C   UNL     1      46.433  42.343  49.364  1.00  0.00     0.153 C 
HETATM   27  C   UNL     1      44.779  41.146  45.908  1.00  0.00     0.153 C 
ENDROOT
BRANCH  16  28
HETATM   28  C   UNL     1      44.237  47.846  45.906  1.00  0.00     0.016 C 
HETATM   29  C   UNL     1      43.993  48.511  47.260  1.00  0.00     0.012 C 
HETATM   30  C   UNL     1      45.446  48.473  45.213  1.00  0.00     0.012 C 
ENDBRANCH  16  28
BRANCH  14  31
HETATM   31  C   UNL     1      47.433  45.075  49.369  1.00  0.00     0.010 C 
HETATM   32  C   UNL     1      47.944  46.247  48.534  1.00  0.00     0.012 C 
HETATM   33  C   UNL     1      47.634  45.350  50.858  1.00  0.00     0.012 C 
ENDBRANCH  14  31
BRANCH  13  34
HETATM   34  C   UNL     1      40.145  45.433  43.768  1.00  0.00     0.010 C 
HETATM   35  C   UNL     1      38.731  45.553  44.336  1.00  0.00     0.012 C 
HETATM   36  C   UNL     1      40.140  44.585  42.497  1.00  0.00     0.012 C 
ENDBRANCH  13  34
BRANCH  18  37
HETATM   37  C   UNL     1      42.177  41.925  50.569  1.00  0.00     0.016 C 
HETATM   38  C   UNL     1      41.130  41.540  49.523  1.00  0.00     0.012 C 
HETATM   39  C   UNL     1      42.096  40.991  51.775  1.00  0.00     0.012 C 
ENDBRANCH  18  37
BRANCH  17  40
HETATM   40  C   UNL     1      41.772  41.032  42.827  1.00  0.00     0.016 C 
HETATM   41  C   UNL     1      41.851  39.516  42.656  1.00  0.00     0.012 C 
HETATM   42  C   UNL     1      42.236  41.741  41.556  1.00  0.00     0.012 C 
ENDBRANCH  17  40
BRANCH  15  43
HETATM   43  C   UNL     1      44.531  38.324  46.931  1.00  0.00     0.010 C 
HETATM   44  C   UNL     1      44.270  37.115  47.825  1.00  0.00     0.012 C 
HETATM   45  C   UNL     1      44.550  37.914  45.461  1.00  0.00     0.012 C 
ENDBRANCH  15  43
TORSDOF 6
ENDMDL
MODEL 16
REMARK VINA RESULT:    -5.330     11.104     15.128
REMARK INTER + INTRA:          -5.324
REMARK INTER:                  -6.145
REMARK INTRA:                   0.820
REMARK UNBOUND:                 1.874
REMARK  6 active torsions:
REMARK  status: ('A' for Active; 'I' for Inactive)
REMARK    1  A    between atoms: C_13  and  C_16 
REMARK    2  A    between atoms: C_14  and  C_17 
REMARK    3  A    between atoms: C_15  and  C_18 
REMARK    4  A    between atoms: C_19  and  C_22 
REMARK    5  A    between atoms: C_20  and  C_23 
REMARK    6  A    between atoms: C_21  and  C_24 
ROOT
HETATM    1  O   UNL     1      41.214  43.435  49.616  1.00  0.00    -0.304 OA
HETATM    2  O   UNL     1      42.124  41.564  44.878  1.00  0.00    -0.304 OA
HETATM    3  O   UNL     1      41.728  46.261  45.251  1.00  0.00    -0.304 OA
HETATM    4  O   UNL     1      43.175  43.209  47.937  1.00  0.00    -0.270 OA
HETATM    5  O   UNL     1      42.892  46.126  48.221  1.00  0.00    -0.270 OA
HETATM    6  O   UNL     1      42.661  43.518  42.348  1.00  0.00    -0.270 OA
HETATM    7  O   UNL     1      39.611  43.716  47.982  1.00  0.00    -0.263 OA
HETATM    8  O   UNL     1      44.281  41.755  44.096  1.00  0.00    -0.263 OA
HETATM    9  O   UNL     1      41.286  47.924  43.731  1.00  0.00    -0.263 OA
HETATM   10  N   UNL     1      42.819  41.000  47.351  1.00  0.00    -0.340 N 
HETATM   11  N   UNL     1      40.593  46.383  48.041  1.00  0.00    -0.340 N 
HETATM   12  N   UNL     1      40.892  44.271  43.657  1.00  0.00    -0.340 N 
HETATM   13  C   UNL     1      43.930  41.058  46.378  1.00  0.00     0.190 C 
HETATM   14  C   UNL     1      40.383  45.619  49.288  1.00  0.00     0.190 C 
HETATM   15  C   UNL     1      40.929  45.627  43.072  1.00  0.00     0.190 C 
HETATM   16  C   UNL     1      41.478  42.081  49.190  1.00  0.00     0.227 C 
HETATM   17  C   UNL     1      41.499  41.840  43.613  1.00  0.00     0.227 C 
HETATM   18  C   UNL     1      42.125  47.228  46.241  1.00  0.00     0.227 C 
HETATM   19  C   UNL     1      42.558  42.152  48.107  1.00  0.00     0.250 C 
HETATM   20  C   UNL     1      41.914  46.535  47.586  1.00  0.00     0.250 C 
HETATM   21  C   UNL     1      41.752  43.282  43.149  1.00  0.00     0.250 C 
HETATM   22  C   UNL     1      40.324  44.158  48.873  1.00  0.00     0.283 C 
HETATM   23  C   UNL     1      43.479  41.514  44.992  1.00  0.00     0.283 C 
HETATM   24  C   UNL     1      41.316  46.739  44.044  1.00  0.00     0.283 C 
HETATM   25  C   UNL     1      42.044  39.759  47.432  1.00  0.00     0.153 C 
HETATM   26  C   UNL     1      39.409  46.898  47.346  1.00  0.00     0.153 C 
HETATM   27  C   UNL     1      39.829  43.979  44.622  1.00  0.00     0.153 C 
ENDROOT
BRANCH  16  28
HETATM   28  C   UNL     1      41.988  41.327  50.410  1.00  0.00     0.016 C 
HETATM   29  C   UNL     1      42.551  42.298  51.447  1.00  0.00     0.012 C 
HETATM   30  C   UNL     1      40.876  40.476  51.023  1.00  0.00     0.012 C 
ENDBRANCH  16  28
BRANCH  14  31
HETATM   31  C   UNL     1      39.145  45.987  50.096  1.00  0.00     0.010 C 
HETATM   32  C   UNL     1      38.755  44.844  51.031  1.00  0.00     0.012 C 
HETATM   33  C   UNL     1      39.382  47.270  50.888  1.00  0.00     0.012 C 
ENDBRANCH  14  31
BRANCH  13  34
HETATM   34  C   UNL     1      44.715  39.752  46.260  1.00  0.00     0.010 C 
HETATM   35  C   UNL     1      46.218  40.016  46.353  1.00  0.00     0.012 C 
HETATM   36  C   UNL     1      44.378  39.034  44.955  1.00  0.00     0.012 C 
ENDBRANCH  13  34
BRANCH  18  37
HETATM   37  C   UNL     1      43.591  47.585  46.015  1.00  0.00     0.016 C 
HETATM   38  C   UNL     1      44.231  46.626  45.011  1.00  0.00     0.012 C 
HETATM   39  C   UNL     1      43.728  49.029  45.536  1.00  0.00     0.012 C 
ENDBRANCH  18  37
BRANCH  17  40
HETATM   40  C   UNL     1      41.877  40.804  42.554  1.00  0.00     0.016 C 
HETATM   41  C   UNL     1      41.243  41.154  41.209  1.00  0.00     0.012 C 
HETATM   42  C   UNL     1      41.457  39.404  42.998  1.00  0.00     0.012 C 
ENDBRANCH  17  40
BRANCH  15  43
HETATM   43  C   UNL     1      39.614  45.965  42.368  1.00  0.00     0.010 C 
HETATM   44  C   UNL     1      39.211  44.839  41.420  1.00  0.00     0.012 C 
HETATM   45  C   UNL     1      38.513  46.227  43.392  1.00  0.00     0.012 C 
ENDBRANCH  15  43
TORSDOF 6
ENDMDL
MODEL 17
REMARK VINA RESULT:    -5.318      2.580      7.092
REMARK INTER + INTRA:          -5.309
REMARK INTER:                  -6.206
REMARK INTRA:                   0.897
REMARK UNBOUND:                 1.874
REMARK  6 active torsions:
REMARK  status: ('A' for Active; 'I' for Inactive)
REMARK    1  A    between atoms: C_13  and  C_16 
REMARK    2  A    between atoms: C_14  and  C_17 
REMARK    3  A    between atoms: C_15  and  C_18 
REMARK    4  A    between atoms: C_19  and  C_22 
REMARK    5  A    between atoms: C_20  and  C_23 
REMARK    6  A    between atoms: C_21  and  C_24 
ROOT
HETATM    1  O   UNL     1      28.292  50.784  47.922  1.00  0.00    -0.304 OA
HETATM    2  O   UNL     1      27.008  47.241  44.375  1.00  0.00    -0.304 OA
HETATM    3  O   UNL     1      27.756  51.633  42.794  1.00  0.00    -0.304 OA
HETATM    4  O   UNL     1      29.416  49.363  46.067  1.00  0.00    -0.270 OA
HETATM    5  O   UNL     1      29.865  52.122  45.140  1.00  0.00    -0.270 OA
HETATM    6  O   UNL     1      26.979  47.931  41.208  1.00  0.00    -0.270 OA
HETATM    7  O   UNL     1      26.300  51.019  46.784  1.00  0.00    -0.263 OA
HETATM    8  O   UNL     1      28.722  46.423  43.073  1.00  0.00    -0.263 OA
HETATM    9  O   UNL     1      27.146  52.735  40.874  1.00  0.00    -0.263 OA
HETATM   10  N   UNL     1      28.422  47.342  46.591  1.00  0.00    -0.340 N 
HETATM   11  N   UNL     1      27.765  53.058  45.451  1.00  0.00    -0.340 N 
HETATM   12  N   UNL     1      26.005  49.627  42.468  1.00  0.00    -0.340 N 
HETATM   13  C   UNL     1      29.089  46.694  45.441  1.00  0.00     0.190 C 
HETATM   14  C   UNL     1      27.870  52.875  46.913  1.00  0.00     0.190 C 
HETATM   15  C   UNL     1      26.106  50.611  41.371  1.00  0.00     0.190 C 
HETATM   16  C   UNL     1      28.097  49.360  48.063  1.00  0.00     0.227 C 
HETATM   17  C   UNL     1      26.037  47.269  43.315  1.00  0.00     0.227 C 
HETATM   18  C   UNL     1      28.677  52.684  43.142  1.00  0.00     0.227 C 
HETATM   19  C   UNL     1      28.698  48.697  46.821  1.00  0.00     0.250 C 
HETATM   20  C   UNL     1      28.831  52.596  44.659  1.00  0.00     0.250 C 
HETATM   21  C   UNL     1      26.396  48.297  42.233  1.00  0.00     0.250 C 
HETATM   22  C   UNL     1      27.363  51.469  47.191  1.00  0.00     0.283 C 
HETATM   23  C   UNL     1      28.269  46.781  44.156  1.00  0.00     0.283 C 
HETATM   24  C   UNL     1      27.042  51.787  41.645  1.00  0.00     0.283 C 
HETATM   25  C   UNL     1      27.491  46.536  47.385  1.00  0.00     0.153 C 
HETATM   26  C   UNL     1      26.544  53.675  44.924  1.00  0.00     0.153 C 
HETATM   27  C   UNL     1      25.330  50.050  43.697  1.00  0.00     0.153 C 
ENDROOT
BRANCH  16  28
HETATM   28  C   UNL     1      28.847  48.935  49.317  1.00  0.00     0.016 C 
HETATM   29  C   UNL     1      29.852  50.009  49.734  1.00  0.00     0.012 C 
HETATM   30  C   UNL     1      27.873  48.642  50.457  1.00  0.00     0.012 C 
ENDBRANCH  16  28
BRANCH  14  31
HETATM   31  C   UNL     1      27.116  53.884  47.769  1.00  0.00     0.010 C 
HETATM   32  C   UNL     1      26.853  53.318  49.162  1.00  0.00     0.012 C 
HETATM   33  C   UNL     1      27.891  55.196  47.861  1.00  0.00     0.012 C 
ENDBRANCH  14  31
BRANCH  13  34
HETATM   34  C   UNL     1      29.489  45.242  45.700  1.00  0.00     0.010 C 
HETATM   35  C   UNL     1      30.950  45.155  46.140  1.00  0.00     0.012 C 
HETATM   36  C   UNL     1      29.253  44.386  44.457  1.00  0.00     0.012 C 
ENDBRANCH  13  34
BRANCH  18  37
HETATM   37  C   UNL     1      30.000  52.431  42.425  1.00  0.00     0.016 C 
HETATM   38  C   UNL     1      30.028  51.025  41.825  1.00  0.00     0.012 C 
HETATM   39  C   UNL     1      30.236  53.480  41.340  1.00  0.00     0.012 C 
ENDBRANCH  18  37
BRANCH  17  40
HETATM   40  C   UNL     1      25.781  45.875  42.742  1.00  0.00     0.016 C 
HETATM   41  C   UNL     1      24.604  45.901  41.770  1.00  0.00     0.012 C 
HETATM   42  C   UNL     1      25.527  44.870  43.865  1.00  0.00     0.012 C 
ENDBRANCH  17  40
BRANCH  15  43
HETATM   43  C   UNL     1      24.726  51.114  40.945  1.00  0.00     0.010 C 
HETATM   44  C   UNL     1      24.495  52.535  41.453  1.00  0.00     0.012 C 
HETATM   45  C   UNL     1      24.581  51.053  39.428  1.00  0.00     0.012 C 
ENDBRANCH  15  43
TORSDOF 6
ENDMDL
MODEL 18
REMARK VINA RESULT:    -5.250      9.304     15.109
REMARK INTER + INTRA:          -5.217
REMARK INTER:                  -6.536
REMARK INTRA:                   1.319
REMARK UNBOUND:                 1.874
REMARK  6 active torsions:
REMARK  status: ('A' for Active; 'I' for Inactive)
REMARK    1  A    between atoms: C_13  and  C_16 
REMARK    2  A    between atoms: C_14  and  C_17 
REMARK    3  A    between atoms: C_15  and  C_18 
REMARK    4  A    between atoms: C_19  and  C_22 
REMARK    5  A    between atoms: C_20  and  C_23 
REMARK    6  A    between atoms: C_21  and  C_24 
ROOT
HETATM    1  O   UNL     1      38.934  45.401  47.226  1.00  0.00    -0.304 OA
HETATM    2  O   UNL     1      42.643  41.839  46.649  1.00  0.00    -0.304 OA
HETATM    3  O   UNL     1      42.167  44.975  43.143  1.00  0.00    -0.304 OA
HETATM    4  O   UNL     1      41.512  45.203  47.402  1.00  0.00    -0.270 OA
HETATM    5  O   UNL     1      41.154  47.164  45.235  1.00  0.00    -0.270 OA
HETATM    6  O   UNL     1      44.705  41.914  44.150  1.00  0.00    -0.270 OA
HETATM    7  O   UNL     1      38.756  43.877  45.504  1.00  0.00    -0.263 OA
HETATM    8  O   UNL     1      44.802  42.532  47.048  1.00  0.00    -0.263 OA
HETATM    9  O   UNL     1      42.827  44.982  40.944  1.00  0.00    -0.263 OA
HETATM   10  N   UNL     1      41.583  43.233  48.611  1.00  0.00    -0.340 N 
HETATM   11  N   UNL     1      39.509  46.141  43.958  1.00  0.00    -0.340 N 
HETATM   12  N   UNL     1      42.519  42.336  43.476  1.00  0.00    -0.340 N 
HETATM   13  C   UNL     1      43.060  43.232  48.561  1.00  0.00     0.190 C 
HETATM   14  C   UNL     1      38.537  46.261  45.065  1.00  0.00     0.190 C 
HETATM   15  C   UNL     1      42.942  42.910  42.182  1.00  0.00     0.190 C 
HETATM   16  C   UNL     1      39.390  44.382  48.142  1.00  0.00     0.227 C 
HETATM   17  C   UNL     1      42.978  40.990  45.539  1.00  0.00     0.227 C 
HETATM   18  C   UNL     1      41.850  46.379  43.086  1.00  0.00     0.227 C 
HETATM   19  C   UNL     1      40.914  44.311  48.014  1.00  0.00     0.250 C 
HETATM   20  C   UNL     1      40.817  46.602  44.188  1.00  0.00     0.250 C 
HETATM   21  C   UNL     1      43.490  41.793  44.335  1.00  0.00     0.250 C 
HETATM   22  C   UNL     1      38.737  45.026  45.926  1.00  0.00     0.283 C 
HETATM   23  C   UNL     1      43.609  42.514  47.330  1.00  0.00     0.283 C 
HETATM   24  C   UNL     1      42.632  44.394  42.002  1.00  0.00     0.283 C 
HETATM   25  C   UNL     1      40.918  42.092  49.248  1.00  0.00     0.153 C 
HETATM   26  C   UNL     1      39.054  45.516  42.712  1.00  0.00     0.153 C 
HETATM   27  C   UNL     1      41.081  42.201  43.718  1.00  0.00     0.153 C 
ENDROOT
BRANCH  16  28
HETATM   28  C   UNL     1      38.989  44.834  49.538  1.00  0.00     0.016 C 
HETATM   29  C   UNL     1      38.706  46.336  49.559  1.00  0.00     0.012 C 
HETATM   30  C   UNL     1      37.769  44.055  50.029  1.00  0.00     0.012 C 
ENDBRANCH  16  28
BRANCH  14  31
HETATM   31  C   UNL     1      37.075  46.388  44.658  1.00  0.00     0.010 C 
HETATM   32  C   UNL     1      36.159  45.991  45.815  1.00  0.00     0.012 C 
HETATM   33  C   UNL     1      36.767  47.809  44.195  1.00  0.00     0.012 C 
ENDBRANCH  14  31
BRANCH  13  34
HETATM   34  C   UNL     1      43.719  42.671  49.820  1.00  0.00     0.010 C 
HETATM   35  C   UNL     1      44.771  43.642  50.356  1.00  0.00     0.012 C 
HETATM   36  C   UNL     1      44.345  41.306  49.542  1.00  0.00     0.012 C 
ENDBRANCH  13  34
BRANCH  18  37
HETATM   37  C   UNL     1      43.126  47.178  43.338  1.00  0.00     0.016 C 
HETATM   38  C   UNL     1      42.819  48.673  43.411  1.00  0.00     0.012 C 
HETATM   39  C   UNL     1      43.813  46.709  44.619  1.00  0.00     0.012 C 
ENDBRANCH  18  37
BRANCH  17  40
HETATM   40  C   UNL     1      43.932  39.868  45.948  1.00  0.00     0.016 C 
HETATM   41  C   UNL     1      44.331  39.031  44.735  1.00  0.00     0.012 C 
HETATM   42  C   UNL     1      43.297  38.987  47.022  1.00  0.00     0.012 C 
ENDBRANCH  17  40
BRANCH  15  43
HETATM   43  C   UNL     1      42.389  42.102  41.007  1.00  0.00     0.010 C 
HETATM   44  C   UNL     1      42.575  40.607  41.254  1.00  0.00     0.012 C 
HETATM   45  C   UNL     1      40.917  42.431  40.779  1.00  0.00     0.012 C 
ENDBRANCH  15  43
TORSDOF 6
ENDMDL
MODEL 19
REMARK VINA RESULT:    -5.239      3.533      9.473
REMARK INTER + INTRA:          -5.202
REMARK INTER:                  -6.132
REMARK INTRA:                   0.930
REMARK UNBOUND:                 1.874
REMARK  6 active torsions:
REMARK  status: ('A' for Active; 'I' for Inactive)
REMARK    1  A    between atoms: C_13  and  C_16 
REMARK    2  A    between atoms: C_14  and  C_17 
REMARK    3  A    between atoms: C_15  and  C_18 
REMARK    4  A    between atoms: C_19  and  C_22 
REMARK    5  A    between atoms: C_20  and  C_23 
REMARK    6  A    between atoms: C_21  and  C_24 
ROOT
HETATM    1  O   UNL     1      29.316  46.707  47.306  1.00  0.00    -0.304 OA
HETATM    2  O   UNL     1      33.390  44.672  49.766  1.00  0.00    -0.304 OA
HETATM    3  O   UNL     1      34.318  48.019  46.558  1.00  0.00    -0.304 OA
HETATM    4  O   UNL     1      30.977  47.323  49.198  1.00  0.00    -0.270 OA
HETATM    5  O   UNL     1      31.501  49.392  47.169  1.00  0.00    -0.270 OA
HETATM    6  O   UNL     1      36.391  45.816  49.328  1.00  0.00    -0.270 OA
HETATM    7  O   UNL     1      30.868  45.511  46.089  1.00  0.00    -0.263 OA
HETATM    8  O   UNL     1      34.318  45.948  51.443  1.00  0.00    -0.263 OA
HETATM    9  O   UNL     1      36.214  48.599  45.398  1.00  0.00    -0.263 OA
HETATM   10  N   UNL     1      30.902  45.310  50.334  1.00  0.00    -0.340 N 
HETATM   11  N   UNL     1      31.612  48.118  45.233  1.00  0.00    -0.340 N 
HETATM   12  N   UNL     1      35.243  45.617  47.314  1.00  0.00    -0.340 N 
HETATM   13  C   UNL     1      31.915  45.792  51.296  1.00  0.00     0.190 C 
HETATM   14  C   UNL     1      30.191  47.736  45.371  1.00  0.00     0.190 C 
HETATM   15  C   UNL     1      36.184  46.501  46.596  1.00  0.00     0.190 C 
HETATM   16  C   UNL     1      29.362  45.754  48.390  1.00  0.00     0.227 C 
HETATM   17  C   UNL     1      34.643  44.171  49.271  1.00  0.00     0.227 C 
HETATM   18  C   UNL     1      33.661  49.236  46.155  1.00  0.00     0.227 C 
HETATM   19  C   UNL     1      30.483  46.198  49.333  1.00  0.00     0.250 C 
HETATM   20  C   UNL     1      32.167  48.932  46.237  1.00  0.00     0.250 C 
HETATM   21  C   UNL     1      35.504  45.283  48.654  1.00  0.00     0.250 C 
HETATM   22  C   UNL     1      30.178  46.507  46.264  1.00  0.00     0.283 C 
HETATM   23  C   UNL     1      33.345  45.501  50.844  1.00  0.00     0.283 C 
HETATM   24  C   UNL     1      35.584  47.815  46.100  1.00  0.00     0.283 C 
HETATM   25  C   UNL     1      30.433  43.928  50.469  1.00  0.00     0.153 C 
HETATM   26  C   UNL     1      32.353  47.594  44.082  1.00  0.00     0.153 C 
HETATM   27  C   UNL     1      34.175  44.989  46.533  1.00  0.00     0.153 C 
ENDROOT
BRANCH  16  28
HETATM   28  C   UNL     1      28.013  45.817  49.089  1.00  0.00     0.016 C 
HETATM   29  C   UNL     1      27.753  47.220  49.634  1.00  0.00     0.012 C 
HETATM   30  C   UNL     1      26.891  45.396  48.140  1.00  0.00     0.012 C 
ENDBRANCH  16  28
BRANCH  14  31
HETATM   31  C   UNL     1      29.447  47.450  44.073  1.00  0.00     0.010 C 
HETATM   32  C   UNL     1      28.285  46.490  44.319  1.00  0.00     0.012 C 
HETATM   33  C   UNL     1      28.946  48.748  43.444  1.00  0.00     0.012 C 
ENDBRANCH  14  31
BRANCH  13  34
HETATM   34  C   UNL     1      31.710  45.275  52.719  1.00  0.00     0.010 C 
HETATM   35  C   UNL     1      31.790  46.421  53.726  1.00  0.00     0.012 C 
HETATM   36  C   UNL     1      32.736  44.195  53.056  1.00  0.00     0.012 C 
ENDBRANCH  13  34
BRANCH  18  37
HETATM   37  C   UNL     1      34.064  50.350  47.117  1.00  0.00     0.016 C 
HETATM   38  C   UNL     1      34.791  49.775  48.333  1.00  0.00     0.012 C 
HETATM   39  C   UNL     1      34.937  51.385  46.412  1.00  0.00     0.012 C 
ENDBRANCH  18  37
BRANCH  17  40
HETATM   40  C   UNL     1      35.391  43.364  50.332  1.00  0.00     0.016 C 
HETATM   41  C   UNL     1      36.777  42.968  49.828  1.00  0.00     0.012 C 
HETATM   42  C   UNL     1      34.590  42.126  50.730  1.00  0.00     0.012 C 
ENDBRANCH  17  40
BRANCH  15  43
HETATM   43  C   UNL     1      36.877  45.762  45.450  1.00  0.00     0.010 C 
HETATM   44  C   UNL     1      38.063  46.571  44.934  1.00  0.00     0.012 C 
HETATM   45  C   UNL     1      37.326  44.376  45.903  1.00  0.00     0.012 C 
ENDBRANCH  15  43
TORSDOF 6
ENDMDL
MODEL 20
REMARK VINA RESULT:    -5.237     11.233     15.008
REMARK INTER + INTRA:          -5.200
REMARK INTER:                  -6.511
REMARK INTRA:                   1.311
REMARK UNBOUND:                 1.874
REMARK  6 active torsions:
REMARK  status: ('A' for Active; 'I' for Inactive)
REMARK    1  A    between atoms: C_13  and  C_16 
REMARK    2  A    between atoms: C_14  and  C_17 
REMARK    3  A    between atoms: C_15  and  C_18 
REMARK    4  A    between atoms: C_19  and  C_22 
REMARK    5  A    between atoms: C_20  and  C_23 
REMARK    6  A    between atoms: C_21  and  C_24 
ROOT
HETATM    1  O   UNL     1      40.524  45.660  45.193  1.00  0.00    -0.304 OA
HETATM    2  O   UNL     1      43.182  41.326  46.160  1.00  0.00    -0.304 OA
HETATM    3  O   UNL     1      40.646  43.089  49.740  1.00  0.00    -0.304 OA
HETATM    4  O   UNL     1      40.104  43.116  45.459  1.00  0.00    -0.270 OA
HETATM    5  O   UNL     1      38.530  44.273  47.663  1.00  0.00    -0.270 OA
HETATM    6  O   UNL     1      42.912  39.756  48.983  1.00  0.00    -0.270 OA
HETATM    7  O   UNL     1      42.229  45.723  46.745  1.00  0.00    -0.263 OA
HETATM    8  O   UNL     1      41.972  39.367  46.198  1.00  0.00    -0.263 OA
HETATM    9  O   UNL     1      40.731  42.798  52.016  1.00  0.00    -0.263 OA
HETATM   10  N   UNL     1      41.860  42.381  44.145  1.00  0.00    -0.340 N 
HETATM   11  N   UNL     1      40.039  45.794  48.555  1.00  0.00    -0.340 N 
HETATM   12  N   UNL     1      43.081  42.056  49.289  1.00  0.00    -0.340 N 
HETATM   13  C   UNL     1      41.527  40.974  44.455  1.00  0.00     0.190 C 
HETATM   14  C   UNL     1      40.023  46.583  47.306  1.00  0.00     0.190 C 
HETATM   15  C   UNL     1      42.571  41.990  50.675  1.00  0.00     0.190 C 
HETATM   16  C   UNL     1      41.303  44.833  44.301  1.00  0.00     0.227 C 
HETATM   17  C   UNL     1      44.049  40.969  47.250  1.00  0.00     0.227 C 
HETATM   18  C   UNL     1      39.368  43.745  49.840  1.00  0.00     0.227 C 
HETATM   19  C   UNL     1      41.037  43.376  44.691  1.00  0.00     0.250 C 
HETATM   20  C   UNL     1      39.266  44.619  48.592  1.00  0.00     0.250 C 
HETATM   21  C   UNL     1      43.287  40.860  48.579  1.00  0.00     0.250 C 
HETATM   22  C   UNL     1      41.076  45.957  46.407  1.00  0.00     0.283 C 
HETATM   23  C   UNL     1      42.232  40.462  45.710  1.00  0.00     0.283 C 
HETATM   24  C   UNL     1      41.227  42.678  50.901  1.00  0.00     0.283 C 
HETATM   25  C   UNL     1      43.045  42.639  43.323  1.00  0.00     0.153 C 
HETATM   26  C   UNL     1      40.885  46.269  49.654  1.00  0.00     0.153 C 
HETATM   27  C   UNL     1      43.514  43.362  48.789  1.00  0.00     0.153 C 
ENDROOT
BRANCH  16  28
HETATM   28  C   UNL     1      40.804  45.113  42.892  1.00  0.00     0.016 C 
HETATM   29  C   UNL     1      39.303  45.401  42.898  1.00  0.00     0.012 C 
HETATM   30  C   UNL     1      41.569  46.280  42.269  1.00  0.00     0.012 C 
ENDBRANCH  16  28
BRANCH  14  31
HETATM   31  C   UNL     1      40.281  48.077  47.456  1.00  0.00     0.010 C 
HETATM   32  C   UNL     1      40.857  48.655  46.165  1.00  0.00     0.012 C 
HETATM   33  C   UNL     1      38.998  48.807  47.844  1.00  0.00     0.012 C 
ENDBRANCH  14  31
BRANCH  13  34
HETATM   34  C   UNL     1      41.779  40.012  43.295  1.00  0.00     0.010 C 
HETATM   35  C   UNL     1      41.287  40.613  41.979  1.00  0.00     0.012 C 
HETATM   36  C   UNL     1      41.104  38.666  43.552  1.00  0.00     0.012 C 
ENDBRANCH  13  34
BRANCH  18  37
HETATM   37  C   UNL     1      38.274  42.681  49.873  1.00  0.00     0.016 C 
HETATM   38  C   UNL     1      38.886  41.280  49.898  1.00  0.00     0.012 C 
HETATM   39  C   UNL     1      37.357  42.885  51.077  1.00  0.00     0.012 C 
ENDBRANCH  18  37
BRANCH  17  40
HETATM   40  C   UNL     1      44.869  39.717  46.936  1.00  0.00     0.016 C 
HETATM   41  C   UNL     1      46.024  39.570  47.924  1.00  0.00     0.012 C 
HETATM   42  C   UNL     1      45.392  39.763  45.502  1.00  0.00     0.012 C 
ENDBRANCH  17  40
BRANCH  15  43
HETATM   43  C   UNL     1      43.610  42.503  51.674  1.00  0.00     0.010 C 
HETATM   44  C   UNL     1      43.259  43.917  52.129  1.00  0.00     0.012 C 
HETATM   45  C   UNL     1      43.711  41.561  52.870  1.00  0.00     0.012 C 
ENDBRANCH  15  43
TORSDOF 6
ENDMDL
