MODEL 1
REMARK VINA RESULT:    -5.927      0.000      0.000
REMARK INTER + INTRA:          -7.276
REMARK INTER:                  -8.005
REMARK INTRA:                   0.730
REMARK UNBOUND:                 0.730
REMARK  6 active torsions:
REMARK  status: ('A' for Active; 'I' for Inactive)
REMARK    1  A    between atoms: C_13  and  C_16 
REMARK    2  A    between atoms: C_14  and  C_17 
REMARK    3  A    between atoms: C_15  and  C_18 
REMARK    4  A    between atoms: C_19  and  C_22 
REMARK    5  A    between atoms: C_20  and  C_23 
REMARK    6  A    between atoms: C_21  and  C_24 
ROOT
HETATM    1  O   UNL     1       9.829  28.659  47.677  1.00  0.00    -0.304 OA
HETATM    2  O   UNL     1      12.745  24.393  47.953  1.00  0.00    -0.304 OA
HETATM    3  O   UNL     1      12.519  27.050  51.858  1.00  0.00    -0.304 OA
HETATM    4  O   UNL     1       9.720  26.266  48.668  1.00  0.00    -0.270 OA
HETATM    5  O   UNL     1       9.567  27.973  51.063  1.00  0.00    -0.270 OA
HETATM    6  O   UNL     1      14.125  23.449  50.730  1.00  0.00    -0.270 OA
HETATM    7  O   UNL     1      12.101  28.883  48.001  1.00  0.00    -0.263 OA
HETATM    8  O   UNL     1      11.829  22.594  49.061  1.00  0.00    -0.263 OA
HETATM    9  O   UNL     1      13.847  27.214  53.724  1.00  0.00    -0.263 OA
HETATM   10  N   UNL     1      10.496  25.133  46.807  1.00  0.00    -0.340 N 
HETATM   11  N   UNL     1      11.259  29.505  50.643  1.00  0.00    -0.340 N 
HETATM   12  N   UNL     1      14.346  25.740  50.394  1.00  0.00    -0.340 N 
HETATM   13  C   UNL     1      10.442  23.851  47.541  1.00  0.00     0.190 C 
HETATM   14  C   UNL     1      10.531  30.026  49.468  1.00  0.00     0.190 C 
HETATM   15  C   UNL     1      14.682  25.997  51.810  1.00  0.00     0.190 C 
HETATM   16  C   UNL     1      10.023  27.606  46.709  1.00  0.00     0.227 C 
HETATM   17  C   UNL     1      14.080  24.187  48.446  1.00  0.00     0.227 C 
HETATM   18  C   UNL     1      11.480  27.820  52.491  1.00  0.00     0.227 C 
HETATM   19  C   UNL     1      10.069  26.285  47.482  1.00  0.00     0.250 C 
HETATM   20  C   UNL     1      10.678  28.433  51.344  1.00  0.00     0.250 C 
HETATM   21  C   UNL     1      14.175  24.413  49.962  1.00  0.00     0.250 C 
HETATM   22  C   UNL     1      10.944  29.144  48.302  1.00  0.00     0.283 C 
HETATM   23  C   UNL     1      11.737  23.542  48.288  1.00  0.00     0.283 C 
HETATM   24  C   UNL     1      13.655  26.831  52.575  1.00  0.00     0.283 C 
HETATM   25  C   UNL     1      11.027  25.118  45.441  1.00  0.00     0.153 C 
HETATM   26  C   UNL     1      12.549  30.115  50.976  1.00  0.00     0.153 C 
HETATM   27  C   UNL     1      14.385  26.877  49.472  1.00  0.00     0.153 C 
ENDROOT
BRANCH  16  28
HETATM   28  C   UNL     1       8.823  27.641  45.774  1.00  0.00     0.016 C 
HETATM   29  C   UNL     1       7.549  27.985  46.544  1.00  0.00     0.012 C 
HETATM   30  C   UNL     1       9.050  28.640  44.640  1.00  0.00     0.012 C 
ENDBRANCH  16  28
BRANCH  14  31
HETATM   31  C   UNL     1      10.773  31.492  49.129  1.00  0.00     0.010 C 
HETATM   32  C   UNL     1      10.588  31.735  47.633  1.00  0.00     0.012 C 
HETATM   33  C   UNL     1       9.840  32.391  49.938  1.00  0.00     0.012 C 
ENDBRANCH  14  31
BRANCH  13  34
HETATM   34  C   UNL     1      10.053  22.658  46.668  1.00  0.00     0.010 C 
HETATM   35  C   UNL     1       8.879  21.899  47.285  1.00  0.00     0.012 C 
HETATM   36  C   UNL     1      11.245  21.725  46.465  1.00  0.00     0.012 C 
ENDBRANCH  13  34
BRANCH  18  37
HETATM   37  C   UNL     1      10.624  26.883  53.339  1.00  0.00     0.016 C 
HETATM   38  C   UNL     1      10.959  25.423  53.032  1.00  0.00     0.012 C 
HETATM   39  C   UNL     1      10.815  27.174  54.826  1.00  0.00     0.012 C 
ENDBRANCH  18  37
BRANCH  17  40
HETATM   40  C   UNL     1      14.642  22.832  48.015  1.00  0.00     0.016 C 
HETATM   41  C   UNL     1      16.049  22.632  48.572  1.00  0.00     0.012 C 
HETATM   42  C   UNL     1      14.645  22.712  46.492  1.00  0.00     0.012 C 
ENDBRANCH  17  40
BRANCH  15  43
HETATM   43  C   UNL     1      16.077  26.607  51.949  1.00  0.00     0.010 C 
HETATM   44  C   UNL     1      15.983  28.122  52.118  1.00  0.00     0.012 C 
HETATM   45  C   UNL     1      16.820  25.979  53.123  1.00  0.00     0.012 C 
ENDBRANCH  15  43
TORSDOF 6
ENDMDL
MODEL 2
REMARK VINA RESULT:    -5.917      3.346      8.081
REMARK INTER + INTRA:          -7.262
REMARK INTER:                  -7.955
REMARK INTRA:                   0.693
REMARK UNBOUND:                 0.730
REMARK  6 active torsions:
REMARK  status: ('A' for Active; 'I' for Inactive)
REMARK    1  A    between atoms: C_13  and  C_16 
REMARK    2  A    between atoms: C_14  and  C_17 
REMARK    3  A    between atoms: C_15  and  C_18 
REMARK    4  A    between atoms: C_19  and  C_22 
REMARK    5  A    between atoms: C_20  and  C_23 
REMARK    6  A    between atoms: C_21  and  C_24 
ROOT
HETATM    1  O   UNL     1       9.745  26.052  45.674  1.00  0.00    -0.304 OA
HETATM    2  O   UNL     1       6.446  30.039  45.747  1.00  0.00    -0.304 OA
HETATM    3  O   UNL     1       9.306  29.599  49.485  1.00  0.00    -0.304 OA
HETATM    4  O   UNL     1       9.756  28.618  45.307  1.00  0.00    -0.270 OA
HETATM    5  O   UNL     1      11.541  28.281  47.625  1.00  0.00    -0.270 OA
HETATM    6  O   UNL     1       6.518  32.268  48.099  1.00  0.00    -0.270 OA
HETATM    7  O   UNL     1       8.105  26.111  47.294  1.00  0.00    -0.263 OA
HETATM    8  O   UNL     1       7.325  32.108  45.250  1.00  0.00    -0.263 OA
HETATM    9  O   UNL     1       9.224  30.417  51.630  1.00  0.00    -0.263 OA
HETATM   10  N   UNL     1       7.878  28.740  43.963  1.00  0.00    -0.340 N 
HETATM   11  N   UNL     1      10.316  26.812  48.938  1.00  0.00    -0.340 N 
HETATM   12  N   UNL     1       6.728  30.113  48.948  1.00  0.00    -0.340 N 
HETATM   13  C   UNL     1       7.986  30.214  43.912  1.00  0.00     0.190 C 
HETATM   14  C   UNL     1      10.432  25.756  47.911  1.00  0.00     0.190 C 
HETATM   15  C   UNL     1       7.249  30.589  50.247  1.00  0.00     0.190 C 
HETATM   16  C   UNL     1       8.824  26.512  44.660  1.00  0.00     0.227 C 
HETATM   17  C   UNL     1       5.555  30.514  46.771  1.00  0.00     0.227 C 
HETATM   18  C   UNL     1      10.675  29.188  49.661  1.00  0.00     0.227 C 
HETATM   19  C   UNL     1       8.861  28.042  44.678  1.00  0.00     0.250 C 
HETATM   20  C   UNL     1      10.890  28.064  48.651  1.00  0.00     0.250 C 
HETATM   21  C   UNL     1       6.317  31.055  47.989  1.00  0.00     0.250 C 
HETATM   22  C   UNL     1       9.273  25.979  46.954  1.00  0.00     0.283 C 
HETATM   23  C   UNL     1       7.234  30.902  45.050  1.00  0.00     0.283 C 
HETATM   24  C   UNL     1       8.691  30.187  50.549  1.00  0.00     0.283 C 
HETATM   25  C   UNL     1       6.732  28.114  43.297  1.00  0.00     0.153 C 
HETATM   26  C   UNL     1       9.581  26.495  50.166  1.00  0.00     0.153 C 
HETATM   27  C   UNL     1       6.500  28.675  48.797  1.00  0.00     0.153 C 
ENDROOT
BRANCH  16  28
HETATM   28  C   UNL     1       9.333  25.977  43.329  1.00  0.00     0.016 C 
HETATM   29  C   UNL     1      10.761  25.452  43.469  1.00  0.00     0.012 C 
HETATM   30  C   UNL     1       8.409  24.881  42.799  1.00  0.00     0.012 C 
ENDBRANCH  16  28
BRANCH  14  31
HETATM   31  C   UNL     1      10.421  24.321  48.425  1.00  0.00     0.010 C 
HETATM   32  C   UNL     1      10.030  23.354  47.309  1.00  0.00     0.012 C 
HETATM   33  C   UNL     1      11.783  23.948  49.005  1.00  0.00     0.012 C 
ENDBRANCH  14  31
BRANCH  13  34
HETATM   34  C   UNL     1       7.558  30.817  42.574  1.00  0.00     0.010 C 
HETATM   35  C   UNL     1       8.674  31.685  41.993  1.00  0.00     0.012 C 
HETATM   36  C   UNL     1       6.276  31.631  42.733  1.00  0.00     0.012 C 
ENDBRANCH  13  34
BRANCH  18  37
HETATM   37  C   UNL     1      11.584  30.382  49.378  1.00  0.00     0.016 C 
HETATM   38  C   UNL     1      10.787  31.531  48.761  1.00  0.00     0.012 C 
HETATM   39  C   UNL     1      12.286  30.842  50.654  1.00  0.00     0.012 C 
ENDBRANCH  18  37
BRANCH  17  40
HETATM   40  C   UNL     1       4.538  31.514  46.220  1.00  0.00     0.016 C 
HETATM   41  C   UNL     1       3.640  32.039  47.338  1.00  0.00     0.012 C 
HETATM   42  C   UNL     1       3.700  30.874  45.115  1.00  0.00     0.012 C 
ENDBRANCH  17  40
BRANCH  15  43
HETATM   43  C   UNL     1       6.328  30.182  51.398  1.00  0.00     0.010 C 
HETATM   44  C   UNL     1       6.934  29.021  52.182  1.00  0.00     0.012 C 
HETATM   45  C   UNL     1       6.064  31.372  52.315  1.00  0.00     0.012 C 
ENDBRANCH  15  43
TORSDOF 6
ENDMDL
MODEL 3
REMARK VINA RESULT:    -5.627      2.898      6.084
REMARK INTER + INTRA:          -6.870
REMARK INTER:                  -8.420
REMARK INTRA:                   1.549
REMARK UNBOUND:                 0.730
REMARK  6 active torsions:
REMARK  status: ('A' for Active; 'I' for Inactive)
REMARK    1  A    between atoms: C_13  and  C_16 
REMARK    2  A    between atoms: C_14  and  C_17 
REMARK    3  A    between atoms: C_15  and  C_18 
REMARK    4  A    between atoms: C_19  and  C_22 
REMARK    5  A    between atoms: C_20  and  C_23 
REMARK    6  A    between atoms: C_21  and  C_24 
ROOT
HETATM    1  O   UNL     1       7.863  27.473  43.279  1.00  0.00    -0.304 OA
HETATM    2  O   UNL     1      10.830  26.770  47.461  1.00  0.00    -0.304 OA
HETATM    3  O   UNL     1       7.235  29.808  47.911  1.00  0.00    -0.304 OA
HETATM    4  O   UNL     1       7.789  26.235  45.555  1.00  0.00    -0.270 OA
HETATM    5  O   UNL     1       5.552  28.138  45.773  1.00  0.00    -0.270 OA
HETATM    6  O   UNL     1      10.107  28.131  50.312  1.00  0.00    -0.270 OA
HETATM    7  O   UNL     1       9.093  29.251  44.083  1.00  0.00    -0.263 OA
HETATM    8  O   UNL     1       9.968  25.422  49.116  1.00  0.00    -0.263 OA
HETATM    9  O   UNL     1       6.789  31.503  49.395  1.00  0.00    -0.263 OA
HETATM   10  N   UNL     1       9.910  25.317  45.470  1.00  0.00    -0.340 N 
HETATM   11  N   UNL     1       6.534  30.090  44.993  1.00  0.00    -0.340 N 
HETATM   12  N   UNL     1       9.835  29.626  48.551  1.00  0.00    -0.340 N 
HETATM   13  C   UNL     1       9.733  24.733  46.817  1.00  0.00     0.190 C 
HETATM   14  C   UNL     1       6.711  29.498  43.651  1.00  0.00     0.190 C 
HETATM   15  C   UNL     1       9.010  30.550  49.356  1.00  0.00     0.190 C 
HETATM   16  C   UNL     1       8.960  26.558  43.494  1.00  0.00     0.227 C 
HETATM   17  C   UNL     1      11.440  27.712  48.360  1.00  0.00     0.227 C 
HETATM   18  C   UNL     1       5.887  29.852  47.406  1.00  0.00     0.227 C 
HETATM   19  C   UNL     1       8.833  26.031  44.926  1.00  0.00     0.250 C 
HETATM   20  C   UNL     1       5.969  29.280  45.993  1.00  0.00     0.250 C 
HETATM   21  C   UNL     1      10.395  28.494  49.168  1.00  0.00     0.250 C 
HETATM   22  C   UNL     1       8.039  28.763  43.695  1.00  0.00     0.283 C 
HETATM   23  C   UNL     1      10.170  25.679  47.934  1.00  0.00     0.283 C 
HETATM   24  C   UNL     1       7.562  30.694  48.892  1.00  0.00     0.283 C 
HETATM   25  C   UNL     1      11.209  25.144  44.814  1.00  0.00     0.153 C 
HETATM   26  C   UNL     1       6.992  31.468  45.199  1.00  0.00     0.153 C 
HETATM   27  C   UNL     1      10.172  30.035  47.186  1.00  0.00     0.153 C 
ENDROOT
BRANCH  16  28
HETATM   28  C   UNL     1       8.793  25.428  42.488  1.00  0.00     0.016 C 
HETATM   29  C   UNL     1       7.416  25.491  41.829  1.00  0.00     0.012 C 
HETATM   30  C   UNL     1       9.895  25.479  41.430  1.00  0.00     0.012 C 
ENDBRANCH  16  28
BRANCH  14  31
HETATM   31  C   UNL     1       6.688  30.474  42.481  1.00  0.00     0.010 C 
HETATM   32  C   UNL     1       8.065  31.101  42.279  1.00  0.00     0.012 C 
HETATM   33  C   UNL     1       6.226  29.773  41.206  1.00  0.00     0.012 C 
ENDBRANCH  14  31
BRANCH  13  34
HETATM   34  C   UNL     1      10.413  23.377  46.994  1.00  0.00     0.010 C 
HETATM   35  C   UNL     1       9.425  22.344  47.535  1.00  0.00     0.012 C 
HETATM   36  C   UNL     1      11.623  23.495  47.919  1.00  0.00     0.012 C 
ENDBRANCH  13  34
BRANCH  18  37
HETATM   37  C   UNL     1       4.999  29.001  48.310  1.00  0.00     0.016 C 
HETATM   38  C   UNL     1       5.848  28.175  49.277  1.00  0.00     0.012 C 
HETATM   39  C   UNL     1       4.012  29.877  49.078  1.00  0.00     0.012 C 
ENDBRANCH  18  37
BRANCH  17  40
HETATM   40  C   UNL     1      12.497  27.050  49.245  1.00  0.00     0.016 C 
HETATM   41  C   UNL     1      13.108  28.068  50.205  1.00  0.00     0.012 C 
HETATM   42  C   UNL     1      13.582  26.398  48.390  1.00  0.00     0.012 C 
ENDBRANCH  17  40
BRANCH  15  43
HETATM   43  C   UNL     1       9.672  31.924  49.477  1.00  0.00     0.010 C 
HETATM   44  C   UNL     1       8.950  32.774  50.519  1.00  0.00     0.012 C 
HETATM   45  C   UNL     1      11.148  31.775  49.832  1.00  0.00     0.012 C 
ENDBRANCH  15  43
TORSDOF 6
ENDMDL
MODEL 4
REMARK VINA RESULT:    -5.260     13.910     17.358
REMARK INTER + INTRA:          -6.374
REMARK INTER:                  -7.244
REMARK INTRA:                   0.870
REMARK UNBOUND:                 0.730
REMARK  6 active torsions:
REMARK  status: ('A' for Active; 'I' for Inactive)
REMARK    1  A    between atoms: C_13  and  C_16 
REMARK    2  A    between atoms: C_14  and  C_17 
REMARK    3  A    between atoms: C_15  and  C_18 
REMARK    4  A    between atoms: C_19  and  C_22 
REMARK    5  A    between atoms: C_20  and  C_23 
REMARK    6  A    between atoms: C_21  and  C_24 
ROOT
HETATM    1  O   UNL     1      24.171  32.988  57.191  1.00  0.00    -0.304 OA
HETATM    2  O   UNL     1      22.162  37.474  55.570  1.00  0.00    -0.304 OA
HETATM    3  O   UNL     1      20.278  35.611  59.486  1.00  0.00    -0.304 OA
HETATM    4  O   UNL     1      24.247  35.508  57.796  1.00  0.00    -0.270 OA
HETATM    5  O   UNL     1      23.091  34.289  60.215  1.00  0.00    -0.270 OA
HETATM    6  O   UNL     1      19.918  39.057  57.291  1.00  0.00    -0.270 OA
HETATM    7  O   UNL     1      21.972  33.037  56.499  1.00  0.00    -0.263 OA
HETATM    8  O   UNL     1      22.810  39.362  56.716  1.00  0.00    -0.263 OA
HETATM    9  O   UNL     1      18.280  35.931  60.571  1.00  0.00    -0.263 OA
HETATM   10  N   UNL     1      24.527  36.326  55.651  1.00  0.00    -0.340 N 
HETATM   11  N   UNL     1      21.506  32.864  59.298  1.00  0.00    -0.340 N 
HETATM   12  N   UNL     1      19.483  36.773  57.202  1.00  0.00    -0.340 N 
HETATM   13  C   UNL     1      24.479  37.715  56.153  1.00  0.00     0.190 C 
HETATM   14  C   UNL     1      22.564  32.062  58.649  1.00  0.00     0.190 C 
HETATM   15  C   UNL     1      18.544  36.825  58.342  1.00  0.00     0.190 C 
HETATM   16  C   UNL     1      24.581  33.848  56.105  1.00  0.00     0.227 C 
HETATM   17  C   UNL     1      20.799  37.890  55.386  1.00  0.00     0.227 C 
HETATM   18  C   UNL     1      20.810  34.886  60.611  1.00  0.00     0.227 C 
HETATM   19  C   UNL     1      24.433  35.292  56.593  1.00  0.00     0.250 C 
HETATM   20  C   UNL     1      21.906  33.995  60.033  1.00  0.00     0.250 C 
HETATM   21  C   UNL     1      20.037  37.970  56.717  1.00  0.00     0.250 C 
HETATM   22  C   UNL     1      22.834  32.736  57.314  1.00  0.00     0.283 C 
HETATM   23  C   UNL     1      23.060  38.279  56.199  1.00  0.00     0.283 C 
HETATM   24  C   UNL     1      18.998  36.066  59.587  1.00  0.00     0.283 C 
HETATM   25  C   UNL     1      24.632  36.125  54.203  1.00  0.00     0.153 C 
HETATM   26  C   UNL     1      20.114  32.449  59.101  1.00  0.00     0.153 C 
HETATM   27  C   UNL     1      19.648  35.488  56.520  1.00  0.00     0.153 C 
ENDROOT
BRANCH  16  28
HETATM   28  C   UNL     1      26.039  33.526  55.814  1.00  0.00     0.016 C 
HETATM   29  C   UNL     1      26.601  32.570  56.866  1.00  0.00     0.012 C 
HETATM   30  C   UNL     1      26.192  32.929  54.415  1.00  0.00     0.012 C 
ENDBRANCH  16  28
BRANCH  14  31
HETATM   31  C   UNL     1      22.249  30.586  58.438  1.00  0.00     0.010 C 
HETATM   32  C   UNL     1      23.129  30.001  57.337  1.00  0.00     0.012 C 
HETATM   33  C   UNL     1      22.429  29.808  59.739  1.00  0.00     0.012 C 
ENDBRANCH  14  31
BRANCH  13  34
HETATM   34  C   UNL     1      25.391  38.677  55.393  1.00  0.00     0.010 C 
HETATM   35  C   UNL     1      26.220  39.516  56.365  1.00  0.00     0.012 C 
HETATM   36  C   UNL     1      24.576  39.580  54.469  1.00  0.00     0.012 C 
ENDBRANCH  13  34
BRANCH  18  37
HETATM   37  C   UNL     1      21.370  35.889  61.617  1.00  0.00     0.016 C 
HETATM   38  C   UNL     1      21.440  37.287  61.002  1.00  0.00     0.012 C 
HETATM   39  C   UNL     1      20.527  35.906  62.890  1.00  0.00     0.012 C 
ENDBRANCH  18  37
BRANCH  17  40
HETATM   40  C   UNL     1      20.704  39.182  54.573  1.00  0.00     0.016 C 
HETATM   41  C   UNL     1      19.246  39.602  54.399  1.00  0.00     0.012 C 
HETATM   42  C   UNL     1      21.379  39.012  53.214  1.00  0.00     0.012 C 
ENDBRANCH  17  40
BRANCH  15  43
HETATM   43  C   UNL     1      17.140  36.382  57.927  1.00  0.00     0.010 C 
HETATM   44  C   UNL     1      16.088  37.038  58.818  1.00  0.00     0.012 C 
HETATM   45  C   UNL     1      16.887  36.715  56.460  1.00  0.00     0.012 C 
ENDBRANCH  15  43
TORSDOF 6
ENDMDL
MODEL 5
REMARK VINA RESULT:    -5.259      3.158      8.434
REMARK INTER + INTRA:          -6.374
REMARK INTER:                  -7.189
REMARK INTRA:                   0.815
REMARK UNBOUND:                 0.730
REMARK  6 active torsions:
REMARK  status: ('A' for Active; 'I' for Inactive)
REMARK    1  A    between atoms: C_13  and  C_16 
REMARK    2  A    between atoms: C_14  and  C_17 
REMARK    3  A    between atoms: C_15  and  C_18 
REMARK    4  A    between atoms: C_19  and  C_22 
REMARK    5  A    between atoms: C_20  and  C_23 
REMARK    6  A    between atoms: C_21  and  C_24 
ROOT
HETATM    1  O   UNL     1      10.719  24.175  44.118  1.00  0.00    -0.304 OA
HETATM    2  O   UNL     1      10.835  28.063  47.531  1.00  0.00    -0.304 OA
HETATM    3  O   UNL     1       6.805  27.486  45.126  1.00  0.00    -0.304 OA
HETATM    4  O   UNL     1       9.836  24.734  46.490  1.00  0.00    -0.270 OA
HETATM    5  O   UNL     1       7.359  24.347  44.944  1.00  0.00    -0.270 OA
HETATM    6  O   UNL     1       8.202  29.839  48.181  1.00  0.00    -0.270 OA
HETATM    7  O   UNL     1      10.537  26.340  43.345  1.00  0.00    -0.263 OA
HETATM    8  O   UNL     1       9.754  27.705  49.532  1.00  0.00    -0.263 OA
HETATM    9  O   UNL     1       5.025  28.871  44.690  1.00  0.00    -0.263 OA
HETATM   10  N   UNL     1      11.794  25.622  47.341  1.00  0.00    -0.340 N 
HETATM   11  N   UNL     1       7.818  25.573  43.028  1.00  0.00    -0.340 N 
HETATM   12  N   UNL     1       8.446  29.464  45.898  1.00  0.00    -0.340 N 
HETATM   13  C   UNL     1      11.119  25.940  48.617  1.00  0.00     0.190 C 
HETATM   14  C   UNL     1       8.918  24.653  42.671  1.00  0.00     0.190 C 
HETATM   15  C   UNL     1       7.045  29.832  45.606  1.00  0.00     0.190 C 
HETATM   16  C   UNL     1      11.746  24.549  45.062  1.00  0.00     0.227 C 
HETATM   17  C   UNL     1      10.442  29.441  47.412  1.00  0.00     0.227 C 
HETATM   18  C   UNL     1       6.069  26.340  44.657  1.00  0.00     0.227 C 
HETATM   19  C   UNL     1      11.040  24.977  46.351  1.00  0.00     0.250 C 
HETATM   20  C   UNL     1       7.131  25.329  44.231  1.00  0.00     0.250 C 
HETATM   21  C   UNL     1       8.927  29.592  47.213  1.00  0.00     0.250 C 
HETATM   22  C   UNL     1      10.148  25.180  43.389  1.00  0.00     0.283 C 
HETATM   23  C   UNL     1      10.474  27.324  48.615  1.00  0.00     0.283 C 
HETATM   24  C   UNL     1       6.176  28.693  45.076  1.00  0.00     0.283 C 
HETATM   25  C   UNL     1      13.192  26.035  47.184  1.00  0.00     0.153 C 
HETATM   26  C   UNL     1       7.544  26.695  42.126  1.00  0.00     0.153 C 
HETATM   27  C   UNL     1       9.315  29.152  44.761  1.00  0.00     0.153 C 
ENDROOT
BRANCH  16  28
HETATM   28  C   UNL     1      12.597  23.310  45.300  1.00  0.00     0.016 C 
HETATM   29  C   UNL     1      12.069  22.128  44.488  1.00  0.00     0.012 C 
HETATM   30  C   UNL     1      14.060  23.584  44.955  1.00  0.00     0.012 C 
ENDBRANCH  16  28
BRANCH  14  31
HETATM   31  C   UNL     1       9.203  24.500  41.182  1.00  0.00     0.010 C 
HETATM   32  C   UNL     1      10.576  23.868  40.961  1.00  0.00     0.012 C 
HETATM   33  C   UNL     1       8.115  23.667  40.510  1.00  0.00     0.012 C 
ENDBRANCH  14  31
BRANCH  13  34
HETATM   34  C   UNL     1      12.018  25.792  49.843  1.00  0.00     0.010 C 
HETATM   35  C   UNL     1      11.359  24.894  50.890  1.00  0.00     0.012 C 
HETATM   36  C   UNL     1      12.346  27.158  50.442  1.00  0.00     0.012 C 
ENDBRANCH  13  34
BRANCH  18  37
HETATM   37  C   UNL     1       5.211  25.809  45.801  1.00  0.00     0.016 C 
HETATM   38  C   UNL     1       5.610  26.464  47.124  1.00  0.00     0.012 C 
HETATM   39  C   UNL     1       3.728  26.038  45.517  1.00  0.00     0.012 C 
ENDBRANCH  18  37
BRANCH  17  40
HETATM   40  C   UNL     1      10.972  30.285  48.572  1.00  0.00     0.016 C 
HETATM   41  C   UNL     1      10.502  31.732  48.442  1.00  0.00     0.012 C 
HETATM   42  C   UNL     1      12.496  30.219  48.632  1.00  0.00     0.012 C 
ENDBRANCH  17  40
BRANCH  15  43
HETATM   43  C   UNL     1       6.971  31.040  44.672  1.00  0.00     0.010 C 
HETATM   44  C   UNL     1       6.719  30.590  43.235  1.00  0.00     0.012 C 
HETATM   45  C   UNL     1       5.883  32.005  45.133  1.00  0.00     0.012 C 
ENDBRANCH  15  43
TORSDOF 6
ENDMDL
MODEL 6
REMARK VINA RESULT:    -5.248      2.019      6.602
REMARK INTER + INTRA:          -6.359
REMARK INTER:                  -7.174
REMARK INTRA:                   0.815
REMARK UNBOUND:                 0.730
REMARK  6 active torsions:
REMARK  status: ('A' for Active; 'I' for Inactive)
REMARK    1  A    between atoms: C_13  and  C_16 
REMARK    2  A    between atoms: C_14  and  C_17 
REMARK    3  A    between atoms: C_15  and  C_18 
REMARK    4  A    between atoms: C_19  and  C_22 
REMARK    5  A    between atoms: C_20  and  C_23 
REMARK    6  A    between atoms: C_21  and  C_24 
ROOT
HETATM    1  O   UNL     1      10.437  27.848  54.056  1.00  0.00    -0.304 OA
HETATM    2  O   UNL     1      13.249  25.031  50.748  1.00  0.00    -0.304 OA
HETATM    3  O   UNL     1      10.566  28.440  48.866  1.00  0.00    -0.304 OA
HETATM    4  O   UNL     1      12.605  28.054  52.650  1.00  0.00    -0.270 OA
HETATM    5  O   UNL     1      10.895  30.172  51.528  1.00  0.00    -0.270 OA
HETATM    6  O   UNL     1      13.373  25.736  47.587  1.00  0.00    -0.270 OA
HETATM    7  O   UNL     1       9.346  26.530  52.510  1.00  0.00    -0.263 OA
HETATM    8  O   UNL     1      15.164  26.015  49.933  1.00  0.00    -0.263 OA
HETATM    9  O   UNL     1       9.762  28.815  46.748  1.00  0.00    -0.263 OA
HETATM   10  N   UNL     1      13.508  25.992  53.183  1.00  0.00    -0.340 N 
HETATM   11  N   UNL     1       8.877  29.053  51.287  1.00  0.00    -0.340 N 
HETATM   12  N   UNL     1      11.203  25.873  48.415  1.00  0.00    -0.340 N 
HETATM   13  C   UNL     1      14.652  26.238  52.279  1.00  0.00     0.190 C 
HETATM   14  C   UNL     1       8.766  28.881  52.750  1.00  0.00     0.190 C 
HETATM   15  C   UNL     1      10.724  26.658  47.258  1.00  0.00     0.190 C 
HETATM   16  C   UNL     1      11.414  26.817  54.316  1.00  0.00     0.227 C 
HETATM   17  C   UNL     1      12.894  24.385  49.513  1.00  0.00     0.227 C 
HETATM   18  C   UNL     1      10.197  29.770  49.276  1.00  0.00     0.227 C 
HETATM   19  C   UNL     1      12.552  27.010  53.310  1.00  0.00     0.250 C 
HETATM   20  C   UNL     1      10.028  29.691  50.792  1.00  0.00     0.250 C 
HETATM   21  C   UNL     1      12.526  25.399  48.420  1.00  0.00     0.250 C 
HETATM   22  C   UNL     1       9.519  27.602  53.075  1.00  0.00     0.283 C 
HETATM   23  C   UNL     1      14.387  25.769  50.849  1.00  0.00     0.283 C 
HETATM   24  C   UNL     1      10.281  28.082  47.584  1.00  0.00     0.283 C 
HETATM   25  C   UNL     1      13.432  24.691  53.853  1.00  0.00     0.153 C 
HETATM   26  C   UNL     1       7.799  28.515  50.451  1.00  0.00     0.153 C 
HETATM   27  C   UNL     1      10.215  25.478  49.421  1.00  0.00     0.153 C 
ENDROOT
BRANCH  16  28
HETATM   28  C   UNL     1      11.912  27.029  55.738  1.00  0.00     0.016 C 
HETATM   29  C   UNL     1      11.839  28.507  56.120  1.00  0.00     0.012 C 
HETATM   30  C   UNL     1      11.108  26.182  56.724  1.00  0.00     0.012 C 
ENDBRANCH  16  28
BRANCH  14  31
HETATM   31  C   UNL     1       7.350  28.815  53.310  1.00  0.00     0.010 C 
HETATM   32  C   UNL     1       7.370  28.358  54.767  1.00  0.00     0.012 C 
HETATM   33  C   UNL     1       6.659  30.170  53.182  1.00  0.00     0.012 C 
ENDBRANCH  14  31
BRANCH  13  34
HETATM   34  C   UNL     1      15.970  25.647  52.778  1.00  0.00     0.010 C 
HETATM   35  C   UNL     1      17.113  26.645  52.592  1.00  0.00     0.012 C 
HETATM   36  C   UNL     1      16.282  24.336  52.060  1.00  0.00     0.012 C 
ENDBRANCH  13  34
BRANCH  18  37
HETATM   37  C   UNL     1      11.316  30.731  48.883  1.00  0.00     0.016 C 
HETATM   38  C   UNL     1      12.614  29.968  48.621  1.00  0.00     0.012 C 
HETATM   39  C   UNL     1      10.920  31.549  47.656  1.00  0.00     0.012 C 
ENDBRANCH  18  37
BRANCH  17  40
HETATM   40  C   UNL     1      13.966  23.394  49.063  1.00  0.00     0.016 C 
HETATM   41  C   UNL     1      13.603  22.787  47.709  1.00  0.00     0.012 C 
HETATM   42  C   UNL     1      14.157  22.297  50.108  1.00  0.00     0.012 C 
ENDBRANCH  17  40
BRANCH  15  43
HETATM   43  C   UNL     1       9.623  25.915  46.500  1.00  0.00     0.010 C 
HETATM   44  C   UNL     1       8.261  26.541  46.788  1.00  0.00     0.012 C 
HETATM   45  C   UNL     1       9.911  25.917  45.002  1.00  0.00     0.012 C 
ENDBRANCH  15  43
TORSDOF 6
ENDMDL
MODEL 7
REMARK VINA RESULT:    -5.109      2.823      4.737
REMARK INTER + INTRA:          -6.171
REMARK INTER:                  -7.034
REMARK INTRA:                   0.863
REMARK UNBOUND:                 0.730
REMARK  6 active torsions:
REMARK  status: ('A' for Active; 'I' for Inactive)
REMARK    1  A    between atoms: C_13  and  C_16 
REMARK    2  A    between atoms: C_14  and  C_17 
REMARK    3  A    between atoms: C_15  and  C_18 
REMARK    4  A    between atoms: C_19  and  C_22 
REMARK    5  A    between atoms: C_20  and  C_23 
REMARK    6  A    between atoms: C_21  and  C_24 
ROOT
HETATM    1  O   UNL     1       6.835  28.210  44.735  1.00  0.00    -0.304 OA
HETATM    2  O   UNL     1      10.945  26.359  47.279  1.00  0.00    -0.304 OA
HETATM    3  O   UNL     1       8.067  29.215  49.713  1.00  0.00    -0.304 OA
HETATM    4  O   UNL     1       7.399  26.404  46.507  1.00  0.00    -0.270 OA
HETATM    5  O   UNL     1       5.589  28.210  47.968  1.00  0.00    -0.270 OA
HETATM    6  O   UNL     1      11.380  26.909  50.444  1.00  0.00    -0.270 OA
HETATM    7  O   UNL     1       8.450  29.686  45.465  1.00  0.00    -0.263 OA
HETATM    8  O   UNL     1      10.550  24.627  48.744  1.00  0.00    -0.263 OA
HETATM    9  O   UNL     1       8.336  30.453  51.628  1.00  0.00    -0.263 OA
HETATM   10  N   UNL     1       9.254  25.513  45.451  1.00  0.00    -0.340 N 
HETATM   11  N   UNL     1       6.457  30.286  47.400  1.00  0.00    -0.340 N 
HETATM   12  N   UNL     1      10.693  28.829  49.322  1.00  0.00    -0.340 N 
HETATM   13  C   UNL     1       9.479  24.589  46.583  1.00  0.00     0.190 C 
HETATM   14  C   UNL     1       6.104  30.075  45.981  1.00  0.00     0.190 C 
HETATM   15  C   UNL     1      10.295  29.513  50.570  1.00  0.00     0.190 C 
HETATM   16  C   UNL     1       7.833  27.254  44.313  1.00  0.00     0.227 C 
HETATM   17  C   UNL     1      11.921  27.014  48.107  1.00  0.00     0.227 C 
HETATM   18  C   UNL     1       6.641  29.414  49.747  1.00  0.00     0.227 C 
HETATM   19  C   UNL     1       8.140  26.362  45.519  1.00  0.00     0.250 C 
HETATM   20  C   UNL     1       6.178  29.244  48.302  1.00  0.00     0.250 C 
HETATM   21  C   UNL     1      11.303  27.564  49.400  1.00  0.00     0.250 C 
HETATM   22  C   UNL     1       7.281  29.336  45.368  1.00  0.00     0.283 C 
HETATM   23  C   UNL     1      10.368  25.191  47.670  1.00  0.00     0.283 C 
HETATM   24  C   UNL     1       8.801  29.798  50.700  1.00  0.00     0.283 C 
HETATM   25  C   UNL     1      10.228  25.503  44.356  1.00  0.00     0.153 C 
HETATM   26  C   UNL     1       7.105  31.550  47.764  1.00  0.00     0.153 C 
HETATM   27  C   UNL     1      10.593  29.586  48.073  1.00  0.00     0.153 C 
ENDROOT
BRANCH  16  28
HETATM   28  C   UNL     1       7.214  26.441  43.186  1.00  0.00     0.016 C 
HETATM   29  C   UNL     1       5.689  26.497  43.254  1.00  0.00     0.012 C 
HETATM   30  C   UNL     1       7.707  26.938  41.827  1.00  0.00     0.012 C 
ENDBRANCH  16  28
BRANCH  14  31
HETATM   31  C   UNL     1       5.794  31.331  45.176  1.00  0.00     0.010 C 
HETATM   32  C   UNL     1       6.104  31.112  43.697  1.00  0.00     0.012 C 
HETATM   33  C   UNL     1       4.336  31.743  45.362  1.00  0.00     0.012 C 
ENDBRANCH  14  31
BRANCH  13  34
HETATM   34  C   UNL     1      10.027  23.225  46.166  1.00  0.00     0.010 C 
HETATM   35  C   UNL     1       9.143  22.101  46.704  1.00  0.00     0.012 C 
HETATM   36  C   UNL     1      11.466  23.050  46.647  1.00  0.00     0.012 C 
ENDBRANCH  13  34
BRANCH  18  37
HETATM   37  C   UNL     1       6.023  28.364  50.665  1.00  0.00     0.016 C 
HETATM   38  C   UNL     1       7.049  27.288  51.020  1.00  0.00     0.012 C 
HETATM   39  C   UNL     1       5.467  29.012  51.931  1.00  0.00     0.012 C 
ENDBRANCH  18  37
BRANCH  17  40
HETATM   40  C   UNL     1      13.136  26.122  48.366  1.00  0.00     0.016 C 
HETATM   41  C   UNL     1      14.203  26.882  49.151  1.00  0.00     0.012 C 
HETATM   42  C   UNL     1      13.708  25.598  47.051  1.00  0.00     0.012 C 
ENDBRANCH  17  40
BRANCH  15  43
HETATM   43  C   UNL     1      11.105  30.793  50.784  1.00  0.00     0.010 C 
HETATM   44  C   UNL     1      12.597  30.514  50.623  1.00  0.00     0.012 C 
HETATM   45  C   UNL     1      10.652  31.880  49.814  1.00  0.00     0.012 C 
ENDBRANCH  15  43
TORSDOF 6
ENDMDL
MODEL 8
REMARK VINA RESULT:    -5.078      5.723      8.774
REMARK INTER + INTRA:          -6.129
REMARK INTER:                  -6.973
REMARK INTRA:                   0.844
REMARK UNBOUND:                 0.730
REMARK  6 active torsions:
REMARK  status: ('A' for Active; 'I' for Inactive)
REMARK    1  A    between atoms: C_13  and  C_16 
REMARK    2  A    between atoms: C_14  and  C_17 
REMARK    3  A    between atoms: C_15  and  C_18 
REMARK    4  A    between atoms: C_19  and  C_22 
REMARK    5  A    between atoms: C_20  and  C_23 
REMARK    6  A    between atoms: C_21  and  C_24 
ROOT
HETATM    1  O   UNL     1       2.419  33.028  50.433  1.00  0.00    -0.304 OA
HETATM    2  O   UNL     1       5.773  31.182  46.951  1.00  0.00    -0.304 OA
HETATM    3  O   UNL     1       6.707  30.235  51.488  1.00  0.00    -0.304 OA
HETATM    4  O   UNL     1       3.032  30.781  49.294  1.00  0.00    -0.270 OA
HETATM    5  O   UNL     1       3.581  30.244  52.137  1.00  0.00    -0.270 OA
HETATM    6  O   UNL     1       8.234  29.254  47.810  1.00  0.00    -0.270 OA
HETATM    7  O   UNL     1       4.586  33.817  50.448  1.00  0.00    -0.263 OA
HETATM    8  O   UNL     1       5.613  28.938  46.461  1.00  0.00    -0.263 OA
HETATM    9  O   UNL     1       8.617  29.609  52.600  1.00  0.00    -0.263 OA
HETATM   10  N   UNL     1       3.178  31.571  47.126  1.00  0.00    -0.340 N 
HETATM   11  N   UNL     1       4.751  32.153  52.746  1.00  0.00    -0.340 N 
HETATM   12  N   UNL     1       7.990  31.045  49.275  1.00  0.00    -0.340 N 
HETATM   13  C   UNL     1       3.588  30.235  46.645  1.00  0.00     0.190 C 
HETATM   14  C   UNL     1       3.563  32.994  52.496  1.00  0.00     0.190 C 
HETATM   15  C   UNL     1       8.807  30.402  50.325  1.00  0.00     0.190 C 
HETATM   16  C   UNL     1       2.368  33.059  48.990  1.00  0.00     0.227 C 
HETATM   17  C   UNL     1       7.209  31.227  46.901  1.00  0.00     0.227 C 
HETATM   18  C   UNL     1       5.898  29.923  52.638  1.00  0.00     0.227 C 
HETATM   19  C   UNL     1       2.890  31.710  48.491  1.00  0.00     0.250 C 
HETATM   20  C   UNL     1       4.640  30.776  52.486  1.00  0.00     0.250 C 
HETATM   21  C   UNL     1       7.850  30.407  48.030  1.00  0.00     0.250 C 
HETATM   22  C   UNL     1       3.610  33.350  51.020  1.00  0.00     0.283 C 
HETATM   23  C   UNL     1       5.100  30.029  46.688  1.00  0.00     0.283 C 
HETATM   24  C   UNL     1       8.051  30.048  51.604  1.00  0.00     0.283 C 
HETATM   25  C   UNL     1       3.137  32.666  46.152  1.00  0.00     0.153 C 
HETATM   26  C   UNL     1       5.973  32.816  53.212  1.00  0.00     0.153 C 
HETATM   27  C   UNL     1       7.513  32.406  49.528  1.00  0.00     0.153 C 
ENDROOT
BRANCH  16  28
HETATM   28  C   UNL     1       0.908  33.247  48.605  1.00  0.00     0.016 C 
HETATM   29  C   UNL     1      -0.011  32.807  49.744  1.00  0.00     0.012 C 
HETATM   30  C   UNL     1       0.631  34.702  48.227  1.00  0.00     0.012 C 
ENDBRANCH  16  28
BRANCH  14  31
HETATM   31  C   UNL     1       3.450  34.259  53.339  1.00  0.00     0.010 C 
HETATM   32  C   UNL     1       2.588  35.301  52.630  1.00  0.00     0.012 C 
HETATM   33  C   UNL     1       2.877  33.937  54.717  1.00  0.00     0.012 C 
ENDBRANCH  14  31
BRANCH  13  34
HETATM   34  C   UNL     1       3.061  29.892  45.252  1.00  0.00     0.010 C 
HETATM   35  C   UNL     1       2.218  28.618  45.293  1.00  0.00     0.012 C 
HETATM   36  C   UNL     1       4.212  29.739  44.261  1.00  0.00     0.012 C 
ENDBRANCH  13  34
BRANCH  18  37
HETATM   37  C   UNL     1       5.574  28.432  52.616  1.00  0.00     0.016 C 
HETATM   38  C   UNL     1       5.967  27.814  51.274  1.00  0.00     0.012 C 
HETATM   39  C   UNL     1       6.277  27.709  53.764  1.00  0.00     0.012 C 
ENDBRANCH  18  37
BRANCH  17  40
HETATM   40  C   UNL     1       7.742  30.846  45.520  1.00  0.00     0.016 C 
HETATM   41  C   UNL     1       9.267  30.771  45.534  1.00  0.00     0.012 C 
HETATM   42  C   UNL     1       7.263  31.843  44.466  1.00  0.00     0.012 C 
ENDBRANCH  17  40
BRANCH  15  43
HETATM   43  C   UNL     1      10.050  31.232  50.649  1.00  0.00     0.010 C 
HETATM   44  C   UNL     1      11.117  30.361  51.307  1.00  0.00     0.012 C 
HETATM   45  C   UNL     1      10.595  31.892  49.387  1.00  0.00     0.012 C 
ENDBRANCH  15  43
TORSDOF 6
ENDMDL
MODEL 9
REMARK VINA RESULT:    -4.964      4.204      8.088
REMARK INTER + INTRA:          -5.975
REMARK INTER:                  -6.783
REMARK INTRA:                   0.808
REMARK UNBOUND:                 0.730
REMARK  6 active torsions:
REMARK  status: ('A' for Active; 'I' for Inactive)
REMARK    1  A    between atoms: C_13  and  C_16 
REMARK    2  A    between atoms: C_14  and  C_17 
REMARK    3  A    between atoms: C_15  and  C_18 
REMARK    4  A    between atoms: C_19  and  C_22 
REMARK    5  A    between atoms: C_20  and  C_23 
REMARK    6  A    between atoms: C_21  and  C_24 
ROOT
HETATM    1  O   UNL     1       4.656  24.547  46.589  1.00  0.00    -0.304 OA
HETATM    2  O   UNL     1       6.688  27.970  43.282  1.00  0.00    -0.304 OA
HETATM    3  O   UNL     1       9.114  27.188  47.264  1.00  0.00    -0.304 OA
HETATM    4  O   UNL     1       6.561  24.694  44.837  1.00  0.00    -0.270 OA
HETATM    5  O   UNL     1       8.017  24.190  47.347  1.00  0.00    -0.270 OA
HETATM    6  O   UNL     1       9.599  29.306  43.785  1.00  0.00    -0.270 OA
HETATM    7  O   UNL     1       4.845  26.751  47.244  1.00  0.00    -0.263 OA
HETATM    8  O   UNL     1       8.453  27.235  41.999  1.00  0.00    -0.263 OA
HETATM    9  O   UNL     1      10.732  28.379  48.376  1.00  0.00    -0.263 OA
HETATM   10  N   UNL     1       5.346  25.712  43.153  1.00  0.00    -0.340 N 
HETATM   11  N   UNL     1       6.985  25.690  48.785  1.00  0.00    -0.340 N 
HETATM   12  N   UNL     1       8.329  29.247  45.734  1.00  0.00    -0.340 N 
HETATM   13  C   UNL     1       6.551  25.783  42.300  1.00  0.00     0.190 C 
HETATM   14  C   UNL     1       5.702  24.968  48.661  1.00  0.00     0.190 C 
HETATM   15  C   UNL     1       9.504  29.468  46.603  1.00  0.00     0.190 C 
HETATM   16  C   UNL     1       4.219  24.930  45.266  1.00  0.00     0.227 C 
HETATM   17  C   UNL     1       7.215  29.292  43.490  1.00  0.00     0.227 C 
HETATM   18  C   UNL     1       9.369  26.024  48.074  1.00  0.00     0.227 C 
HETATM   19  C   UNL     1       5.476  25.103  44.409  1.00  0.00     0.250 C 
HETATM   20  C   UNL     1       8.074  25.215  48.033  1.00  0.00     0.250 C 
HETATM   21  C   UNL     1       8.495  29.273  44.338  1.00  0.00     0.250 C 
HETATM   22  C   UNL     1       5.014  25.554  47.440  1.00  0.00     0.283 C 
HETATM   23  C   UNL     1       7.354  27.064  42.516  1.00  0.00     0.283 C 
HETATM   24  C   UNL     1       9.851  28.302  47.526  1.00  0.00     0.283 C 
HETATM   25  C   UNL     1       4.111  26.315  42.644  1.00  0.00     0.153 C 
HETATM   26  C   UNL     1       7.025  26.871  49.653  1.00  0.00     0.153 C 
HETATM   27  C   UNL     1       7.014  29.189  46.376  1.00  0.00     0.153 C 
ENDROOT
BRANCH  16  28
HETATM   28  C   UNL     1       3.362  23.789  44.739  1.00  0.00     0.016 C 
HETATM   29  C   UNL     1       3.634  22.504  45.520  1.00  0.00     0.012 C 
HETATM   30  C   UNL     1       1.878  24.151  44.806  1.00  0.00     0.012 C 
ENDBRANCH  16  28
BRANCH  14  31
HETATM   31  C   UNL     1       4.778  25.036  49.870  1.00  0.00     0.010 C 
HETATM   32  C   UNL     1       3.336  24.739  49.462  1.00  0.00     0.012 C 
HETATM   33  C   UNL     1       5.238  24.064  50.954  1.00  0.00     0.012 C 
ENDBRANCH  14  31
BRANCH  13  34
HETATM   34  C   UNL     1       6.263  25.601  40.810  1.00  0.00     0.010 C 
HETATM   35  C   UNL     1       7.111  24.468  40.231  1.00  0.00     0.012 C 
HETATM   36  C   UNL     1       6.514  26.900  40.047  1.00  0.00     0.012 C 
ENDBRANCH  13  34
BRANCH  18  37
HETATM   37  C   UNL     1      10.536  25.252  47.466  1.00  0.00     0.016 C 
HETATM   38  C   UNL     1      10.794  25.708  46.029  1.00  0.00     0.012 C 
HETATM   39  C   UNL     1      11.795  25.418  48.314  1.00  0.00     0.012 C 
ENDBRANCH  18  37
BRANCH  17  40
HETATM   40  C   UNL     1       7.392  30.047  42.172  1.00  0.00     0.016 C 
HETATM   41  C   UNL     1       7.725  31.514  42.434  1.00  0.00     0.012 C 
HETATM   42  C   UNL     1       6.136  29.926  41.311  1.00  0.00     0.012 C 
ENDBRANCH  17  40
BRANCH  15  43
HETATM   43  C   UNL     1       9.367  30.763  47.404  1.00  0.00     0.010 C 
HETATM   44  C   UNL     1       8.976  30.458  48.848  1.00  0.00     0.012 C 
HETATM   45  C   UNL     1      10.666  31.561  47.355  1.00  0.00     0.012 C 
ENDBRANCH  15  43
TORSDOF 6
ENDMDL
MODEL 10
REMARK VINA RESULT:    -4.923      4.017      8.354
REMARK INTER + INTRA:          -5.920
REMARK INTER:                  -6.712
REMARK INTRA:                   0.793
REMARK UNBOUND:                 0.730
REMARK  6 active torsions:
REMARK  status: ('A' for Active; 'I' for Inactive)
REMARK    1  A    between atoms: C_13  and  C_16 
REMARK    2  A    between atoms: C_14  and  C_17 
REMARK    3  A    between atoms: C_15  and  C_18 
REMARK    4  A    between atoms: C_19  and  C_22 
REMARK    5  A    between atoms: C_20  and  C_23 
REMARK    6  A    between atoms: C_21  and  C_24 
ROOT
HETATM    1  O   UNL     1       4.948  30.311  46.248  1.00  0.00    -0.304 OA
HETATM    2  O   UNL     1       5.955  29.949  51.311  1.00  0.00    -0.304 OA
HETATM    3  O   UNL     1       9.665  29.647  48.395  1.00  0.00    -0.304 OA
HETATM    4  O   UNL     1       5.911  31.762  48.168  1.00  0.00    -0.270 OA
HETATM    5  O   UNL     1       8.183  31.552  46.306  1.00  0.00    -0.270 OA
HETATM    6  O   UNL     1       8.990  29.793  52.438  1.00  0.00    -0.270 OA
HETATM    7  O   UNL     1       5.799  28.334  47.074  1.00  0.00    -0.263 OA
HETATM    8  O   UNL     1       6.833  31.823  52.319  1.00  0.00    -0.263 OA
HETATM    9  O   UNL     1      11.791  28.814  48.642  1.00  0.00    -0.263 OA
HETATM   10  N   UNL     1       4.300  31.273  49.753  1.00  0.00    -0.340 N 
HETATM   11  N   UNL     1       8.159  29.286  45.809  1.00  0.00    -0.340 N 
HETATM   12  N   UNL     1       8.691  28.428  50.578  1.00  0.00    -0.340 N 
HETATM   13  C   UNL     1       5.014  32.088  50.759  1.00  0.00     0.190 C 
HETATM   14  C   UNL     1       6.839  29.414  45.158  1.00  0.00     0.190 C 
HETATM   15  C   UNL     1      10.143  28.305  50.334  1.00  0.00     0.190 C 
HETATM   16  C   UNL     1       4.065  30.459  47.381  1.00  0.00     0.227 C 
HETATM   17  C   UNL     1       6.752  29.012  52.054  1.00  0.00     0.227 C 
HETATM   18  C   UNL     1      10.025  30.287  47.156  1.00  0.00     0.227 C 
HETATM   19  C   UNL     1       4.842  31.216  48.462  1.00  0.00     0.250 C 
HETATM   20  C   UNL     1       8.715  30.440  46.388  1.00  0.00     0.250 C 
HETATM   21  C   UNL     1       8.245  29.128  51.713  1.00  0.00     0.250 C 
HETATM   22  C   UNL     1       5.814  29.254  46.268  1.00  0.00     0.283 C 
HETATM   23  C   UNL     1       6.050  31.286  51.543  1.00  0.00     0.283 C 
HETATM   24  C   UNL     1      10.633  28.930  49.030  1.00  0.00     0.283 C 
HETATM   25  C   UNL     1       3.099  30.552  50.184  1.00  0.00     0.153 C 
HETATM   26  C   UNL     1       8.782  27.959  45.837  1.00  0.00     0.153 C 
HETATM   27  C   UNL     1       7.792  27.658  49.716  1.00  0.00     0.153 C 
ENDROOT
BRANCH  16  28
HETATM   28  C   UNL     1       2.872  31.275  46.905  1.00  0.00     0.016 C 
HETATM   29  C   UNL     1       3.318  32.658  46.432  1.00  0.00     0.012 C 
HETATM   30  C   UNL     1       2.127  30.543  45.789  1.00  0.00     0.012 C 
ENDBRANCH  16  28
BRANCH  14  31
HETATM   31  C   UNL     1       6.552  28.431  44.030  1.00  0.00     0.010 C 
HETATM   32  C   UNL     1       5.048  28.313  43.791  1.00  0.00     0.012 C 
HETATM   33  C   UNL     1       7.266  28.859  42.750  1.00  0.00     0.012 C 
ENDBRANCH  14  31
BRANCH  13  34
HETATM   34  C   UNL     1       4.087  32.820  51.729  1.00  0.00     0.010 C 
HETATM   35  C   UNL     1       4.392  34.317  51.742  1.00  0.00     0.012 C 
HETATM   36  C   UNL     1       4.209  32.238  53.136  1.00  0.00     0.012 C 
ENDBRANCH  13  34
BRANCH  18  37
HETATM   37  C   UNL     1      10.656  31.640  47.472  1.00  0.00     0.016 C 
HETATM   38  C   UNL     1      10.429  32.013  48.937  1.00  0.00     0.012 C 
HETATM   39  C   UNL     1      12.149  31.629  47.148  1.00  0.00     0.012 C 
ENDBRANCH  18  37
BRANCH  17  40
HETATM   40  C   UNL     1       6.482  29.101  53.556  1.00  0.00     0.016 C 
HETATM   41  C   UNL     1       7.364  28.117  54.321  1.00  0.00     0.012 C 
HETATM   42  C   UNL     1       5.006  28.843  53.853  1.00  0.00     0.012 C 
ENDBRANCH  17  40
BRANCH  15  43
HETATM   43  C   UNL     1      10.602  26.849  50.436  1.00  0.00     0.010 C 
HETATM   44  C   UNL     1      10.839  26.266  49.045  1.00  0.00     0.012 C 
HETATM   45  C   UNL     1      11.865  26.746  51.285  1.00  0.00     0.012 C 
ENDBRANCH  15  43
TORSDOF 6
ENDMDL
MODEL 11
REMARK VINA RESULT:    -4.840      7.777     10.917
REMARK INTER + INTRA:          -5.808
REMARK INTER:                  -6.960
REMARK INTRA:                   1.151
REMARK UNBOUND:                 0.730
REMARK  6 active torsions:
REMARK  status: ('A' for Active; 'I' for Inactive)
REMARK    1  A    between atoms: C_13  and  C_16 
REMARK    2  A    between atoms: C_14  and  C_17 
REMARK    3  A    between atoms: C_15  and  C_18 
REMARK    4  A    between atoms: C_19  and  C_22 
REMARK    5  A    between atoms: C_20  and  C_23 
REMARK    6  A    between atoms: C_21  and  C_24 
ROOT
HETATM    1  O   UNL     1       6.267  31.590  46.508  1.00  0.00    -0.304 OA
HETATM    2  O   UNL     1       3.693  27.456  44.756  1.00  0.00    -0.304 OA
HETATM    3  O   UNL     1       1.289  30.404  47.564  1.00  0.00    -0.304 OA
HETATM    4  O   UNL     1       4.482  30.998  44.723  1.00  0.00    -0.270 OA
HETATM    5  O   UNL     1       3.040  32.852  46.500  1.00  0.00    -0.270 OA
HETATM    6  O   UNL     1       0.529  27.048  45.331  1.00  0.00    -0.270 OA
HETATM    7  O   UNL     1       5.537  30.009  48.021  1.00  0.00    -0.263 OA
HETATM    8  O   UNL     1       2.221  27.822  43.023  1.00  0.00    -0.263 OA
HETATM    9  O   UNL     1      -0.621  30.170  48.817  1.00  0.00    -0.263 OA
HETATM   10  N   UNL     1       5.524  29.120  43.865  1.00  0.00    -0.340 N 
HETATM   11  N   UNL     1       3.615  32.024  48.590  1.00  0.00    -0.340 N 
HETATM   12  N   UNL     1       1.664  27.768  47.230  1.00  0.00    -0.340 N 
HETATM   13  C   UNL     1       4.386  28.882  42.952  1.00  0.00     0.190 C 
HETATM   14  C   UNL     1       5.035  32.365  48.365  1.00  0.00     0.190 C 
HETATM   15  C   UNL     1       0.422  28.186  47.913  1.00  0.00     0.190 C 
HETATM   16  C   UNL     1       6.678  30.571  45.571  1.00  0.00     0.227 C 
HETATM   17  C   UNL     1       2.864  26.497  45.434  1.00  0.00     0.227 C 
HETATM   18  C   UNL     1       1.263  31.834  47.735  1.00  0.00     0.227 C 
HETATM   19  C   UNL     1       5.467  30.251  44.691  1.00  0.00     0.250 C 
HETATM   20  C   UNL     1       2.709  32.286  47.547  1.00  0.00     0.250 C 
HETATM   21  C   UNL     1       1.577  27.133  45.979  1.00  0.00     0.250 C 
HETATM   22  C   UNL     1       5.638  31.170  47.646  1.00  0.00     0.283 C 
HETATM   23  C   UNL     1       3.299  28.011  43.577  1.00  0.00     0.283 C 
HETATM   24  C   UNL     1       0.301  29.687  48.168  1.00  0.00     0.283 C 
HETATM   25  C   UNL     1       6.615  28.141  43.870  1.00  0.00     0.153 C 
HETATM   26  C   UNL     1       3.255  31.404  49.869  1.00  0.00     0.153 C 
HETATM   27  C   UNL     1       2.918  27.878  47.979  1.00  0.00     0.153 C 
ENDROOT
BRANCH  16  28
HETATM   28  C   UNL     1       7.805  31.167  44.739  1.00  0.00     0.016 C 
HETATM   29  C   UNL     1       7.354  32.465  44.072  1.00  0.00     0.012 C 
HETATM   30  C   UNL     1       9.043  31.411  45.601  1.00  0.00     0.012 C 
ENDBRANCH  16  28
BRANCH  14  31
HETATM   31  C   UNL     1       5.848  32.697  49.610  1.00  0.00     0.010 C 
HETATM   32  C   UNL     1       7.288  32.211  49.456  1.00  0.00     0.012 C 
HETATM   33  C   UNL     1       5.815  34.197  49.889  1.00  0.00     0.012 C 
ENDBRANCH  14  31
BRANCH  13  34
HETATM   34  C   UNL     1       4.793  28.304  41.597  1.00  0.00     0.010 C 
HETATM   35  C   UNL     1       5.822  29.204  40.914  1.00  0.00     0.012 C 
HETATM   36  C   UNL     1       3.572  28.113  40.701  1.00  0.00     0.012 C 
ENDBRANCH  13  34
BRANCH  18  37
HETATM   37  C   UNL     1       0.342  32.435  46.676  1.00  0.00     0.016 C 
HETATM   38  C   UNL     1       0.039  31.412  45.582  1.00  0.00     0.012 C 
HETATM   39  C   UNL     1      -0.953  32.939  47.310  1.00  0.00     0.012 C 
ENDBRANCH  18  37
BRANCH  17  40
HETATM   40  C   UNL     1       2.594  25.266  44.569  1.00  0.00     0.016 C 
HETATM   41  C   UNL     1       1.971  24.149  45.403  1.00  0.00     0.012 C 
HETATM   42  C   UNL     1       3.881  24.785  43.903  1.00  0.00     0.012 C 
ENDBRANCH  17  40
BRANCH  15  43
HETATM   43  C   UNL     1       0.211  27.404  49.210  1.00  0.00     0.010 C 
HETATM   44  C   UNL     1       0.527  28.281  50.419  1.00  0.00     0.012 C 
HETATM   45  C   UNL     1      -1.218  26.875  49.287  1.00  0.00     0.012 C 
ENDBRANCH  15  43
TORSDOF 6
ENDMDL
MODEL 12
REMARK VINA RESULT:    -4.770      6.396     12.108
REMARK INTER + INTRA:          -5.714
REMARK INTER:                  -7.209
REMARK INTRA:                   1.496
REMARK UNBOUND:                 0.730
REMARK  6 active torsions:
REMARK  status: ('A' for Active; 'I' for Inactive)
REMARK    1  A    between atoms: C_13  and  C_16 
REMARK    2  A    between atoms: C_14  and  C_17 
REMARK    3  A    between atoms: C_15  and  C_18 
REMARK    4  A    between atoms: C_19  and  C_22 
REMARK    5  A    between atoms: C_20  and  C_23 
REMARK    6  A    between atoms: C_21  and  C_24 
ROOT
HETATM    1  O   UNL     1      21.575  19.841  44.675  1.00  0.00    -0.304 OA
HETATM    2  O   UNL     1      18.173  21.047  48.384  1.00  0.00    -0.304 OA
HETATM    3  O   UNL     1      16.375  19.873  44.171  1.00  0.00    -0.304 OA
HETATM    4  O   UNL     1      19.931  18.658  46.293  1.00  0.00    -0.270 OA
HETATM    5  O   UNL     1      18.865  17.947  43.641  1.00  0.00    -0.270 OA
HETATM    6  O   UNL     1      14.977  20.754  47.925  1.00  0.00    -0.270 OA
HETATM    7  O   UNL     1      20.247  21.707  44.403  1.00  0.00    -0.263 OA
HETATM    8  O   UNL     1      17.090  19.285  49.396  1.00  0.00    -0.263 OA
HETATM    9  O   UNL     1      14.337  20.238  43.177  1.00  0.00    -0.263 OA
HETATM   10  N   UNL     1      20.496  19.827  48.207  1.00  0.00    -0.340 N 
HETATM   11  N   UNL     1      18.919  19.999  42.560  1.00  0.00    -0.340 N 
HETATM   12  N   UNL     1      16.026  21.719  46.086  1.00  0.00    -0.340 N 
HETATM   13  C   UNL     1      19.459  19.107  48.976  1.00  0.00     0.190 C 
HETATM   14  C   UNL     1      20.394  20.034  42.642  1.00  0.00     0.190 C 
HETATM   15  C   UNL     1      14.879  21.457  45.192  1.00  0.00     0.190 C 
HETATM   16  C   UNL     1      21.794  20.143  46.071  1.00  0.00     0.227 C 
HETATM   17  C   UNL     1      17.029  21.918  48.374  1.00  0.00     0.227 C 
HETATM   18  C   UNL     1      16.734  18.917  43.155  1.00  0.00     0.227 C 
HETATM   19  C   UNL     1      20.659  19.481  46.858  1.00  0.00     0.250 C 
HETATM   20  C   UNL     1      18.261  18.901  43.142  1.00  0.00     0.250 C 
HETATM   21  C   UNL     1      15.918  21.398  47.451  1.00  0.00     0.250 C 
HETATM   22  C   UNL     1      20.718  20.655  43.990  1.00  0.00     0.283 C 
HETATM   23  C   UNL     1      18.100  19.804  48.933  1.00  0.00     0.283 C 
HETATM   24  C   UNL     1      15.157  20.472  44.059  1.00  0.00     0.283 C 
HETATM   25  C   UNL     1      21.255  20.875  48.895  1.00  0.00     0.153 C 
HETATM   26  C   UNL     1      18.243  21.126  41.910  1.00  0.00     0.153 C 
HETATM   27  C   UNL     1      17.157  22.467  45.534  1.00  0.00     0.153 C 
ENDROOT
BRANCH  16  28
HETATM   28  C   UNL     1      23.136  19.534  46.448  1.00  0.00     0.016 C 
HETATM   29  C   UNL     1      23.176  18.050  46.086  1.00  0.00     0.012 C 
HETATM   30  C   UNL     1      24.280  20.281  45.763  1.00  0.00     0.012 C 
ENDBRANCH  16  28
BRANCH  14  31
HETATM   31  C   UNL     1      21.107  20.790  41.529  1.00  0.00     0.010 C 
HETATM   32  C   UNL     1      21.912  21.955  42.101  1.00  0.00     0.012 C 
HETATM   33  C   UNL     1      22.013  19.851  40.736  1.00  0.00     0.012 C 
ENDBRANCH  14  31
BRANCH  13  34
HETATM   34  C   UNL     1      19.849  18.829  50.427  1.00  0.00     0.010 C 
HETATM   35  C   UNL     1      20.853  17.680  50.505  1.00  0.00     0.012 C 
HETATM   36  C   UNL     1      18.615  18.518  51.270  1.00  0.00     0.012 C 
ENDBRANCH  13  34
BRANCH  18  37
HETATM   37  C   UNL     1      16.159  17.556  43.540  1.00  0.00     0.016 C 
HETATM   38  C   UNL     1      15.666  17.569  44.987  1.00  0.00     0.012 C 
HETATM   39  C   UNL     1      15.028  17.160  42.592  1.00  0.00     0.012 C 
ENDBRANCH  18  37
BRANCH  17  40
HETATM   40  C   UNL     1      16.530  22.216  49.788  1.00  0.00     0.016 C 
HETATM   41  C   UNL     1      15.554  23.391  49.778  1.00  0.00     0.012 C 
HETATM   42  C   UNL     1      17.704  22.502  50.723  1.00  0.00     0.012 C 
ENDBRANCH  17  40
BRANCH  15  43
HETATM   43  C   UNL     1      14.296  22.758  44.640  1.00  0.00     0.010 C 
HETATM   44  C   UNL     1      12.815  22.584  44.314  1.00  0.00     0.012 C 
HETATM   45  C   UNL     1      14.499  23.898  45.634  1.00  0.00     0.012 C 
ENDBRANCH  15  43
TORSDOF 6
ENDMDL
MODEL 13
REMARK VINA RESULT:    -4.672      4.199      9.073
REMARK INTER + INTRA:          -5.581
REMARK INTER:                  -6.592
REMARK INTRA:                   1.010
REMARK UNBOUND:                 0.730
REMARK  6 active torsions:
REMARK  status: ('A' for Active; 'I' for Inactive)
REMARK    1  A    between atoms: C_13  and  C_16 
REMARK    2  A    between atoms: C_14  and  C_17 
REMARK    3  A    between atoms: C_15  and  C_18 
REMARK    4  A    between atoms: C_19  and  C_22 
REMARK    5  A    between atoms: C_20  and  C_23 
REMARK    6  A    between atoms: C_21  and  C_24 
ROOT
HETATM    1  O   UNL     1      10.241  26.773  46.726  1.00  0.00    -0.304 OA
HETATM    2  O   UNL     1       5.747  25.172  44.721  1.00  0.00    -0.304 OA
HETATM    3  O   UNL     1       6.619  29.814  44.504  1.00  0.00    -0.304 OA
HETATM    4  O   UNL     1       9.170  26.335  44.407  1.00  0.00    -0.270 OA
HETATM    5  O   UNL     1       9.751  29.220  44.323  1.00  0.00    -0.270 OA
HETATM    6  O   UNL     1       3.757  27.200  43.161  1.00  0.00    -0.270 OA
HETATM    7  O   UNL     1       8.274  27.478  47.701  1.00  0.00    -0.263 OA
HETATM    8  O   UNL     1       5.640  25.031  42.425  1.00  0.00    -0.263 OA
HETATM    9  O   UNL     1       5.273  31.652  44.213  1.00  0.00    -0.263 OA
HETATM   10  N   UNL     1       8.217  24.285  44.896  1.00  0.00    -0.340 N 
HETATM   11  N   UNL     1       8.965  29.906  46.396  1.00  0.00    -0.340 N 
HETATM   12  N   UNL     1       4.602  28.151  45.109  1.00  0.00    -0.340 N 
HETATM   13  C   UNL     1       7.614  24.221  43.548  1.00  0.00     0.190 C 
HETATM   14  C   UNL     1       9.987  29.092  47.083  1.00  0.00     0.190 C 
HETATM   15  C   UNL     1       4.238  29.522  44.694  1.00  0.00     0.190 C 
HETATM   16  C   UNL     1       9.730  25.434  46.551  1.00  0.00     0.227 C 
HETATM   17  C   UNL     1       4.406  25.663  44.888  1.00  0.00     0.227 C 
HETATM   18  C   UNL     1       7.802  30.606  44.284  1.00  0.00     0.227 C 
HETATM   19  C   UNL     1       9.016  25.397  45.197  1.00  0.00     0.250 C 
HETATM   20  C   UNL     1       8.926  29.852  44.991  1.00  0.00     0.250 C 
HETATM   21  C   UNL     1       4.230  27.068  44.294  1.00  0.00     0.250 C 
HETATM   22  C   UNL     1       9.381  27.706  47.232  1.00  0.00     0.283 C 
HETATM   23  C   UNL     1       6.232  24.866  43.487  1.00  0.00     0.283 C 
HETATM   24  C   UNL     1       5.421  30.459  44.457  1.00  0.00     0.283 C 
HETATM   25  C   UNL     1       7.909  23.203  45.836  1.00  0.00     0.153 C 
HETATM   26  C   UNL     1       8.039  30.685  47.224  1.00  0.00     0.153 C 
HETATM   27  C   UNL     1       5.179  27.978  46.444  1.00  0.00     0.153 C 
ENDROOT
BRANCH  16  28
HETATM   28  C   UNL     1      10.931  24.500  46.552  1.00  0.00     0.016 C 
HETATM   29  C   UNL     1      12.233  25.296  46.468  1.00  0.00     0.012 C 
HETATM   30  C   UNL     1      10.926  23.613  47.796  1.00  0.00     0.012 C 
ENDBRANCH  16  28
BRANCH  14  31
HETATM   31  C   UNL     1      10.454  29.610  48.438  1.00  0.00     0.010 C 
HETATM   32  C   UNL     1      11.189  28.514  49.208  1.00  0.00     0.012 C 
HETATM   33  C   UNL     1      11.349  30.835  48.265  1.00  0.00     0.012 C 
ENDBRANCH  14  31
BRANCH  13  34
HETATM   34  C   UNL     1       7.549  22.808  42.968  1.00  0.00     0.010 C 
HETATM   35  C   UNL     1       8.207  22.760  41.590  1.00  0.00     0.012 C 
HETATM   36  C   UNL     1       6.104  22.322  42.889  1.00  0.00     0.012 C 
ENDBRANCH  13  34
BRANCH  18  37
HETATM   37  C   UNL     1       8.049  30.707  42.781  1.00  0.00     0.016 C 
HETATM   38  C   UNL     1       7.228  29.660  42.028  1.00  0.00     0.012 C 
HETATM   39  C   UNL     1       7.721  32.110  42.273  1.00  0.00     0.012 C 
ENDBRANCH  18  37
BRANCH  17  40
HETATM   40  C   UNL     1       3.368  24.668  44.367  1.00  0.00     0.016 C 
HETATM   41  C   UNL     1       1.957  25.226  44.536  1.00  0.00     0.012 C 
HETATM   42  C   UNL     1       3.504  23.326  45.084  1.00  0.00     0.012 C 
ENDBRANCH  17  40
BRANCH  15  43
HETATM   43  C   UNL     1       3.244  30.152  45.670  1.00  0.00     0.010 C 
HETATM   44  C   UNL     1       3.067  31.638  45.367  1.00  0.00     0.012 C 
HETATM   45  C   UNL     1       1.903  29.426  45.609  1.00  0.00     0.012 C 
ENDBRANCH  15  43
TORSDOF 6
ENDMDL
MODEL 14
REMARK VINA RESULT:    -4.531      2.861      6.936
REMARK INTER + INTRA:          -5.390
REMARK INTER:                  -6.213
REMARK INTRA:                   0.824
REMARK UNBOUND:                 0.730
REMARK  6 active torsions:
REMARK  status: ('A' for Active; 'I' for Inactive)
REMARK    1  A    between atoms: C_13  and  C_16 
REMARK    2  A    between atoms: C_14  and  C_17 
REMARK    3  A    between atoms: C_15  and  C_18 
REMARK    4  A    between atoms: C_19  and  C_22 
REMARK    5  A    between atoms: C_20  and  C_23 
REMARK    6  A    between atoms: C_21  and  C_24 
ROOT
HETATM    1  O   UNL     1       6.711  26.946  51.926  1.00  0.00    -0.304 OA
HETATM    2  O   UNL     1      11.456  26.852  53.989  1.00  0.00    -0.304 OA
HETATM    3  O   UNL     1      11.050  28.849  49.722  1.00  0.00    -0.304 OA
HETATM    4  O   UNL     1       8.376  28.551  53.097  1.00  0.00    -0.270 OA
HETATM    5  O   UNL     1       8.072  29.758  50.428  1.00  0.00    -0.270 OA
HETATM    6  O   UNL     1      13.967  28.319  52.557  1.00  0.00    -0.270 OA
HETATM    7  O   UNL     1       8.355  25.715  50.878  1.00  0.00    -0.263 OA
HETATM    8  O   UNL     1      12.220  28.825  54.898  1.00  0.00    -0.263 OA
HETATM    9  O   UNL     1      12.560  29.313  48.056  1.00  0.00    -0.263 OA
HETATM   10  N   UNL     1       8.982  27.146  54.831  1.00  0.00    -0.340 N 
HETATM   11  N   UNL     1       8.268  27.896  49.058  1.00  0.00    -0.340 N 
HETATM   12  N   UNL     1      12.665  27.148  51.025  1.00  0.00    -0.340 N 
HETATM   13  C   UNL     1       9.946  28.148  55.332  1.00  0.00     0.190 C 
HETATM   14  C   UNL     1       7.028  27.319  49.618  1.00  0.00     0.190 C 
HETATM   15  C   UNL     1      13.240  27.864  49.866  1.00  0.00     0.190 C 
HETATM   16  C   UNL     1       7.145  26.504  53.231  1.00  0.00     0.227 C 
HETATM   17  C   UNL     1      12.724  26.461  53.434  1.00  0.00     0.227 C 
HETATM   18  C   UNL     1      10.048  29.665  49.085  1.00  0.00     0.227 C 
HETATM   19  C   UNL     1       8.219  27.486  53.705  1.00  0.00     0.250 C 
HETATM   20  C   UNL     1       8.711  29.122  49.584  1.00  0.00     0.250 C 
HETATM   21  C   UNL     1      13.174  27.405  52.309  1.00  0.00     0.250 C 
HETATM   22  C   UNL     1       7.455  26.544  50.853  1.00  0.00     0.283 C 
HETATM   23  C   UNL     1      11.332  28.000  54.708  1.00  0.00     0.283 C 
HETATM   24  C   UNL     1      12.256  28.744  49.099  1.00  0.00     0.283 C 
HETATM   25  C   UNL     1       8.917  25.854  55.520  1.00  0.00     0.153 C 
HETATM   26  C   UNL     1       8.968  27.135  48.018  1.00  0.00     0.153 C 
HETATM   27  C   UNL     1      11.711  26.072  50.749  1.00  0.00     0.153 C 
ENDROOT
BRANCH  16  28
HETATM   28  C   UNL     1       5.928  26.556  54.141  1.00  0.00     0.016 C 
HETATM   29  C   UNL     1       4.845  27.454  53.544  1.00  0.00     0.012 C 
HETATM   30  C   UNL     1       5.379  25.152  54.392  1.00  0.00     0.012 C 
ENDBRANCH  16  28
BRANCH  14  31
HETATM   31  C   UNL     1       6.227  26.422  48.684  1.00  0.00     0.010 C 
HETATM   32  C   UNL     1       5.292  25.515  49.481  1.00  0.00     0.012 C 
HETATM   33  C   UNL     1       5.436  27.259  47.682  1.00  0.00     0.012 C 
ENDBRANCH  14  31
BRANCH  13  34
HETATM   34  C   UNL     1      10.068  28.178  56.856  1.00  0.00     0.010 C 
HETATM   35  C   UNL     1       9.890  29.601  57.383  1.00  0.00     0.012 C 
HETATM   36  C   UNL     1      11.412  27.606  57.302  1.00  0.00     0.012 C 
ENDBRANCH  13  34
BRANCH  18  37
HETATM   37  C   UNL     1      10.261  31.117  49.507  1.00  0.00     0.016 C 
HETATM   38  C   UNL     1      11.272  31.203  50.650  1.00  0.00     0.012 C 
HETATM   39  C   UNL     1      10.720  31.962  48.321  1.00  0.00     0.012 C 
ENDBRANCH  18  37
BRANCH  17  40
HETATM   40  C   UNL     1      13.788  26.283  54.517  1.00  0.00     0.016 C 
HETATM   41  C   UNL     1      15.131  25.907  53.895  1.00  0.00     0.012 C 
HETATM   42  C   UNL     1      13.351  25.228  55.531  1.00  0.00     0.012 C 
ENDBRANCH  17  40
BRANCH  15  43
HETATM   43  C   UNL     1      13.951  26.901  48.915  1.00  0.00     0.010 C 
HETATM   44  C   UNL     1      14.885  25.976  49.692  1.00  0.00     0.012 C 
HETATM   45  C   UNL     1      12.934  26.092  48.116  1.00  0.00     0.012 C 
ENDBRANCH  15  43
TORSDOF 6
ENDMDL
MODEL 15
REMARK VINA RESULT:    -4.529      2.820      6.646
REMARK INTER + INTRA:          -5.388
REMARK INTER:                  -6.248
REMARK INTRA:                   0.860
REMARK UNBOUND:                 0.730
REMARK  6 active torsions:
REMARK  status: ('A' for Active; 'I' for Inactive)
REMARK    1  A    between atoms: C_13  and  C_16 
REMARK    2  A    between atoms: C_14  and  C_17 
REMARK    3  A    between atoms: C_15  and  C_18 
REMARK    4  A    between atoms: C_19  and  C_22 
REMARK    5  A    between atoms: C_20  and  C_23 
REMARK    6  A    between atoms: C_21  and  C_24 
ROOT
HETATM    1  O   UNL     1       6.442  26.633  49.450  1.00  0.00    -0.304 OA
HETATM    2  O   UNL     1       9.944  27.051  53.238  1.00  0.00    -0.304 OA
HETATM    3  O   UNL     1      11.184  28.784  49.017  1.00  0.00    -0.304 OA
HETATM    4  O   UNL     1       7.396  28.433  51.054  1.00  0.00    -0.270 OA
HETATM    5  O   UNL     1       8.128  29.471  48.397  1.00  0.00    -0.270 OA
HETATM    6  O   UNL     1      12.730  28.652  52.814  1.00  0.00    -0.270 OA
HETATM    7  O   UNL     1       8.438  25.495  49.251  1.00  0.00    -0.263 OA
HETATM    8  O   UNL     1      10.159  29.126  54.212  1.00  0.00    -0.263 OA
HETATM    9  O   UNL     1      13.210  29.290  48.062  1.00  0.00    -0.263 OA
HETATM   10  N   UNL     1       7.328  27.175  52.994  1.00  0.00    -0.340 N 
HETATM   11  N   UNL     1       8.969  27.564  47.376  1.00  0.00    -0.340 N 
HETATM   12  N   UNL     1      12.230  27.297  50.990  1.00  0.00    -0.340 N 
HETATM   13  C   UNL     1       7.947  28.281  53.755  1.00  0.00     0.190 C 
HETATM   14  C   UNL     1       7.644  26.913  47.439  1.00  0.00     0.190 C 
HETATM   15  C   UNL     1      13.182  27.999  50.104  1.00  0.00     0.190 C 
HETATM   16  C   UNL     1       6.336  26.297  50.851  1.00  0.00     0.227 C 
HETATM   17  C   UNL     1      11.348  26.742  53.269  1.00  0.00     0.227 C 
HETATM   18  C   UNL     1      10.481  29.478  47.969  1.00  0.00     0.227 C 
HETATM   19  C   UNL     1       7.068  27.391  51.633  1.00  0.00     0.250 C 
HETATM   20  C   UNL     1       9.090  28.849  47.934  1.00  0.00     0.250 C 
HETATM   21  C   UNL     1      12.160  27.662  52.346  1.00  0.00     0.250 C 
HETATM   22  C   UNL     1       7.579  26.242  48.801  1.00  0.00     0.283 C 
HETATM   23  C   UNL     1       9.473  28.219  53.751  1.00  0.00     0.283 C 
HETATM   24  C   UNL     1      12.543  28.751  48.939  1.00  0.00     0.283 C 
HETATM   25  C   UNL     1       7.064  25.919  53.702  1.00  0.00     0.153 C 
HETATM   26  C   UNL     1      10.073  26.814  46.769  1.00  0.00     0.153 C 
HETATM   27  C   UNL     1      11.532  26.130  50.445  1.00  0.00     0.153 C 
ENDROOT
BRANCH  16  28
HETATM   28  C   UNL     1       4.853  26.292  51.191  1.00  0.00     0.016 C 
HETATM   29  C   UNL     1       4.056  27.064  50.142  1.00  0.00     0.012 C 
HETATM   30  C   UNL     1       4.332  24.860  51.312  1.00  0.00     0.012 C 
ENDBRANCH  16  28
BRANCH  14  31
HETATM   31  C   UNL     1       7.343  25.903  46.339  1.00  0.00     0.010 C 
HETATM   32  C   UNL     1       6.202  24.978  46.757  1.00  0.00     0.012 C 
HETATM   33  C   UNL     1       7.003  26.617  45.033  1.00  0.00     0.012 C 
ENDBRANCH  14  31
BRANCH  13  34
HETATM   34  C   UNL     1       7.440  28.399  55.192  1.00  0.00     0.010 C 
HETATM   35  C   UNL     1       6.960  29.821  55.480  1.00  0.00     0.012 C 
HETATM   36  C   UNL     1       8.527  27.991  56.185  1.00  0.00     0.012 C 
ENDBRANCH  13  34
BRANCH  18  37
HETATM   37  C   UNL     1      10.421  30.962  48.320  1.00  0.00     0.016 C 
HETATM   38  C   UNL     1      10.970  31.205  49.726  1.00  0.00     0.012 C 
HETATM   39  C   UNL     1      11.190  31.792  47.295  1.00  0.00     0.012 C 
ENDBRANCH  18  37
BRANCH  17  40
HETATM   40  C   UNL     1      11.891  26.712  54.698  1.00  0.00     0.016 C 
HETATM   41  C   UNL     1      13.372  26.343  54.702  1.00  0.00     0.012 C 
HETATM   42  C   UNL     1      11.091  25.733  55.556  1.00  0.00     0.012 C 
ENDBRANCH  17  40
BRANCH  15  43
HETATM   43  C   UNL     1      14.271  27.052  49.599  1.00  0.00     0.010 C 
HETATM   44  C   UNL     1      14.954  26.350  50.769  1.00  0.00     0.012 C 
HETATM   45  C   UNL     1      13.684  26.033  48.627  1.00  0.00     0.012 C 
ENDBRANCH  15  43
TORSDOF 6
ENDMDL
MODEL 16
REMARK VINA RESULT:    -4.411      3.663      6.376
REMARK INTER + INTRA:          -5.228
REMARK INTER:                  -6.539
REMARK INTRA:                   1.310
REMARK UNBOUND:                 0.730
REMARK  6 active torsions:
REMARK  status: ('A' for Active; 'I' for Inactive)
REMARK    1  A    between atoms: C_13  and  C_16 
REMARK    2  A    between atoms: C_14  and  C_17 
REMARK    3  A    between atoms: C_15  and  C_18 
REMARK    4  A    between atoms: C_19  and  C_22 
REMARK    5  A    between atoms: C_20  and  C_23 
REMARK    6  A    between atoms: C_21  and  C_24 
ROOT
HETATM    1  O   UNL     1       5.993  27.596  43.919  1.00  0.00    -0.304 OA
HETATM    2  O   UNL     1       8.192  25.588  48.152  1.00  0.00    -0.304 OA
HETATM    3  O   UNL     1       7.793  30.298  48.013  1.00  0.00    -0.304 OA
HETATM    4  O   UNL     1       5.399  27.095  46.392  1.00  0.00    -0.270 OA
HETATM    5  O   UNL     1       5.151  30.025  46.241  1.00  0.00    -0.270 OA
HETATM    6  O   UNL     1       9.008  27.435  50.688  1.00  0.00    -0.270 OA
HETATM    7  O   UNL     1       8.204  28.081  44.362  1.00  0.00    -0.263 OA
HETATM    8  O   UNL     1       6.876  25.480  50.038  1.00  0.00    -0.263 OA
HETATM    9  O   UNL     1       8.849  31.996  49.142  1.00  0.00    -0.263 OA
HETATM   10  N   UNL     1       6.263  24.951  46.482  1.00  0.00    -0.340 N 
HETATM   11  N   UNL     1       7.089  30.591  45.097  1.00  0.00    -0.340 N 
HETATM   12  N   UNL     1       9.604  28.430  48.671  1.00  0.00    -0.340 N 
HETATM   13  C   UNL     1       5.919  24.852  47.916  1.00  0.00     0.190 C 
HETATM   14  C   UNL     1       6.621  29.870  43.894  1.00  0.00     0.190 C 
HETATM   15  C   UNL     1       9.766  29.765  49.284  1.00  0.00     0.190 C 
HETATM   16  C   UNL     1       6.171  26.215  44.305  1.00  0.00     0.227 C 
HETATM   17  C   UNL     1       9.399  25.939  48.851  1.00  0.00     0.227 C 
HETATM   18  C   UNL     1       6.796  31.208  47.512  1.00  0.00     0.227 C 
HETATM   19  C   UNL     1       5.914  26.132  45.812  1.00  0.00     0.250 C 
HETATM   20  C   UNL     1       6.265  30.559  46.236  1.00  0.00     0.250 C 
HETATM   21  C   UNL     1       9.307  27.330  49.495  1.00  0.00     0.250 C 
HETATM   22  C   UNL     1       7.065  28.429  44.078  1.00  0.00     0.283 C 
HETATM   23  C   UNL     1       7.035  25.356  48.829  1.00  0.00     0.283 C 
HETATM   24  C   UNL     1       8.772  30.820  48.803  1.00  0.00     0.283 C 
HETATM   25  C   UNL     1       6.977  23.827  45.869  1.00  0.00     0.153 C 
HETATM   26  C   UNL     1       8.393  31.257  45.031  1.00  0.00     0.153 C 
HETATM   27  C   UNL     1       9.938  28.292  47.252  1.00  0.00     0.153 C 
ENDROOT
BRANCH  16  28
HETATM   28  C   UNL     1       5.135  25.407  43.537  1.00  0.00     0.016 C 
HETATM   29  C   UNL     1       3.826  26.186  43.413  1.00  0.00     0.012 C 
HETATM   30  C   UNL     1       5.663  25.027  42.154  1.00  0.00     0.012 C 
ENDBRANCH  16  28
BRANCH  14  31
HETATM   31  C   UNL     1       7.118  30.408  42.558  1.00  0.00     0.010 C 
HETATM   32  C   UNL     1       6.646  29.516  41.412  1.00  0.00     0.012 C 
HETATM   33  C   UNL     1       6.646  31.844  42.348  1.00  0.00     0.012 C 
ENDBRANCH  14  31
BRANCH  13  34
HETATM   34  C   UNL     1       5.491  23.450  48.352  1.00  0.00     0.010 C 
HETATM   35  C   UNL     1       4.146  23.497  49.074  1.00  0.00     0.012 C 
HETATM   36  C   UNL     1       6.555  22.813  49.243  1.00  0.00     0.012 C 
ENDBRANCH  13  34
BRANCH  18  37
HETATM   37  C   UNL     1       5.702  31.362  48.564  1.00  0.00     0.016 C 
HETATM   38  C   UNL     1       4.583  32.267  48.050  1.00  0.00     0.012 C 
HETATM   39  C   UNL     1       5.144  29.998  48.967  1.00  0.00     0.012 C 
ENDBRANCH  18  37
BRANCH  17  40
HETATM   40  C   UNL     1       9.815  24.855  49.845  1.00  0.00     0.016 C 
HETATM   41  C   UNL     1      11.074  25.273  50.601  1.00  0.00     0.012 C 
HETATM   42  C   UNL     1      10.036  23.525  49.128  1.00  0.00     0.012 C 
ENDBRANCH  17  40
BRANCH  15  43
HETATM   43  C   UNL     1      11.200  30.274  49.135  1.00  0.00     0.010 C 
HETATM   44  C   UNL     1      11.299  31.259  47.974  1.00  0.00     0.012 C 
HETATM   45  C   UNL     1      11.673  30.922  50.433  1.00  0.00     0.012 C 
ENDBRANCH  15  43
TORSDOF 6
ENDMDL
MODEL 17
REMARK VINA RESULT:    -4.408     14.107     18.113
REMARK INTER + INTRA:          -5.224
REMARK INTER:                  -5.940
REMARK INTRA:                   0.716
REMARK UNBOUND:                 0.730
REMARK  6 active torsions:
REMARK  status: ('A' for Active; 'I' for Inactive)
REMARK    1  A    between atoms: C_13  and  C_16 
REMARK    2  A    between atoms: C_14  and  C_17 
REMARK    3  A    between atoms: C_15  and  C_18 
REMARK    4  A    between atoms: C_19  and  C_22 
REMARK    5  A    between atoms: C_20  and  C_23 
REMARK    6  A    between atoms: C_21  and  C_24 
ROOT
HETATM    1  O   UNL     1      21.942  33.966  57.914  1.00  0.00    -0.304 OA
HETATM    2  O   UNL     1      19.594  38.226  59.680  1.00  0.00    -0.304 OA
HETATM    3  O   UNL     1      22.479  38.789  55.976  1.00  0.00    -0.304 OA
HETATM    4  O   UNL     1      19.972  35.528  57.283  1.00  0.00    -0.270 OA
HETATM    5  O   UNL     1      21.802  35.827  54.995  1.00  0.00    -0.270 OA
HETATM    6  O   UNL     1      19.874  41.079  58.166  1.00  0.00    -0.270 OA
HETATM    7  O   UNL     1      23.230  35.656  58.811  1.00  0.00    -0.263 OA
HETATM    8  O   UNL     1      17.794  38.986  58.461  1.00  0.00    -0.263 OA
HETATM    9  O   UNL     1      23.547  40.614  55.082  1.00  0.00    -0.263 OA
HETATM   10  N   UNL     1      19.019  35.677  59.385  1.00  0.00    -0.340 N 
HETATM   11  N   UNL     1      23.840  36.100  56.071  1.00  0.00    -0.340 N 
HETATM   12  N   UNL     1      21.918  39.978  58.315  1.00  0.00    -0.340 N 
HETATM   13  C   UNL     1      18.000  36.620  58.878  1.00  0.00     0.190 C 
HETATM   14  C   UNL     1      23.762  34.732  56.624  1.00  0.00     0.190 C 
HETATM   15  C   UNL     1      22.538  40.818  57.268  1.00  0.00     0.190 C 
HETATM   16  C   UNL     1      20.945  34.113  58.949  1.00  0.00     0.227 C 
HETATM   17  C   UNL     1      20.108  39.533  59.989  1.00  0.00     0.227 C 
HETATM   18  C   UNL     1      22.786  37.999  54.812  1.00  0.00     0.227 C 
HETATM   19  C   UNL     1      19.945  35.167  58.465  1.00  0.00     0.250 C 
HETATM   20  C   UNL     1      22.759  36.549  55.291  1.00  0.00     0.250 C 
HETATM   21  C   UNL     1      20.608  40.265  58.735  1.00  0.00     0.250 C 
HETATM   22  C   UNL     1      22.981  34.854  57.920  1.00  0.00     0.283 C 
HETATM   23  C   UNL     1      18.448  38.077  58.961  1.00  0.00     0.283 C 
HETATM   24  C   UNL     1      22.929  40.074  55.993  1.00  0.00     0.283 C 
HETATM   25  C   UNL     1      19.014  35.370  60.818  1.00  0.00     0.153 C 
HETATM   26  C   UNL     1      25.019  36.907  56.402  1.00  0.00     0.153 C 
HETATM   27  C   UNL     1      22.771  38.997  58.989  1.00  0.00     0.153 C 
ENDROOT
BRANCH  16  28
HETATM   28  C   UNL     1      20.268  32.759  59.103  1.00  0.00     0.016 C 
HETATM   29  C   UNL     1      20.630  31.839  57.939  1.00  0.00     0.012 C 
HETATM   30  C   UNL     1      20.650  32.112  60.434  1.00  0.00     0.012 C 
ENDBRANCH  16  28
BRANCH  14  31
HETATM   31  C   UNL     1      25.094  34.037  56.875  1.00  0.00     0.010 C 
HETATM   32  C   UNL     1      24.923  32.891  57.870  1.00  0.00     0.012 C 
HETATM   33  C   UNL     1      25.690  33.526  55.566  1.00  0.00     0.012 C 
ENDBRANCH  14  31
BRANCH  13  34
HETATM   34  C   UNL     1      16.631  36.463  59.540  1.00  0.00     0.010 C 
HETATM   35  C   UNL     1      15.527  36.394  58.486  1.00  0.00     0.012 C 
HETATM   36  C   UNL     1      16.368  37.609  60.515  1.00  0.00     0.012 C 
ENDBRANCH  13  34
BRANCH  18  37
HETATM   37  C   UNL     1      21.722  38.261  53.749  1.00  0.00     0.016 C 
HETATM   38  C   UNL     1      20.492  38.924  54.370  1.00  0.00     0.012 C 
HETATM   39  C   UNL     1      22.284  39.126  52.623  1.00  0.00     0.012 C 
ENDBRANCH  18  37
BRANCH  17  40
HETATM   40  C   UNL     1      19.107  40.361  60.796  1.00  0.00     0.016 C 
HETATM   41  C   UNL     1      19.657  41.761  61.060  1.00  0.00     0.012 C 
HETATM   42  C   UNL     1      18.767  39.661  62.110  1.00  0.00     0.012 C 
ENDBRANCH  17  40
BRANCH  15  43
HETATM   43  C   UNL     1      23.732  41.600  57.818  1.00  0.00     0.010 C 
HETATM   44  C   UNL     1      25.042  40.962  57.366  1.00  0.00     0.012 C 
HETATM   45  C   UNL     1      23.662  43.059  57.376  1.00  0.00     0.012 C 
ENDBRANCH  15  43
TORSDOF 6
ENDMDL
MODEL 18
REMARK VINA RESULT:    -4.366     13.972     17.518
REMARK INTER + INTRA:          -5.168
REMARK INTER:                  -6.432
REMARK INTRA:                   1.264
REMARK UNBOUND:                 0.730
REMARK  6 active torsions:
REMARK  status: ('A' for Active; 'I' for Inactive)
REMARK    1  A    between atoms: C_13  and  C_16 
REMARK    2  A    between atoms: C_14  and  C_17 
REMARK    3  A    between atoms: C_15  and  C_18 
REMARK    4  A    between atoms: C_19  and  C_22 
REMARK    5  A    between atoms: C_20  and  C_23 
REMARK    6  A    between atoms: C_21  and  C_24 
ROOT
HETATM    1  O   UNL     1      23.972  36.727  56.179  1.00  0.00    -0.304 OA
HETATM    2  O   UNL     1      20.386  35.799  59.792  1.00  0.00    -0.304 OA
HETATM    3  O   UNL     1      19.437  39.264  56.718  1.00  0.00    -0.304 OA
HETATM    4  O   UNL     1      21.659  35.578  56.401  1.00  0.00    -0.270 OA
HETATM    5  O   UNL     1      21.131  37.745  54.478  1.00  0.00    -0.270 OA
HETATM    6  O   UNL     1      17.526  37.326  59.787  1.00  0.00    -0.270 OA
HETATM    7  O   UNL     1      23.508  38.366  57.733  1.00  0.00    -0.263 OA
HETATM    8  O   UNL     1      18.529  34.618  59.116  1.00  0.00    -0.263 OA
HETATM    9  O   UNL     1      17.989  41.046  56.759  1.00  0.00    -0.263 OA
HETATM   10  N   UNL     1      22.089  34.408  58.349  1.00  0.00    -0.340 N 
HETATM   11  N   UNL     1      22.184  39.538  55.507  1.00  0.00    -0.340 N 
HETATM   12  N   UNL     1      19.284  38.788  59.354  1.00  0.00    -0.340 N 
HETATM   13  C   UNL     1      20.704  33.892  58.368  1.00  0.00     0.190 C 
HETATM   14  C   UNL     1      23.501  38.887  55.356  1.00  0.00     0.190 C 
HETATM   15  C   UNL     1      18.390  39.830  58.809  1.00  0.00     0.190 C 
HETATM   16  C   UNL     1      23.917  35.692  57.185  1.00  0.00     0.227 C 
HETATM   17  C   UNL     1      19.668  36.687  60.666  1.00  0.00     0.227 C 
HETATM   18  C   UNL     1      19.683  39.456  55.312  1.00  0.00     0.227 C 
HETATM   19  C   UNL     1      22.460  35.229  57.276  1.00  0.00     0.250 C 
HETATM   20  C   UNL     1      21.054  38.834  55.056  1.00  0.00     0.250 C 
HETATM   21  C   UNL     1      18.722  37.616  59.891  1.00  0.00     0.250 C 
HETATM   22  C   UNL     1      23.666  37.998  56.576  1.00  0.00     0.283 C 
HETATM   23  C   UNL     1      19.740  34.812  59.115  1.00  0.00     0.283 C 
HETATM   24  C   UNL     1      18.583  40.134  57.325  1.00  0.00     0.283 C 
HETATM   25  C   UNL     1      22.965  34.057  59.471  1.00  0.00     0.153 C 
HETATM   26  C   UNL     1      22.142  40.856  56.150  1.00  0.00     0.153 C 
HETATM   27  C   UNL     1      20.708  39.110  59.468  1.00  0.00     0.153 C 
ENDROOT
BRANCH  16  28
HETATM   28  C   UNL     1      24.812  34.560  56.702  1.00  0.00     0.016 C 
HETATM   29  C   UNL     1      25.101  34.701  55.208  1.00  0.00     0.012 C 
HETATM   30  C   UNL     1      26.116  34.525  57.498  1.00  0.00     0.012 C 
ENDBRANCH  16  28
BRANCH  14  31
HETATM   31  C   UNL     1      24.697  39.821  55.220  1.00  0.00     0.010 C 
HETATM   32  C   UNL     1      25.995  39.023  55.127  1.00  0.00     0.012 C 
HETATM   33  C   UNL     1      24.536  40.727  54.002  1.00  0.00     0.012 C 
ENDBRANCH  14  31
BRANCH  13  34
HETATM   34  C   UNL     1      20.583  32.469  58.912  1.00  0.00     0.010 C 
HETATM   35  C   UNL     1      20.769  31.446  57.792  1.00  0.00     0.012 C 
HETATM   36  C   UNL     1      19.237  32.266  59.603  1.00  0.00     0.012 C 
ENDBRANCH  13  34
BRANCH  18  37
HETATM   37  C   UNL     1      18.586  38.747  54.522  1.00  0.00     0.016 C 
HETATM   38  C   UNL     1      17.821  37.773  55.418  1.00  0.00     0.012 C 
HETATM   39  C   UNL     1      17.630  39.761  53.896  1.00  0.00     0.012 C 
ENDBRANCH  18  37
BRANCH  17  40
HETATM   40  C   UNL     1      18.961  35.930  61.790  1.00  0.00     0.016 C 
HETATM   41  C   UNL     1      18.432  36.902  62.843  1.00  0.00     0.012 C 
HETATM   42  C   UNL     1      19.904  34.911  62.426  1.00  0.00     0.012 C 
ENDBRANCH  17  40
BRANCH  15  43
HETATM   43  C   UNL     1      18.468  41.116  59.633  1.00  0.00     0.010 C 
HETATM   44  C   UNL     1      18.250  40.815  61.114  1.00  0.00     0.012 C 
HETATM   45  C   UNL     1      19.811  41.808  59.416  1.00  0.00     0.012 C 
ENDBRANCH  15  43
TORSDOF 6
ENDMDL
MODEL 19
REMARK VINA RESULT:    -4.363      4.016      8.873
REMARK INTER + INTRA:          -5.163
REMARK INTER:                  -7.049
REMARK INTRA:                   1.886
REMARK UNBOUND:                 0.730
REMARK  6 active torsions:
REMARK  status: ('A' for Active; 'I' for Inactive)
REMARK    1  A    between atoms: C_13  and  C_16 
REMARK    2  A    between atoms: C_14  and  C_17 
REMARK    3  A    between atoms: C_15  and  C_18 
REMARK    4  A    between atoms: C_19  and  C_22 
REMARK    5  A    between atoms: C_20  and  C_23 
REMARK    6  A    between atoms: C_21  and  C_24 
ROOT
HETATM    1  O   UNL     1       9.376  25.209  47.042  1.00  0.00    -0.304 OA
HETATM    2  O   UNL     1       6.568  26.498  42.890  1.00  0.00    -0.304 OA
HETATM    3  O   UNL     1       7.180  29.866  46.151  1.00  0.00    -0.304 OA
HETATM    4  O   UNL     1       9.625  26.560  44.843  1.00  0.00    -0.270 OA
HETATM    5  O   UNL     1      10.014  28.612  46.919  1.00  0.00    -0.270 OA
HETATM    6  O   UNL     1       5.511  29.526  42.420  1.00  0.00    -0.270 OA
HETATM    7  O   UNL     1       7.149  25.738  47.325  1.00  0.00    -0.263 OA
HETATM    8  O   UNL     1       7.624  27.778  41.294  1.00  0.00    -0.263 OA
HETATM    9  O   UNL     1       6.060  31.814  46.625  1.00  0.00    -0.263 OA
HETATM   10  N   UNL     1       8.667  25.006  43.423  1.00  0.00    -0.340 N 
HETATM   11  N   UNL     1       8.265  28.135  48.368  1.00  0.00    -0.340 N 
HETATM   12  N   UNL     1       5.223  28.846  44.626  1.00  0.00    -0.340 N 
HETATM   13  C   UNL     1       8.819  25.929  42.279  1.00  0.00     0.190 C 
HETATM   14  C   UNL     1       8.853  26.817  48.687  1.00  0.00     0.190 C 
HETATM   15  C   UNL     1       5.039  30.228  45.114  1.00  0.00     0.190 C 
HETATM   16  C   UNL     1       9.092  24.453  45.844  1.00  0.00     0.227 C 
HETATM   17  C   UNL     1       5.297  27.160  42.773  1.00  0.00     0.227 C 
HETATM   18  C   UNL     1       8.270  30.247  47.011  1.00  0.00     0.227 C 
HETATM   19  C   UNL     1       9.149  25.432  44.669  1.00  0.00     0.250 C 
HETATM   20  C   UNL     1       8.933  28.934  47.424  1.00  0.00     0.250 C 
HETATM   21  C   UNL     1       5.364  28.620  43.246  1.00  0.00     0.250 C 
HETATM   22  C   UNL     1       8.329  25.864  47.626  1.00  0.00     0.283 C 
HETATM   23  C   UNL     1       7.617  26.855  42.102  1.00  0.00     0.283 C 
HETATM   24  C   UNL     1       6.131  30.729  46.058  1.00  0.00     0.283 C 
HETATM   25  C   UNL     1       7.991  23.727  43.186  1.00  0.00     0.153 C 
HETATM   26  C   UNL     1       7.010  28.503  49.030  1.00  0.00     0.153 C 
HETATM   27  C   UNL     1       5.068  27.760  45.596  1.00  0.00     0.153 C 
ENDROOT
BRANCH  16  28
HETATM   28  C   UNL     1      10.182  23.399  45.720  1.00  0.00     0.016 C 
HETATM   29  C   UNL     1      11.534  24.053  45.433  1.00  0.00     0.012 C 
HETATM   30  C   UNL     1      10.259  22.548  46.987  1.00  0.00     0.012 C 
ENDBRANCH  16  28
BRANCH  14  31
HETATM   31  C   UNL     1       8.556  26.272  50.078  1.00  0.00     0.010 C 
HETATM   32  C   UNL     1       8.716  24.754  50.105  1.00  0.00     0.012 C 
HETATM   33  C   UNL     1       9.464  26.926  51.117  1.00  0.00     0.012 C 
ENDBRANCH  14  31
BRANCH  13  34
HETATM   34  C   UNL     1       9.128  25.227  40.957  1.00  0.00     0.010 C 
HETATM   35  C   UNL     1       7.934  24.390  40.500  1.00  0.00     0.012 C 
HETATM   36  C   UNL     1      10.374  24.354  41.086  1.00  0.00     0.012 C 
ENDBRANCH  13  34
BRANCH  18  37
HETATM   37  C   UNL     1       9.226  31.138  46.223  1.00  0.00     0.016 C 
HETATM   38  C   UNL     1      10.466  31.467  47.054  1.00  0.00     0.012 C 
HETATM   39  C   UNL     1       9.625  30.472  44.907  1.00  0.00     0.012 C 
ENDBRANCH  18  37
BRANCH  17  40
HETATM   40  C   UNL     1       4.711  27.021  41.368  1.00  0.00     0.016 C 
HETATM   41  C   UNL     1       3.372  27.749  41.270  1.00  0.00     0.012 C 
HETATM   42  C   UNL     1       4.551  25.549  40.996  1.00  0.00     0.012 C 
ENDBRANCH  17  40
BRANCH  15  43
HETATM   43  C   UNL     1       3.659  30.417  45.744  1.00  0.00     0.010 C 
HETATM   44  C   UNL     1       3.272  31.894  45.750  1.00  0.00     0.012 C 
HETATM   45  C   UNL     1       2.615  29.590  45.000  1.00  0.00     0.012 C 
ENDBRANCH  15  43
TORSDOF 6
ENDMDL
MODEL 20
REMARK VINA RESULT:    -4.301      3.040      5.084
REMARK INTER + INTRA:          -5.079
REMARK INTER:                  -6.744
REMARK INTRA:                   1.665
REMARK UNBOUND:                 0.730
REMARK  6 active torsions:
REMARK  status: ('A' for Active; 'I' for Inactive)
REMARK    1  A    between atoms: C_13  and  C_16 
REMARK    2  A    between atoms: C_14  and  C_17 
REMARK    3  A    between atoms: C_15  and  C_18 
REMARK    4  A    between atoms: C_19  and  C_22 
REMARK    5  A    between atoms: C_20  and  C_23 
REMARK    6  A    between atoms: C_21  and  C_24 
ROOT
HETATM    1  O   UNL     1       6.673  28.263  45.374  1.00  0.00    -0.304 OA
HETATM    2  O   UNL     1       9.057  25.629  49.137  1.00  0.00    -0.304 OA
HETATM    3  O   UNL     1       9.318  30.344  49.371  1.00  0.00    -0.304 OA
HETATM    4  O   UNL     1       6.315  27.636  47.864  1.00  0.00    -0.270 OA
HETATM    5  O   UNL     1       6.471  30.576  47.945  1.00  0.00    -0.270 OA
HETATM    6  O   UNL     1      10.426  27.129  51.664  1.00  0.00    -0.270 OA
HETATM    7  O   UNL     1       8.968  28.412  45.556  1.00  0.00    -0.263 OA
HETATM    8  O   UNL     1       7.976  25.536  51.168  1.00  0.00    -0.263 OA
HETATM    9  O   UNL     1      10.733  31.786  50.463  1.00  0.00    -0.263 OA
HETATM   10  N   UNL     1       6.870  25.397  47.695  1.00  0.00    -0.340 N 
HETATM   11  N   UNL     1       8.317  30.975  46.598  1.00  0.00    -0.340 N 
HETATM   12  N   UNL     1      10.910  28.204  49.658  1.00  0.00    -0.340 N 
HETATM   13  C   UNL     1       6.690  25.223  49.152  1.00  0.00     0.190 C 
HETATM   14  C   UNL     1       7.611  30.427  45.421  1.00  0.00     0.190 C 
HETATM   15  C   UNL     1      11.333  29.448  50.333  1.00  0.00     0.190 C 
HETATM   16  C   UNL     1       6.698  26.843  45.639  1.00  0.00     0.227 C 
HETATM   17  C   UNL     1      10.376  25.756  49.694  1.00  0.00     0.227 C 
HETATM   18  C   UNL     1       8.408  31.418  49.067  1.00  0.00     0.227 C 
HETATM   19  C   UNL     1       6.615  26.667  47.157  1.00  0.00     0.250 C 
HETATM   20  C   UNL     1       7.640  30.956  47.830  1.00  0.00     0.250 C 
HETATM   21  C   UNL     1      10.561  27.087  50.437  1.00  0.00     0.250 C 
HETATM   22  C   UNL     1       7.864  28.930  45.447  1.00  0.00     0.283 C 
HETATM   23  C   UNL     1       7.968  25.495  49.942  1.00  0.00     0.283 C 
HETATM   24  C   UNL     1      10.449  30.663  50.060  1.00  0.00     0.283 C 
HETATM   25  C   UNL     1       7.338  24.245  46.920  1.00  0.00     0.153 C 
HETATM   26  C   UNL     1       9.686  31.466  46.407  1.00  0.00     0.153 C 
HETATM   27  C   UNL     1      11.049  28.144  48.202  1.00  0.00     0.153 C 
ENDROOT
BRANCH  16  28
HETATM   28  C   UNL     1       5.473  26.248  44.960  1.00  0.00     0.016 C 
HETATM   29  C   UNL     1       5.852  25.003  44.159  1.00  0.00     0.012 C 
HETATM   30  C   UNL     1       4.394  25.913  45.989  1.00  0.00     0.012 C 
ENDBRANCH  16  28
BRANCH  14  31
HETATM   31  C   UNL     1       8.015  31.006  44.071  1.00  0.00     0.010 C 
HETATM   32  C   UNL     1       7.683  30.027  42.946  1.00  0.00     0.012 C 
HETATM   33  C   UNL     1       7.326  32.348  43.834  1.00  0.00     0.012 C 
ENDBRANCH  14  31
BRANCH  13  34
HETATM   34  C   UNL     1       6.123  23.859  49.544  1.00  0.00     0.010 C 
HETATM   35  C   UNL     1       4.895  24.022  50.439  1.00  0.00     0.012 C 
HETATM   36  C   UNL     1       7.185  23.012  50.242  1.00  0.00     0.012 C 
ENDBRANCH  13  34
BRANCH  18  37
HETATM   37  C   UNL     1       7.481  31.625  50.261  1.00  0.00     0.016 C 
HETATM   38  C   UNL     1       7.636  30.485  51.268  1.00  0.00     0.012 C 
HETATM   39  C   UNL     1       7.754  32.971  50.931  1.00  0.00     0.012 C 
ENDBRANCH  18  37
BRANCH  17  40
HETATM   40  C   UNL     1      10.751  24.546  50.550  1.00  0.00     0.016 C 
HETATM   41  C   UNL     1      12.142  24.723  51.154  1.00  0.00     0.012 C 
HETATM   42  C   UNL     1      10.684  23.262  49.724  1.00  0.00     0.012 C 
ENDBRANCH  17  40
BRANCH  15  43
HETATM   43  C   UNL     1      12.797  29.774  50.033  1.00  0.00     0.010 C 
HETATM   44  C   UNL     1      13.671  28.538  50.237  1.00  0.00     0.012 C 
HETATM   45  C   UNL     1      12.945  30.310  48.613  1.00  0.00     0.012 C 
ENDBRANCH  15  43
TORSDOF 6
ENDMDL
