MODEL 1
REMARK VINA RESULT:    -8.098      0.000      0.000
REMARK INTER + INTRA:          -9.609
REMARK INTER:                 -10.938
REMARK INTRA:                   1.329
REMARK UNBOUND:                 1.329
REMARK  6 active torsions:
REMARK  status: ('A' for Active; 'I' for Inactive)
REMARK    1  A    between atoms: C_13  and  C_16 
REMARK    2  A    between atoms: C_14  and  C_17 
REMARK    3  A    between atoms: C_15  and  C_18 
REMARK    4  A    between atoms: C_19  and  C_22 
REMARK    5  A    between atoms: C_20  and  C_23 
REMARK    6  A    between atoms: C_21  and  C_24 
ROOT
HETATM    1  O   UNL     1      26.263  22.573  36.069  1.00  0.00    -0.304 OA
HETATM    2  O   UNL     1      28.927  22.507  31.632  1.00  0.00    -0.304 OA
HETATM    3  O   UNL     1      26.681  26.532  32.684  1.00  0.00    -0.304 OA
HETATM    4  O   UNL     1      28.501  23.460  35.108  1.00  0.00    -0.270 OA
HETATM    5  O   UNL     1      27.059  25.933  35.797  1.00  0.00    -0.270 OA
HETATM    6  O   UNL     1      29.261  25.163  29.805  1.00  0.00    -0.270 OA
HETATM    7  O   UNL     1      25.117  22.787  34.079  1.00  0.00    -0.263 OA
HETATM    8  O   UNL     1      30.965  23.579  31.643  1.00  0.00    -0.263 OA
HETATM    9  O   UNL     1      26.012  28.331  31.424  1.00  0.00    -0.263 OA
HETATM   10  N   UNL     1      29.172  21.513  34.056  1.00  0.00    -0.340 N 
HETATM   11  N   UNL     1      24.954  25.495  34.927  1.00  0.00    -0.340 N 
HETATM   12  N   UNL     1      27.081  24.918  30.579  1.00  0.00    -0.340 N 
HETATM   13  C   UNL     1      30.373  22.191  33.524  1.00  0.00     0.190 C 
HETATM   14  C   UNL     1      24.761  24.383  35.881  1.00  0.00     0.190 C 
HETATM   15  C   UNL     1      26.734  26.325  30.288  1.00  0.00     0.190 C 
HETATM   16  C   UNL     1      27.121  21.549  35.518  1.00  0.00     0.227 C 
HETATM   17  C   UNL     1      28.566  22.919  30.303  1.00  0.00     0.227 C 
HETATM   18  C   UNL     1      26.426  27.252  33.905  1.00  0.00     0.227 C 
HETATM   19  C   UNL     1      28.316  22.260  34.877  1.00  0.00     0.250 C 
HETATM   20  C   UNL     1      26.183  26.177  34.962  1.00  0.00     0.250 C 
HETATM   21  C   UNL     1      28.349  24.436  30.211  1.00  0.00     0.250 C 
HETATM   22  C   UNL     1      25.369  23.159  35.217  1.00  0.00     0.283 C 
HETATM   23  C   UNL     1      30.127  22.855  32.171  1.00  0.00     0.283 C 
HETATM   24  C   UNL     1      26.419  27.178  31.514  1.00  0.00     0.283 C 
HETATM   25  C   UNL     1      28.938  20.121  33.658  1.00  0.00     0.153 C 
HETATM   26  C   UNL     1      23.867  25.787  33.987  1.00  0.00     0.153 C 
HETATM   27  C   UNL     1      26.015  24.047  31.076  1.00  0.00     0.153 C 
ENDROOT
BRANCH  16  28
HETATM   28  C   UNL     1      27.573  20.681  36.683  1.00  0.00     0.016 C 
HETATM   29  C   UNL     1      28.908  21.175  37.239  1.00  0.00     0.012 C 
HETATM   30  C   UNL     1      26.512  20.657  37.783  1.00  0.00     0.012 C 
ENDBRANCH  16  28
BRANCH  14  31
HETATM   31  C   UNL     1      23.323  24.098  36.293  1.00  0.00     0.010 C 
HETATM   32  C   UNL     1      23.133  22.612  36.590  1.00  0.00     0.012 C 
HETATM   33  C   UNL     1      22.935  24.940  37.506  1.00  0.00     0.012 C 
ENDBRANCH  14  31
BRANCH  13  34
HETATM   34  C   UNL     1      31.603  21.287  33.438  1.00  0.00     0.010 C 
HETATM   35  C   UNL     1      32.284  21.173  34.802  1.00  0.00     0.012 C 
HETATM   36  C   UNL     1      32.586  21.809  32.393  1.00  0.00     0.012 C 
ENDBRANCH  13  34
BRANCH  18  37
HETATM   37  C   UNL     1      27.651  28.101  34.236  1.00  0.00     0.016 C 
HETATM   38  C   UNL     1      28.879  27.591  33.482  1.00  0.00     0.012 C 
HETATM   39  C   UNL     1      27.394  29.570  33.909  1.00  0.00     0.012 C 
ENDBRANCH  18  37
BRANCH  17  40
HETATM   40  C   UNL     1      29.555  22.399  29.259  1.00  0.00     0.016 C 
HETATM   41  C   UNL     1      29.021  22.637  27.848  1.00  0.00     0.012 C 
HETATM   42  C   UNL     1      29.842  20.916  29.482  1.00  0.00     0.012 C 
ENDBRANCH  17  40
BRANCH  15  43
HETATM   43  C   UNL     1      25.599  26.417  29.266  1.00  0.00     0.010 C 
HETATM   44  C   UNL     1      24.298  26.829  29.949  1.00  0.00     0.012 C 
HETATM   45  C   UNL     1      25.960  27.400  28.156  1.00  0.00     0.012 C 
ENDBRANCH  15  43
TORSDOF 6
ENDMDL
MODEL 2
REMARK VINA RESULT:    -7.928      2.083      6.516
REMARK INTER + INTRA:          -9.380
REMARK INTER:                 -10.944
REMARK INTRA:                   1.564
REMARK UNBOUND:                 1.329
REMARK  6 active torsions:
REMARK  status: ('A' for Active; 'I' for Inactive)
REMARK    1  A    between atoms: C_13  and  C_16 
REMARK    2  A    between atoms: C_14  and  C_17 
REMARK    3  A    between atoms: C_15  and  C_18 
REMARK    4  A    between atoms: C_19  and  C_22 
REMARK    5  A    between atoms: C_20  and  C_23 
REMARK    6  A    between atoms: C_21  and  C_24 
ROOT
HETATM    1  O   UNL     1      26.613  26.324  29.528  1.00  0.00    -0.304 OA
HETATM    2  O   UNL     1      29.047  21.973  30.917  1.00  0.00    -0.304 OA
HETATM    3  O   UNL     1      26.214  23.932  34.156  1.00  0.00    -0.304 OA
HETATM    4  O   UNL     1      26.102  23.802  29.844  1.00  0.00    -0.270 OA
HETATM    5  O   UNL     1      24.347  25.079  31.834  1.00  0.00    -0.270 OA
HETATM    6  O   UNL     1      28.456  20.521  33.755  1.00  0.00    -0.270 OA
HETATM    7  O   UNL     1      28.155  26.409  31.240  1.00  0.00    -0.263 OA
HETATM    8  O   UNL     1      27.788  20.045  30.906  1.00  0.00    -0.263 OA
HETATM    9  O   UNL     1      26.063  23.729  36.439  1.00  0.00    -0.263 OA
HETATM   10  N   UNL     1      27.960  22.976  28.742  1.00  0.00    -0.340 N 
HETATM   11  N   UNL     1      25.798  26.600  32.816  1.00  0.00    -0.340 N 
HETATM   12  N   UNL     1      28.653  22.827  33.991  1.00  0.00    -0.340 N 
HETATM   13  C   UNL     1      27.562  21.591  29.069  1.00  0.00     0.190 C 
HETATM   14  C   UNL     1      25.927  27.340  31.544  1.00  0.00     0.190 C 
HETATM   15  C   UNL     1      28.006  22.828  35.320  1.00  0.00     0.190 C 
HETATM   16  C   UNL     1      27.455  25.444  28.751  1.00  0.00     0.227 C 
HETATM   17  C   UNL     1      29.791  21.639  32.101  1.00  0.00     0.227 C 
HETATM   18  C   UNL     1      24.949  24.619  34.103  1.00  0.00     0.227 C 
HETATM   19  C   UNL     1      27.113  24.011  29.165  1.00  0.00     0.250 C 
HETATM   20  C   UNL     1      24.996  25.445  32.819  1.00  0.00     0.250 C 
HETATM   21  C   UNL     1      28.898  21.601  33.350  1.00  0.00     0.250 C 
HETATM   22  C   UNL     1      27.048  26.655  30.780  1.00  0.00     0.283 C 
HETATM   23  C   UNL     1      28.124  21.113  30.406  1.00  0.00     0.283 C 
HETATM   24  C   UNL     1      26.665  23.554  35.384  1.00  0.00     0.283 C 
HETATM   25  C   UNL     1      29.228  23.176  28.034  1.00  0.00     0.153 C 
HETATM   26  C   UNL     1      26.542  27.099  33.977  1.00  0.00     0.153 C 
HETATM   27  C   UNL     1      29.168  24.103  33.489  1.00  0.00     0.153 C 
ENDROOT
BRANCH  16  28
HETATM   28  C   UNL     1      27.106  25.680  27.289  1.00  0.00     0.016 C 
HETATM   29  C   UNL     1      26.239  26.928  27.135  1.00  0.00     0.012 C 
HETATM   30  C   UNL     1      28.373  25.803  26.443  1.00  0.00     0.012 C 
ENDBRANCH  16  28
BRANCH  14  31
HETATM   31  C   UNL     1      26.208  28.832  31.664  1.00  0.00     0.010 C 
HETATM   32  C   UNL     1      26.547  29.427  30.299  1.00  0.00     0.012 C 
HETATM   33  C   UNL     1      25.013  29.556  32.281  1.00  0.00     0.012 C 
ENDBRANCH  14  31
BRANCH  13  34
HETATM   34  C   UNL     1      27.903  20.578  27.976  1.00  0.00     0.010 C 
HETATM   35  C   UNL     1      26.960  19.377  28.041  1.00  0.00     0.012 C 
HETATM   36  C   UNL     1      29.356  20.124  28.093  1.00  0.00     0.012 C 
ENDBRANCH  13  34
BRANCH  18  37
HETATM   37  C   UNL     1      23.830  23.581  34.065  1.00  0.00     0.016 C 
HETATM   38  C   UNL     1      24.395  22.190  33.777  1.00  0.00     0.012 C 
HETATM   39  C   UNL     1      23.049  23.581  35.377  1.00  0.00     0.012 C 
ENDBRANCH  18  37
BRANCH  17  40
HETATM   40  C   UNL     1      30.606  20.359  31.918  1.00  0.00     0.016 C 
HETATM   41  C   UNL     1      31.313  19.981  33.218  1.00  0.00     0.012 C 
HETATM   42  C   UNL     1      31.617  20.523  30.785  1.00  0.00     0.012 C 
ENDBRANCH  17  40
BRANCH  15  43
HETATM   43  C   UNL     1      28.953  23.356  36.399  1.00  0.00     0.010 C 
HETATM   44  C   UNL     1      30.253  22.555  36.407  1.00  0.00     0.012 C 
HETATM   45  C   UNL     1      29.236  24.839  36.181  1.00  0.00     0.012 C 
ENDBRANCH  15  43
TORSDOF 6
ENDMDL
MODEL 3
REMARK VINA RESULT:    -7.702      2.423      6.518
REMARK INTER + INTRA:          -9.074
REMARK INTER:                 -10.266
REMARK INTRA:                   1.192
REMARK UNBOUND:                 1.329
REMARK  6 active torsions:
REMARK  status: ('A' for Active; 'I' for Inactive)
REMARK    1  A    between atoms: C_13  and  C_16 
REMARK    2  A    between atoms: C_14  and  C_17 
REMARK    3  A    between atoms: C_15  and  C_18 
REMARK    4  A    between atoms: C_19  and  C_22 
REMARK    5  A    between atoms: C_20  and  C_23 
REMARK    6  A    between atoms: C_21  and  C_24 
ROOT
HETATM    1  O   UNL     1      26.655  26.181  31.670  1.00  0.00    -0.304 OA
HETATM    2  O   UNL     1      27.221  21.340  33.410  1.00  0.00    -0.304 OA
HETATM    3  O   UNL     1      28.577  22.152  28.954  1.00  0.00    -0.304 OA
HETATM    4  O   UNL     1      28.532  24.601  32.507  1.00  0.00    -0.270 OA
HETATM    5  O   UNL     1      29.335  25.156  29.728  1.00  0.00    -0.270 OA
HETATM    6  O   UNL     1      28.674  19.050  31.635  1.00  0.00    -0.270 OA
HETATM    7  O   UNL     1      25.427  24.495  30.687  1.00  0.00    -0.263 OA
HETATM    8  O   UNL     1      29.354  20.704  34.000  1.00  0.00    -0.263 OA
HETATM    9  O   UNL     1      28.928  20.781  27.146  1.00  0.00    -0.263 OA
HETATM   10  N   UNL     1      27.430  23.781  34.367  1.00  0.00    -0.340 N 
HETATM   11  N   UNL     1      27.325  24.872  28.605  1.00  0.00    -0.340 N 
HETATM   12  N   UNL     1      27.204  20.325  30.360  1.00  0.00    -0.340 N 
HETATM   13  C   UNL     1      28.564  22.883  34.668  1.00  0.00     0.190 C 
HETATM   14  C   UNL     1      26.734  26.024  29.317  1.00  0.00     0.190 C 
HETATM   15  C   UNL     1      27.798  19.879  29.082  1.00  0.00     0.190 C 
HETATM   16  C   UNL     1      26.431  25.639  32.990  1.00  0.00     0.227 C 
HETATM   17  C   UNL     1      26.860  20.076  32.829  1.00  0.00     0.227 C 
HETATM   18  C   UNL     1      29.217  23.254  28.282  1.00  0.00     0.227 C 
HETATM   19  C   UNL     1      27.552  24.631  33.259  1.00  0.00     0.250 C 
HETATM   20  C   UNL     1      28.643  24.510  28.936  1.00  0.00     0.250 C 
HETATM   21  C   UNL     1      27.674  19.771  31.563  1.00  0.00     0.250 C 
HETATM   22  C   UNL     1      26.171  25.464  30.612  1.00  0.00     0.283 C 
HETATM   23  C   UNL     1      28.443  21.525  33.979  1.00  0.00     0.283 C 
HETATM   24  C   UNL     1      28.484  20.977  28.272  1.00  0.00     0.283 C 
HETATM   25  C   UNL     1      26.243  23.696  35.224  1.00  0.00     0.153 C 
HETATM   26  C   UNL     1      26.487  24.166  27.631  1.00  0.00     0.153 C 
HETATM   27  C   UNL     1      26.028  21.195  30.292  1.00  0.00     0.153 C 
ENDROOT
BRANCH  16  28
HETATM   28  C   UNL     1      26.511  26.805  33.964  1.00  0.00     0.016 C 
HETATM   29  C   UNL     1      27.925  27.382  34.001  1.00  0.00     0.012 C 
HETATM   30  C   UNL     1      25.501  27.890  33.592  1.00  0.00     0.012 C 
ENDBRANCH  16  28
BRANCH  14  31
HETATM   31  C   UNL     1      25.656  26.793  28.564  1.00  0.00     0.010 C 
HETATM   32  C   UNL     1      25.043  27.872  29.455  1.00  0.00     0.012 C 
HETATM   33  C   UNL     1      26.227  27.411  27.290  1.00  0.00     0.012 C 
ENDBRANCH  14  31
BRANCH  13  34
HETATM   34  C   UNL     1      28.812  22.681  36.163  1.00  0.00     0.010 C 
HETATM   35  C   UNL     1      30.305  22.525  36.446  1.00  0.00     0.012 C 
HETATM   36  C   UNL     1      28.040  21.470  36.680  1.00  0.00     0.012 C 
ENDBRANCH  13  34
BRANCH  18  37
HETATM   37  C   UNL     1      30.724  23.147  28.494  1.00  0.00     0.016 C 
HETATM   38  C   UNL     1      31.041  22.168  29.625  1.00  0.00     0.012 C 
HETATM   39  C   UNL     1      31.422  22.719  27.205  1.00  0.00     0.012 C 
ENDBRANCH  18  37
BRANCH  17  40
HETATM   40  C   UNL     1      26.917  18.943  33.854  1.00  0.00     0.016 C 
HETATM   41  C   UNL     1      26.662  17.596  33.181  1.00  0.00     0.012 C 
HETATM   42  C   UNL     1      25.908  19.182  34.976  1.00  0.00     0.012 C 
ENDBRANCH  17  40
BRANCH  15  43
HETATM   43  C   UNL     1      26.774  19.139  28.221  1.00  0.00     0.010 C 
HETATM   44  C   UNL     1      27.471  18.383  27.094  1.00  0.00     0.012 C 
HETATM   45  C   UNL     1      25.945  18.187  29.078  1.00  0.00     0.012 C 
ENDBRANCH  15  43
TORSDOF 6
ENDMDL
MODEL 4
REMARK VINA RESULT:    -7.670      1.982      6.604
REMARK INTER + INTRA:          -9.032
REMARK INTER:                 -10.047
REMARK INTRA:                   1.016
REMARK UNBOUND:                 1.329
REMARK  6 active torsions:
REMARK  status: ('A' for Active; 'I' for Inactive)
REMARK    1  A    between atoms: C_13  and  C_16 
REMARK    2  A    between atoms: C_14  and  C_17 
REMARK    3  A    between atoms: C_15  and  C_18 
REMARK    4  A    between atoms: C_19  and  C_22 
REMARK    5  A    between atoms: C_20  and  C_23 
REMARK    6  A    between atoms: C_21  and  C_24 
ROOT
HETATM    1  O   UNL     1      29.620  21.457  34.742  1.00  0.00    -0.304 OA
HETATM    2  O   UNL     1      26.126  24.971  33.249  1.00  0.00    -0.304 OA
HETATM    3  O   UNL     1      27.881  22.172  29.867  1.00  0.00    -0.304 OA
HETATM    4  O   UNL     1      27.118  21.579  34.072  1.00  0.00    -0.270 OA
HETATM    5  O   UNL     1      28.265  19.828  32.001  1.00  0.00    -0.270 OA
HETATM    6  O   UNL     1      25.002  25.072  30.211  1.00  0.00    -0.270 OA
HETATM    7  O   UNL     1      30.273  23.132  33.298  1.00  0.00    -0.263 OA
HETATM    8  O   UNL     1      23.994  24.196  32.857  1.00  0.00    -0.263 OA
HETATM    9  O   UNL     1      27.978  22.345  27.579  1.00  0.00    -0.263 OA
HETATM   10  N   UNL     1      26.557  23.432  35.338  1.00  0.00    -0.340 N 
HETATM   11  N   UNL     1      30.183  20.999  31.421  1.00  0.00    -0.340 N 
HETATM   12  N   UNL     1      27.307  24.762  30.266  1.00  0.00    -0.340 N 
HETATM   13  C   UNL     1      25.179  23.404  34.803  1.00  0.00     0.190 C 
HETATM   14  C   UNL     1      30.744  20.802  32.774  1.00  0.00     0.190 C 
HETATM   15  C   UNL     1      27.359  24.296  28.865  1.00  0.00     0.190 C 
HETATM   16  C   UNL     1      28.837  22.379  35.532  1.00  0.00     0.227 C 
HETATM   17  C   UNL     1      26.130  25.908  32.158  1.00  0.00     0.227 C 
HETATM   18  C   UNL     1      28.270  20.786  29.810  1.00  0.00     0.227 C 
HETATM   19  C   UNL     1      27.438  22.427  34.913  1.00  0.00     0.250 C 
HETATM   20  C   UNL     1      28.897  20.489  31.170  1.00  0.00     0.250 C 
HETATM   21  C   UNL     1      26.081  25.203  30.795  1.00  0.00     0.250 C 
HETATM   22  C   UNL     1      30.211  21.951  33.613  1.00  0.00     0.283 C 
HETATM   23  C   UNL     1      25.027  24.216  33.518  1.00  0.00     0.283 C 
HETATM   24  C   UNL     1      27.787  22.841  28.685  1.00  0.00     0.283 C 
HETATM   25  C   UNL     1      26.918  24.526  36.243  1.00  0.00     0.153 C 
HETATM   26  C   UNL     1      30.988  21.742  30.447  1.00  0.00     0.153 C 
HETATM   27  C   UNL     1      28.578  24.907  30.979  1.00  0.00     0.153 C 
ENDROOT
BRANCH  16  28
HETATM   28  C   UNL     1      28.783  21.814  36.943  1.00  0.00     0.016 C 
HETATM   29  C   UNL     1      27.515  20.986  37.144  1.00  0.00     0.012 C 
HETATM   30  C   UNL     1      30.023  20.971  37.236  1.00  0.00     0.012 C 
ENDBRANCH  16  28
BRANCH  14  31
HETATM   31  C   UNL     1      32.264  20.746  32.865  1.00  0.00     0.010 C 
HETATM   32  C   UNL     1      32.729  21.064  34.284  1.00  0.00     0.012 C 
HETATM   33  C   UNL     1      32.777  19.376  32.427  1.00  0.00     0.012 C 
ENDBRANCH  14  31
BRANCH  13  34
HETATM   34  C   UNL     1      24.117  23.835  35.813  1.00  0.00     0.010 C 
HETATM   35  C   UNL     1      22.959  22.837  35.838  1.00  0.00     0.012 C 
HETATM   36  C   UNL     1      23.605  25.238  35.496  1.00  0.00     0.012 C 
ENDBRANCH  13  34
BRANCH  18  37
HETATM   37  C   UNL     1      27.025  19.939  29.565  1.00  0.00     0.016 C 
HETATM   38  C   UNL     1      25.760  20.788  29.701  1.00  0.00     0.012 C 
HETATM   39  C   UNL     1      27.081  19.280  28.188  1.00  0.00     0.012 C 
ENDBRANCH  18  37
BRANCH  17  40
HETATM   40  C   UNL     1      25.039  26.967  32.315  1.00  0.00     0.016 C 
HETATM   41  C   UNL     1      25.042  27.922  31.123  1.00  0.00     0.012 C 
HETATM   42  C   UNL     1      25.221  27.737  33.621  1.00  0.00     0.012 C 
ENDBRANCH  17  40
BRANCH  15  43
HETATM   43  C   UNL     1      28.224  25.218  28.004  1.00  0.00     0.010 C 
HETATM   44  C   UNL     1      29.560  24.552  27.684  1.00  0.00     0.012 C 
HETATM   45  C   UNL     1      27.490  25.595  26.721  1.00  0.00     0.012 C 
ENDBRANCH  15  43
TORSDOF 6
ENDMDL
MODEL 5
REMARK VINA RESULT:    -7.612      2.124      7.041
REMARK INTER + INTRA:          -8.952
REMARK INTER:                 -10.093
REMARK INTRA:                   1.141
REMARK UNBOUND:                 1.329
REMARK  6 active torsions:
REMARK  status: ('A' for Active; 'I' for Inactive)
REMARK    1  A    between atoms: C_13  and  C_16 
REMARK    2  A    between atoms: C_14  and  C_17 
REMARK    3  A    between atoms: C_15  and  C_18 
REMARK    4  A    between atoms: C_19  and  C_22 
REMARK    5  A    between atoms: C_20  and  C_23 
REMARK    6  A    between atoms: C_21  and  C_24 
ROOT
HETATM    1  O   UNL     1      26.043  26.998  31.193  1.00  0.00    -0.304 OA
HETATM    2  O   UNL     1      25.750  22.907  34.350  1.00  0.00    -0.304 OA
HETATM    3  O   UNL     1      28.388  22.387  30.460  1.00  0.00    -0.304 OA
HETATM    4  O   UNL     1      27.485  25.780  32.969  1.00  0.00    -0.270 OA
HETATM    5  O   UNL     1      29.092  25.500  30.517  1.00  0.00    -0.270 OA
HETATM    6  O   UNL     1      27.494  20.225  33.829  1.00  0.00    -0.270 OA
HETATM    7  O   UNL     1      25.039  25.069  30.425  1.00  0.00    -0.263 OA
HETATM    8  O   UNL     1      27.574  22.522  35.702  1.00  0.00    -0.263 OA
HETATM    9  O   UNL     1      29.152  20.548  29.316  1.00  0.00    -0.263 OA
HETATM   10  N   UNL     1      25.840  25.527  34.574  1.00  0.00    -0.340 N 
HETATM   11  N   UNL     1      27.478  24.852  28.982  1.00  0.00    -0.340 N 
HETATM   12  N   UNL     1      26.546  21.031  31.864  1.00  0.00    -0.340 N 
HETATM   13  C   UNL     1      26.775  24.783  35.444  1.00  0.00     0.190 C 
HETATM   14  C   UNL     1      26.786  26.150  29.121  1.00  0.00     0.190 C 
HETATM   15  C   UNL     1      27.452  20.239  31.006  1.00  0.00     0.190 C 
HETATM   16  C   UNL     1      25.410  26.868  32.485  1.00  0.00     0.227 C 
HETATM   17  C   UNL     1      25.487  21.520  34.081  1.00  0.00     0.227 C 
HETATM   18  C   UNL     1      29.267  23.253  29.718  1.00  0.00     0.227 C 
HETATM   19  C   UNL     1      26.334  26.011  33.355  1.00  0.00     0.250 C 
HETATM   20  C   UNL     1      28.616  24.633  29.778  1.00  0.00     0.250 C 
HETATM   21  C   UNL     1      26.610  20.871  33.259  1.00  0.00     0.250 C 
HETATM   22  C   UNL     1      25.836  25.989  30.296  1.00  0.00     0.283 C 
HETATM   23  C   UNL     1      26.766  23.280  35.175  1.00  0.00     0.283 C 
HETATM   24  C   UNL     1      28.416  21.061  30.153  1.00  0.00     0.283 C 
HETATM   25  C   UNL     1      24.453  25.673  35.027  1.00  0.00     0.153 C 
HETATM   26  C   UNL     1      26.911  23.870  28.053  1.00  0.00     0.153 C 
HETATM   27  C   UNL     1      25.502  21.815  31.201  1.00  0.00     0.153 C 
ENDROOT
BRANCH  16  28
HETATM   28  C   UNL     1      25.284  28.273  33.057  1.00  0.00     0.016 C 
HETATM   29  C   UNL     1      26.529  28.641  33.864  1.00  0.00     0.012 C 
HETATM   30  C   UNL     1      25.050  29.291  31.942  1.00  0.00     0.012 C 
ENDBRANCH  16  28
BRANCH  14  31
HETATM   31  C   UNL     1      26.026  26.636  27.893  1.00  0.00     0.010 C 
HETATM   32  C   UNL     1      25.225  27.894  28.221  1.00  0.00     0.012 C 
HETATM   33  C   UNL     1      26.987  26.900  26.736  1.00  0.00     0.012 C 
ENDBRANCH  14  31
BRANCH  13  34
HETATM   34  C   UNL     1      26.566  25.041  36.936  1.00  0.00     0.010 C 
HETATM   35  C   UNL     1      27.860  25.528  37.586  1.00  0.00     0.012 C 
HETATM   36  C   UNL     1      26.057  23.783  37.636  1.00  0.00     0.012 C 
ENDBRANCH  13  34
BRANCH  18  37
HETATM   37  C   UNL     1      30.639  23.247  30.388  1.00  0.00     0.016 C 
HETATM   38  C   UNL     1      30.563  22.585  31.764  1.00  0.00     0.012 C 
HETATM   39  C   UNL     1      31.667  22.538  29.509  1.00  0.00     0.012 C 
ENDBRANCH  18  37
BRANCH  17  40
HETATM   40  C   UNL     1      25.169  20.744  35.360  1.00  0.00     0.016 C 
HETATM   41  C   UNL     1      25.117  19.244  35.080  1.00  0.00     0.012 C 
HETATM   42  C   UNL     1      23.851  21.224  35.964  1.00  0.00     0.012 C 
ENDBRANCH  17  40
BRANCH  15  43
HETATM   43  C   UNL     1      26.672  19.254  30.134  1.00  0.00     0.010 C 
HETATM   44  C   UNL     1      26.657  19.723  28.682  1.00  0.00     0.012 C 
HETATM   45  C   UNL     1      27.271  17.855  30.242  1.00  0.00     0.012 C 
ENDBRANCH  15  43
TORSDOF 6
ENDMDL
MODEL 6
REMARK VINA RESULT:    -7.242      2.571      6.917
REMARK INTER + INTRA:          -8.453
REMARK INTER:                  -9.206
REMARK INTRA:                   0.754
REMARK UNBOUND:                 1.329
REMARK  6 active torsions:
REMARK  status: ('A' for Active; 'I' for Inactive)
REMARK    1  A    between atoms: C_13  and  C_16 
REMARK    2  A    between atoms: C_14  and  C_17 
REMARK    3  A    between atoms: C_15  and  C_18 
REMARK    4  A    between atoms: C_19  and  C_22 
REMARK    5  A    between atoms: C_20  and  C_23 
REMARK    6  A    between atoms: C_21  and  C_24 
ROOT
HETATM    1  O   UNL     1      25.950  23.869  30.612  1.00  0.00    -0.304 OA
HETATM    2  O   UNL     1      30.804  22.204  29.942  1.00  0.00    -0.304 OA
HETATM    3  O   UNL     1      28.531  20.595  33.762  1.00  0.00    -0.304 OA
HETATM    4  O   UNL     1      27.206  21.745  29.819  1.00  0.00    -0.270 OA
HETATM    5  O   UNL     1      25.754  20.796  32.199  1.00  0.00    -0.270 OA
HETATM    6  O   UNL     1      32.124  19.971  31.886  1.00  0.00    -0.270 OA
HETATM    7  O   UNL     1      27.552  24.455  32.164  1.00  0.00    -0.263 OA
HETATM    8  O   UNL     1      31.052  20.066  29.123  1.00  0.00    -0.263 OA
HETATM    9  O   UNL     1      29.243  19.663  35.736  1.00  0.00    -0.263 OA
HETATM   10  N   UNL     1      28.732  22.794  28.434  1.00  0.00    -0.340 N 
HETATM   11  N   UNL     1      26.193  22.498  33.713  1.00  0.00    -0.340 N 
HETATM   12  N   UNL     1      30.938  21.569  33.090  1.00  0.00    -0.340 N 
HETATM   13  C   UNL     1      29.383  21.501  28.138  1.00  0.00     0.190 C 
HETATM   14  C   UNL     1      25.448  23.466  32.882  1.00  0.00     0.190 C 
HETATM   15  C   UNL     1      30.872  20.725  34.301  1.00  0.00     0.190 C 
HETATM   16  C   UNL     1      26.863  24.093  29.516  1.00  0.00     0.227 C 
HETATM   17  C   UNL     1      31.915  22.128  30.851  1.00  0.00     0.227 C 
HETATM   18  C   UNL     1      27.170  20.208  34.035  1.00  0.00     0.227 C 
HETATM   19  C   UNL     1      27.612  22.779  29.277  1.00  0.00     0.250 C 
HETATM   20  C   UNL     1      26.308  21.181  33.233  1.00  0.00     0.250 C 
HETATM   21  C   UNL     1      31.667  21.114  31.978  1.00  0.00     0.250 C 
HETATM   22  C   UNL     1      26.451  24.005  31.876  1.00  0.00     0.283 C 
HETATM   23  C   UNL     1      30.495  21.158  29.127  1.00  0.00     0.283 C 
HETATM   24  C   UNL     1      29.467  20.277  34.698  1.00  0.00     0.283 C 
HETATM   25  C   UNL     1      29.322  24.006  27.857  1.00  0.00     0.153 C 
HETATM   26  C   UNL     1      26.790  22.984  34.961  1.00  0.00     0.153 C 
HETATM   27  C   UNL     1      30.386  22.923  33.178  1.00  0.00     0.153 C 
ENDROOT
BRANCH  16  28
HETATM   28  C   UNL     1      26.017  24.457  28.305  1.00  0.00     0.016 C 
HETATM   29  C   UNL     1      24.664  23.748  28.359  1.00  0.00     0.012 C 
HETATM   30  C   UNL     1      25.823  25.971  28.216  1.00  0.00     0.012 C 
ENDBRANCH  16  28
BRANCH  14  31
HETATM   31  C   UNL     1      24.783  24.615  33.629  1.00  0.00     0.010 C 
HETATM   32  C   UNL     1      24.403  25.736  32.663  1.00  0.00     0.012 C 
HETATM   33  C   UNL     1      23.553  24.122  34.387  1.00  0.00     0.012 C 
ENDBRANCH  14  31
BRANCH  13  34
HETATM   34  C   UNL     1      29.913  21.391  26.709  1.00  0.00     0.010 C 
HETATM   35  C   UNL     1      29.590  20.019  26.118  1.00  0.00     0.012 C 
HETATM   36  C   UNL     1      31.418  21.648  26.669  1.00  0.00     0.012 C 
ENDBRANCH  13  34
BRANCH  18  37
HETATM   37  C   UNL     1      26.970  18.767  33.574  1.00  0.00     0.016 C 
HETATM   38  C   UNL     1      28.171  18.291  32.756  1.00  0.00     0.012 C 
HETATM   39  C   UNL     1      26.738  17.845  34.769  1.00  0.00     0.012 C 
ENDBRANCH  18  37
BRANCH  17  40
HETATM   40  C   UNL     1      33.234  21.885  30.118  1.00  0.00     0.016 C 
HETATM   41  C   UNL     1      34.393  21.806  31.109  1.00  0.00     0.012 C 
HETATM   42  C   UNL     1      33.485  22.982  29.085  1.00  0.00     0.012 C 
ENDBRANCH  17  40
BRANCH  15  43
HETATM   43  C   UNL     1      31.574  21.393  35.484  1.00  0.00     0.010 C 
HETATM   44  C   UNL     1      30.553  22.053  36.408  1.00  0.00     0.012 C 
HETATM   45  C   UNL     1      32.415  20.376  36.249  1.00  0.00     0.012 C 
ENDBRANCH  15  43
TORSDOF 6
ENDMDL
MODEL 7
REMARK VINA RESULT:    -7.227      2.476      6.909
REMARK INTER + INTRA:          -8.433
REMARK INTER:                  -9.576
REMARK INTRA:                   1.143
REMARK UNBOUND:                 1.329
REMARK  6 active torsions:
REMARK  status: ('A' for Active; 'I' for Inactive)
REMARK    1  A    between atoms: C_13  and  C_16 
REMARK    2  A    between atoms: C_14  and  C_17 
REMARK    3  A    between atoms: C_15  and  C_18 
REMARK    4  A    between atoms: C_19  and  C_22 
REMARK    5  A    between atoms: C_20  and  C_23 
REMARK    6  A    between atoms: C_21  and  C_24 
ROOT
HETATM    1  O   UNL     1      26.970  19.142  30.943  1.00  0.00    -0.304 OA
HETATM    2  O   UNL     1      25.869  24.154  31.614  1.00  0.00    -0.304 OA
HETATM    3  O   UNL     1      27.971  21.953  35.232  1.00  0.00    -0.304 OA
HETATM    4  O   UNL     1      28.179  21.434  30.953  1.00  0.00    -0.270 OA
HETATM    5  O   UNL     1      29.464  20.008  33.186  1.00  0.00    -0.270 OA
HETATM    6  O   UNL     1      26.810  25.765  34.264  1.00  0.00    -0.270 OA
HETATM    7  O   UNL     1      25.443  19.738  32.565  1.00  0.00    -0.263 OA
HETATM    8  O   UNL     1      27.628  25.626  31.418  1.00  0.00    -0.263 OA
HETATM    9  O   UNL     1      28.140  22.425  37.473  1.00  0.00    -0.263 OA
HETATM   10  N   UNL     1      26.653  22.587  29.652  1.00  0.00    -0.340 N 
HETATM   11  N   UNL     1      27.622  19.114  34.279  1.00  0.00    -0.340 N 
HETATM   12  N   UNL     1      25.955  23.666  34.791  1.00  0.00    -0.340 N 
HETATM   13  C   UNL     1      27.428  23.835  29.815  1.00  0.00     0.190 C 
HETATM   14  C   UNL     1      27.304  18.269  33.109  1.00  0.00     0.190 C 
HETATM   15  C   UNL     1      26.554  23.671  36.141  1.00  0.00     0.190 C 
HETATM   16  C   UNL     1      26.427  20.104  30.012  1.00  0.00     0.227 C 
HETATM   17  C   UNL     1      25.234  24.848  32.701  1.00  0.00     0.227 C 
HETATM   18  C   UNL     1      28.986  20.936  35.338  1.00  0.00     0.227 C 
HETATM   19  C   UNL     1      27.161  21.426  30.252  1.00  0.00     0.250 C 
HETATM   20  C   UNL     1      28.723  19.983  34.174  1.00  0.00     0.250 C 
HETATM   21  C   UNL     1      26.082  24.809  33.981  1.00  0.00     0.250 C 
HETATM   22  C   UNL     1      26.439  19.127  32.202  1.00  0.00     0.283 C 
HETATM   23  C   UNL     1      27.007  24.636  31.045  1.00  0.00     0.283 C 
HETATM   24  C   UNL     1      27.630  22.612  36.373  1.00  0.00     0.283 C 
HETATM   25  C   UNL     1      25.392  22.656  28.908  1.00  0.00     0.153 C 
HETATM   26  C   UNL     1      26.749  19.015  35.452  1.00  0.00     0.153 C 
HETATM   27  C   UNL     1      25.102  22.531  34.433  1.00  0.00     0.153 C 
ENDROOT
BRANCH  16  28
HETATM   28  C   UNL     1      26.715  19.575  28.615  1.00  0.00     0.016 C 
HETATM   29  C   UNL     1      28.194  19.744  28.268  1.00  0.00     0.012 C 
HETATM   30  C   UNL     1      26.303  18.108  28.496  1.00  0.00     0.012 C 
ENDBRANCH  16  28
BRANCH  14  31
HETATM   31  C   UNL     1      26.605  16.949  33.409  1.00  0.00     0.010 C 
HETATM   32  C   UNL     1      26.182  16.259  32.114  1.00  0.00     0.012 C 
HETATM   33  C   UNL     1      27.511  16.036  34.232  1.00  0.00     0.012 C 
ENDBRANCH  14  31
BRANCH  13  34
HETATM   34  C   UNL     1      27.408  24.738  28.582  1.00  0.00     0.010 C 
HETATM   35  C   UNL     1      28.819  24.916  28.022  1.00  0.00     0.012 C 
HETATM   36  C   UNL     1      26.790  26.094  28.913  1.00  0.00     0.012 C 
ENDBRANCH  13  34
BRANCH  18  37
HETATM   37  C   UNL     1      30.356  21.599  35.225  1.00  0.00     0.016 C 
HETATM   38  C   UNL     1      30.212  23.069  34.831  1.00  0.00     0.012 C 
HETATM   39  C   UNL     1      31.129  21.469  36.536  1.00  0.00     0.012 C 
ENDBRANCH  18  37
BRANCH  17  40
HETATM   40  C   UNL     1      24.825  26.267  32.308  1.00  0.00     0.016 C 
HETATM   41  C   UNL     1      24.010  26.920  33.422  1.00  0.00     0.012 C 
HETATM   42  C   UNL     1      24.034  26.255  31.001  1.00  0.00     0.012 C 
ENDBRANCH  17  40
BRANCH  15  43
HETATM   43  C   UNL     1      25.480  23.590  37.227  1.00  0.00     0.010 C 
HETATM   44  C   UNL     1      24.393  24.633  36.980  1.00  0.00     0.012 C 
HETATM   45  C   UNL     1      24.880  22.188  37.280  1.00  0.00     0.012 C 
ENDBRANCH  15  43
TORSDOF 6
ENDMDL
MODEL 8
REMARK VINA RESULT:    -7.172      3.674      8.137
REMARK INTER + INTRA:          -8.358
REMARK INTER:                  -9.122
REMARK INTRA:                   0.764
REMARK UNBOUND:                 1.329
REMARK  6 active torsions:
REMARK  status: ('A' for Active; 'I' for Inactive)
REMARK    1  A    between atoms: C_13  and  C_16 
REMARK    2  A    between atoms: C_14  and  C_17 
REMARK    3  A    between atoms: C_15  and  C_18 
REMARK    4  A    between atoms: C_19  and  C_22 
REMARK    5  A    between atoms: C_20  and  C_23 
REMARK    6  A    between atoms: C_21  and  C_24 
ROOT
HETATM    1  O   UNL     1      30.840  21.698  27.244  1.00  0.00    -0.304 OA
HETATM    2  O   UNL     1      27.809  18.465  29.917  1.00  0.00    -0.304 OA
HETATM    3  O   UNL     1      26.983  23.086  30.484  1.00  0.00    -0.304 OA
HETATM    4  O   UNL     1      28.432  20.744  27.162  1.00  0.00    -0.270 OA
HETATM    5  O   UNL     1      27.979  23.634  27.501  1.00  0.00    -0.270 OA
HETATM    6  O   UNL     1      25.307  19.538  31.676  1.00  0.00    -0.270 OA
HETATM    7  O   UNL     1      30.943  21.725  29.548  1.00  0.00    -0.263 OA
HETATM    8  O   UNL     1      25.685  18.133  29.093  1.00  0.00    -0.263 OA
HETATM    9  O   UNL     1      25.903  24.300  32.107  1.00  0.00    -0.263 OA
HETATM   10  N   UNL     1      28.970  18.530  27.557  1.00  0.00    -0.340 N 
HETATM   11  N   UNL     1      29.491  24.141  29.186  1.00  0.00    -0.340 N 
HETATM   12  N   UNL     1      27.197  20.862  31.970  1.00  0.00    -0.340 N 
HETATM   13  C   UNL     1      27.539  18.160  27.550  1.00  0.00     0.190 C 
HETATM   14  C   UNL     1      30.627  23.794  28.307  1.00  0.00     0.190 C 
HETATM   15  C   UNL     1      26.422  21.981  32.547  1.00  0.00     0.190 C 
HETATM   16  C   UNL     1      30.773  20.256  27.217  1.00  0.00     0.227 C 
HETATM   17  C   UNL     1      27.419  18.458  31.300  1.00  0.00     0.227 C 
HETATM   18  C   UNL     1      27.019  24.229  29.609  1.00  0.00     0.227 C 
HETATM   19  C   UNL     1      29.294  19.872  27.313  1.00  0.00     0.250 C 
HETATM   20  C   UNL     1      28.194  23.977  28.667  1.00  0.00     0.250 C 
HETATM   21  C   UNL     1      26.535  19.663  31.655  1.00  0.00     0.250 C 
HETATM   22  C   UNL     1      30.836  22.298  28.472  1.00  0.00     0.283 C 
HETATM   23  C   UNL     1      26.894  18.266  28.931  1.00  0.00     0.283 C 
HETATM   24  C   UNL     1      26.412  23.258  31.709  1.00  0.00     0.283 C 
HETATM   25  C   UNL     1      29.947  17.479  27.856  1.00  0.00     0.153 C 
HETATM   26  C   UNL     1      29.792  24.597  30.546  1.00  0.00     0.153 C 
HETATM   27  C   UNL     1      28.654  21.001  31.923  1.00  0.00     0.153 C 
ENDROOT
BRANCH  16  28
HETATM   28  C   UNL     1      31.359  19.813  25.884  1.00  0.00     0.016 C 
HETATM   29  C   UNL     1      31.425  20.986  24.908  1.00  0.00     0.012 C 
HETATM   30  C   UNL     1      32.746  19.202  26.080  1.00  0.00     0.012 C 
ENDBRANCH  16  28
BRANCH  14  31
HETATM   31  C   UNL     1      31.929  24.539  28.573  1.00  0.00     0.010 C 
HETATM   32  C   UNL     1      33.130  23.669  28.209  1.00  0.00     0.012 C 
HETATM   33  C   UNL     1      31.965  25.853  27.797  1.00  0.00     0.012 C 
ENDBRANCH  14  31
BRANCH  13  34
HETATM   34  C   UNL     1      27.262  16.779  26.956  1.00  0.00     0.010 C 
HETATM   35  C   UNL     1      26.258  16.877  25.808  1.00  0.00     0.012 C 
HETATM   36  C   UNL     1      26.753  15.821  28.031  1.00  0.00     0.012 C 
ENDBRANCH  13  34
BRANCH  18  37
HETATM   37  C   UNL     1      25.696  24.305  28.851  1.00  0.00     0.016 C 
HETATM   38  C   UNL     1      24.903  23.009  29.020  1.00  0.00     0.012 C 
HETATM   39  C   UNL     1      24.871  25.501  29.322  1.00  0.00     0.012 C 
ENDBRANCH  18  37
BRANCH  17  40
HETATM   40  C   UNL     1      26.789  17.125  31.706  1.00  0.00     0.016 C 
HETATM   41  C   UNL     1      26.531  17.087  33.210  1.00  0.00     0.012 C 
HETATM   42  C   UNL     1      27.682  15.959  31.285  1.00  0.00     0.012 C 
ENDBRANCH  17  40
BRANCH  15  43
HETATM   43  C   UNL     1      26.866  22.284  33.979  1.00  0.00     0.010 C 
HETATM   44  C   UNL     1      27.719  23.549  34.017  1.00  0.00     0.012 C 
HETATM   45  C   UNL     1      25.653  22.424  34.894  1.00  0.00     0.012 C 
ENDBRANCH  15  43
TORSDOF 6
ENDMDL
MODEL 9
REMARK VINA RESULT:    -6.876     17.600     22.497
REMARK INTER + INTRA:          -7.959
REMARK INTER:                  -8.771
REMARK INTRA:                   0.812
REMARK UNBOUND:                 1.329
REMARK  6 active torsions:
REMARK  status: ('A' for Active; 'I' for Inactive)
REMARK    1  A    between atoms: C_13  and  C_16 
REMARK    2  A    between atoms: C_14  and  C_17 
REMARK    3  A    between atoms: C_15  and  C_18 
REMARK    4  A    between atoms: C_19  and  C_22 
REMARK    5  A    between atoms: C_20  and  C_23 
REMARK    6  A    between atoms: C_21  and  C_24 
ROOT
HETATM    1  O   UNL     1      31.328  13.845  18.707  1.00  0.00    -0.304 OA
HETATM    2  O   UNL     1      31.340  11.865  13.926  1.00  0.00    -0.304 OA
HETATM    3  O   UNL     1      34.291   9.878  17.040  1.00  0.00    -0.304 OA
HETATM    4  O   UNL     1      30.433  11.770  17.438  1.00  0.00    -0.270 OA
HETATM    5  O   UNL     1      32.273  10.587  19.410  1.00  0.00    -0.270 OA
HETATM    6  O   UNL     1      33.078   9.233  13.176  1.00  0.00    -0.270 OA
HETATM    7  O   UNL     1      33.244  14.020  17.435  1.00  0.00    -0.263 OA
HETATM    8  O   UNL     1      30.220   9.874  13.637  1.00  0.00    -0.263 OA
HETATM    9  O   UNL     1      36.169   8.575  16.813  1.00  0.00    -0.263 OA
HETATM   10  N   UNL     1      29.584  12.883  15.598  1.00  0.00    -0.340 N 
HETATM   11  N   UNL     1      34.122  11.973  19.201  1.00  0.00    -0.340 N 
HETATM   12  N   UNL     1      34.290  10.719  14.493  1.00  0.00    -0.340 N 
HETATM   13  C   UNL     1      29.197  11.599  14.975  1.00  0.00     0.190 C 
HETATM   14  C   UNL     1      33.346  13.129  19.697  1.00  0.00     0.190 C 
HETATM   15  C   UNL     1      35.295   9.699  14.861  1.00  0.00     0.190 C 
HETATM   16  C   UNL     1      30.490  14.158  17.573  1.00  0.00     0.227 C 
HETATM   17  C   UNL     1      32.423  11.539  13.037  1.00  0.00     0.227 C 
HETATM   18  C   UNL     1      34.217   9.581  18.447  1.00  0.00     0.227 C 
HETATM   19  C   UNL     1      30.174  12.836  16.868  1.00  0.00     0.250 C 
HETATM   20  C   UNL     1      33.448  10.747  19.064  1.00  0.00     0.250 C 
HETATM   21  C   UNL     1      33.280  10.384  13.574  1.00  0.00     0.250 C 
HETATM   22  C   UNL     1      32.670  13.728  18.475  1.00  0.00     0.283 C 
HETATM   23  C   UNL     1      30.309  10.999  14.117  1.00  0.00     0.283 C 
HETATM   24  C   UNL     1      35.321   9.326  16.341  1.00  0.00     0.283 C 
HETATM   25  C   UNL     1      29.359  14.111  14.830  1.00  0.00     0.153 C 
HETATM   26  C   UNL     1      35.529  12.193  18.852  1.00  0.00     0.153 C 
HETATM   27  C   UNL     1      34.507  12.086  14.971  1.00  0.00     0.153 C 
ENDROOT
BRANCH  16  28
HETATM   28  C   UNL     1      29.221  14.791  18.123  1.00  0.00     0.016 C 
HETATM   29  C   UNL     1      28.939  14.290  19.539  1.00  0.00     0.012 C 
HETATM   30  C   UNL     1      29.327  16.315  18.107  1.00  0.00     0.012 C 
ENDBRANCH  16  28
BRANCH  14  31
HETATM   31  C   UNL     1      34.140  14.198  20.436  1.00  0.00     0.010 C 
HETATM   32  C   UNL     1      33.363  15.512  20.475  1.00  0.00     0.012 C 
HETATM   33  C   UNL     1      34.480  13.734  21.850  1.00  0.00     0.012 C 
ENDBRANCH  14  31
BRANCH  13  34
HETATM   34  C   UNL     1      27.904  11.673  14.164  1.00  0.00     0.010 C 
HETATM   35  C   UNL     1      26.892  10.644  14.667  1.00  0.00     0.012 C 
HETATM   36  C   UNL     1      28.184  11.463  12.677  1.00  0.00     0.012 C 
ENDBRANCH  13  34
BRANCH  18  37
HETATM   37  C   UNL     1      33.478   8.258  18.630  1.00  0.00     0.016 C 
HETATM   38  C   UNL     1      32.847   7.807  17.312  1.00  0.00     0.012 C 
HETATM   39  C   UNL     1      34.419   7.182  19.168  1.00  0.00     0.012 C 
ENDBRANCH  18  37
BRANCH  17  40
HETATM   40  C   UNL     1      31.932  11.296  11.610  1.00  0.00     0.016 C 
HETATM   41  C   UNL     1      33.113  11.100  10.661  1.00  0.00     0.012 C 
HETATM   42  C   UNL     1      31.052  12.452  11.140  1.00  0.00     0.012 C 
ENDBRANCH  17  40
BRANCH  15  43
HETATM   43  C   UNL     1      36.692  10.099  14.384  1.00  0.00     0.010 C 
HETATM   44  C   UNL     1      37.426  10.876  15.474  1.00  0.00     0.012 C 
HETATM   45  C   UNL     1      37.489   8.864  13.974  1.00  0.00     0.012 C 
ENDBRANCH  15  43
TORSDOF 6
ENDMDL
MODEL 10
REMARK VINA RESULT:    -6.743     19.628     23.176
REMARK INTER + INTRA:          -7.779
REMARK INTER:                  -8.564
REMARK INTRA:                   0.785
REMARK UNBOUND:                 1.329
REMARK  6 active torsions:
REMARK  status: ('A' for Active; 'I' for Inactive)
REMARK    1  A    between atoms: C_13  and  C_16 
REMARK    2  A    between atoms: C_14  and  C_17 
REMARK    3  A    between atoms: C_15  and  C_18 
REMARK    4  A    between atoms: C_19  and  C_22 
REMARK    5  A    between atoms: C_20  and  C_23 
REMARK    6  A    between atoms: C_21  and  C_24 
ROOT
HETATM    1  O   UNL     1      30.506   7.401  17.522  1.00  0.00    -0.304 OA
HETATM    2  O   UNL     1      35.619   7.634  16.754  1.00  0.00    -0.304 OA
HETATM    3  O   UNL     1      33.230  11.690  16.303  1.00  0.00    -0.304 OA
HETATM    4  O   UNL     1      32.644   8.189  18.758  1.00  0.00    -0.270 OA
HETATM    5  O   UNL     1      31.104  10.681  18.461  1.00  0.00    -0.270 OA
HETATM    6  O   UNL     1      37.140  10.452  16.256  1.00  0.00    -0.270 OA
HETATM    7  O   UNL     1      31.293   7.962  15.428  1.00  0.00    -0.263 OA
HETATM    8  O   UNL     1      36.876   8.505  18.475  1.00  0.00    -0.263 OA
HETATM    9  O   UNL     1      33.705  13.684  15.270  1.00  0.00    -0.263 OA
HETATM   10  N   UNL     1      33.950   6.332  18.316  1.00  0.00    -0.340 N 
HETATM   11  N   UNL     1      30.440  10.549  16.242  1.00  0.00    -0.340 N 
HETATM   12  N   UNL     1      35.160  10.317  15.043  1.00  0.00    -0.340 N 
HETATM   13  C   UNL     1      35.103   6.956  19.000  1.00  0.00     0.190 C 
HETATM   14  C   UNL     1      29.625   9.351  16.529  1.00  0.00     0.190 C 
HETATM   15  C   UNL     1      35.111  11.774  14.805  1.00  0.00     0.190 C 
HETATM   16  C   UNL     1      31.514   6.378  17.678  1.00  0.00     0.227 C 
HETATM   17  C   UNL     1      36.393   8.238  15.704  1.00  0.00     0.227 C 
HETATM   18  C   UNL     1      32.104  12.275  16.985  1.00  0.00     0.227 C 
HETATM   19  C   UNL     1      32.745   7.048  18.292  1.00  0.00     0.250 C 
HETATM   20  C   UNL     1      31.176  11.105  17.304  1.00  0.00     0.250 C 
HETATM   21  C   UNL     1      36.271   9.769  15.707  1.00  0.00     0.250 C 
HETATM   22  C   UNL     1      30.567   8.167  16.392  1.00  0.00     0.283 C 
HETATM   23  C   UNL     1      35.961   7.802  18.060  1.00  0.00     0.283 C 
HETATM   24  C   UNL     1      33.937  12.496  15.464  1.00  0.00     0.283 C 
HETATM   25  C   UNL     1      34.156   5.028  17.680  1.00  0.00     0.153 C 
HETATM   26  C   UNL     1      30.455  11.053  14.865  1.00  0.00     0.153 C 
HETATM   27  C   UNL     1      34.126   9.493  14.412  1.00  0.00     0.153 C 
ENDROOT
BRANCH  16  28
HETATM   28  C   UNL     1      30.940   5.335  18.625  1.00  0.00     0.016 C 
HETATM   29  C   UNL     1      29.741   5.899  19.387  1.00  0.00     0.012 C 
HETATM   30  C   UNL     1      30.542   4.072  17.862  1.00  0.00     0.012 C 
ENDBRANCH  16  28
BRANCH  14  31
HETATM   31  C   UNL     1      28.398   9.152  15.649  1.00  0.00     0.010 C 
HETATM   32  C   UNL     1      27.932   7.698  15.698  1.00  0.00     0.012 C 
HETATM   33  C   UNL     1      27.271  10.090  16.076  1.00  0.00     0.012 C 
ENDBRANCH  14  31
BRANCH  13  34
HETATM   34  C   UNL     1      35.988   5.961  19.749  1.00  0.00     0.010 C 
HETATM   35  C   UNL     1      36.045   6.304  21.237  1.00  0.00     0.012 C 
HETATM   36  C   UNL     1      37.394   5.931  19.153  1.00  0.00     0.012 C 
ENDBRANCH  13  34
BRANCH  18  37
HETATM   37  C   UNL     1      32.604  12.960  18.254  1.00  0.00     0.016 C 
HETATM   38  C   UNL     1      34.049  12.559  18.550  1.00  0.00     0.012 C 
HETATM   39  C   UNL     1      32.485  14.478  18.131  1.00  0.00     0.012 C 
ENDBRANCH  18  37
BRANCH  17  40
HETATM   40  C   UNL     1      37.846   7.762  15.724  1.00  0.00     0.016 C 
HETATM   41  C   UNL     1      38.581   8.228  14.469  1.00  0.00     0.012 C 
HETATM   42  C   UNL     1      37.911   6.241  15.851  1.00  0.00     0.012 C 
ENDBRANCH  17  40
BRANCH  15  43
HETATM   43  C   UNL     1      35.166  12.096  13.311  1.00  0.00     0.010 C 
HETATM   44  C   UNL     1      33.777  12.456  12.791  1.00  0.00     0.012 C 
HETATM   45  C   UNL     1      36.151  13.230  13.045  1.00  0.00     0.012 C 
ENDBRANCH  15  43
TORSDOF 6
ENDMDL
MODEL 11
REMARK VINA RESULT:    -6.630      2.808      6.262
REMARK INTER + INTRA:          -7.627
REMARK INTER:                  -8.491
REMARK INTRA:                   0.865
REMARK UNBOUND:                 1.329
REMARK  6 active torsions:
REMARK  status: ('A' for Active; 'I' for Inactive)
REMARK    1  A    between atoms: C_13  and  C_16 
REMARK    2  A    between atoms: C_14  and  C_17 
REMARK    3  A    between atoms: C_15  and  C_18 
REMARK    4  A    between atoms: C_19  and  C_22 
REMARK    5  A    between atoms: C_20  and  C_23 
REMARK    6  A    between atoms: C_21  and  C_24 
ROOT
HETATM    1  O   UNL     1      26.137  24.381  33.422  1.00  0.00    -0.304 OA
HETATM    2  O   UNL     1      27.177  19.363  34.143  1.00  0.00    -0.304 OA
HETATM    3  O   UNL     1      27.932  21.071  29.799  1.00  0.00    -0.304 OA
HETATM    4  O   UNL     1      28.187  22.825  33.734  1.00  0.00    -0.270 OA
HETATM    5  O   UNL     1      28.612  23.934  31.039  1.00  0.00    -0.270 OA
HETATM    6  O   UNL     1      28.526  17.551  31.818  1.00  0.00    -0.270 OA
HETATM    7  O   UNL     1      24.893  22.811  32.280  1.00  0.00    -0.263 OA
HETATM    8  O   UNL     1      29.398  18.797  34.363  1.00  0.00    -0.263 OA
HETATM    9  O   UNL     1      28.134  20.082  27.737  1.00  0.00    -0.263 OA
HETATM   10  N   UNL     1      27.367  21.599  35.516  1.00  0.00    -0.340 N 
HETATM   11  N   UNL     1      26.498  23.705  30.110  1.00  0.00    -0.340 N 
HETATM   12  N   UNL     1      26.844  18.920  30.976  1.00  0.00    -0.340 N 
HETATM   13  C   UNL     1      28.578  20.751  35.514  1.00  0.00     0.190 C 
HETATM   14  C   UNL     1      25.936  24.660  31.088  1.00  0.00     0.190 C 
HETATM   15  C   UNL     1      27.301  18.760  29.580  1.00  0.00     0.190 C 
HETATM   16  C   UNL     1      26.107  23.593  34.632  1.00  0.00     0.227 C 
HETATM   17  C   UNL     1      26.819  18.201  33.377  1.00  0.00     0.227 C 
HETATM   18  C   UNL     1      28.422  22.323  29.282  1.00  0.00     0.227 C 
HETATM   19  C   UNL     1      27.305  22.643  34.581  1.00  0.00     0.250 C 
HETATM   20  C   UNL     1      27.864  23.391  30.219  1.00  0.00     0.250 C 
HETATM   21  C   UNL     1      27.487  18.195  31.994  1.00  0.00     0.250 C 
HETATM   22  C   UNL     1      25.567  23.833  32.308  1.00  0.00     0.283 C 
HETATM   23  C   UNL     1      28.448  19.535  34.599  1.00  0.00     0.283 C 
HETATM   24  C   UNL     1      27.821  20.036  28.922  1.00  0.00     0.283 C 
HETATM   25  C   UNL     1      26.301  21.268  36.465  1.00  0.00     0.153 C 
HETATM   26  C   UNL     1      25.587  23.124  29.119  1.00  0.00     0.153 C 
HETATM   27  C   UNL     1      25.622  19.694  31.204  1.00  0.00     0.153 C 
ENDROOT
BRANCH  16  28
HETATM   28  C   UNL     1      26.240  24.566  35.795  1.00  0.00     0.016 C 
HETATM   29  C   UNL     1      26.816  25.899  35.319  1.00  0.00     0.012 C 
HETATM   30  C   UNL     1      24.890  24.781  36.478  1.00  0.00     0.012 C 
ENDBRANCH  16  28
BRANCH  14  31
HETATM   31  C   UNL     1      24.733  25.467  30.617  1.00  0.00     0.010 C 
HETATM   32  C   UNL     1      24.103  26.224  31.785  1.00  0.00     0.012 C 
HETATM   33  C   UNL     1      25.137  26.435  29.507  1.00  0.00     0.012 C 
ENDBRANCH  14  31
BRANCH  13  34
HETATM   34  C   UNL     1      29.017  20.301  36.907  1.00  0.00     0.010 C 
HETATM   35  C   UNL     1      30.481  20.662  37.154  1.00  0.00     0.012 C 
HETATM   36  C   UNL     1      28.799  18.800  37.085  1.00  0.00     0.012 C 
ENDBRANCH  13  34
BRANCH  18  37
HETATM   37  C   UNL     1      29.948  22.295  29.302  1.00  0.00     0.016 C 
HETATM   38  C   UNL     1      30.455  21.089  30.093  1.00  0.00     0.012 C 
HETATM   39  C   UNL     1      30.508  22.277  27.882  1.00  0.00     0.012 C 
ENDBRANCH  18  37
BRANCH  17  40
HETATM   40  C   UNL     1      27.063  16.909  34.156  1.00  0.00     0.016 C 
HETATM   41  C   UNL     1      26.646  15.695  33.329  1.00  0.00     0.012 C 
HETATM   42  C   UNL     1      26.314  16.934  35.487  1.00  0.00     0.012 C 
ENDBRANCH  17  40
BRANCH  15  43
HETATM   43  C   UNL     1      26.221  18.112  28.713  1.00  0.00     0.010 C 
HETATM   44  C   UNL     1      26.773  17.788  27.327  1.00  0.00     0.012 C 
HETATM   45  C   UNL     1      25.680  16.854  29.385  1.00  0.00     0.012 C 
ENDBRANCH  15  43
TORSDOF 6
ENDMDL
MODEL 12
REMARK VINA RESULT:    -6.626     19.546     24.331
REMARK INTER + INTRA:          -7.621
REMARK INTER:                  -8.526
REMARK INTRA:                   0.905
REMARK UNBOUND:                 1.329
REMARK  6 active torsions:
REMARK  status: ('A' for Active; 'I' for Inactive)
REMARK    1  A    between atoms: C_13  and  C_16 
REMARK    2  A    between atoms: C_14  and  C_17 
REMARK    3  A    between atoms: C_15  and  C_18 
REMARK    4  A    between atoms: C_19  and  C_22 
REMARK    5  A    between atoms: C_20  and  C_23 
REMARK    6  A    between atoms: C_21  and  C_24 
ROOT
HETATM    1  O   UNL     1      34.673  11.125  13.083  1.00  0.00    -0.304 OA
HETATM    2  O   UNL     1      31.223  11.201  16.940  1.00  0.00    -0.304 OA
HETATM    3  O   UNL     1      29.529  10.335  12.611  1.00  0.00    -0.304 OA
HETATM    4  O   UNL     1      33.299   9.464  14.523  1.00  0.00    -0.270 OA
HETATM    5  O   UNL     1      32.293   8.957  11.802  1.00  0.00    -0.270 OA
HETATM    6  O   UNL     1      28.111  10.432  16.459  1.00  0.00    -0.270 OA
HETATM    7  O   UNL     1      33.041  12.755  13.085  1.00  0.00    -0.263 OA
HETATM    8  O   UNL     1      30.484   9.155  17.696  1.00  0.00    -0.263 OA
HETATM    9  O   UNL     1      27.432  10.481  11.689  1.00  0.00    -0.263 OA
HETATM   10  N   UNL     1      33.713  10.434  16.581  1.00  0.00    -0.340 N 
HETATM   11  N   UNL     1      31.969  11.119  11.023  1.00  0.00    -0.340 N 
HETATM   12  N   UNL     1      28.929  11.809  14.771  1.00  0.00    -0.340 N 
HETATM   13  C   UNL     1      32.835   9.447  17.245  1.00  0.00     0.190 C 
HETATM   14  C   UNL     1      33.418  11.394  11.103  1.00  0.00     0.190 C 
HETATM   15  C   UNL     1      27.818  11.481  13.854  1.00  0.00     0.190 C 
HETATM   16  C   UNL     1      34.877  11.262  14.506  1.00  0.00     0.227 C 
HETATM   17  C   UNL     1      29.949  11.856  17.060  1.00  0.00     0.227 C 
HETATM   18  C   UNL     1      30.016   9.606  11.468  1.00  0.00     0.227 C 
HETATM   19  C   UNL     1      33.894  10.313  15.196  1.00  0.00     0.250 C 
HETATM   20  C   UNL     1      31.522   9.854  11.446  1.00  0.00     0.250 C 
HETATM   21  C   UNL     1      28.915  11.287  16.077  1.00  0.00     0.250 C 
HETATM   22  C   UNL     1      33.671  11.868  12.524  1.00  0.00     0.283 C 
HETATM   23  C   UNL     1      31.378   9.900  17.308  1.00  0.00     0.283 C 
HETATM   24  C   UNL     1      28.225  10.727  12.591  1.00  0.00     0.283 C 
HETATM   25  C   UNL     1      34.303  11.490  17.408  1.00  0.00     0.153 C 
HETATM   26  C   UNL     1      31.093  12.193  10.543  1.00  0.00     0.153 C 
HETATM   27  C   UNL     1      29.901  12.810  14.327  1.00  0.00     0.153 C 
ENDROOT
BRANCH  16  28
HETATM   28  C   UNL     1      36.314  10.846  14.786  1.00  0.00     0.016 C 
HETATM   29  C   UNL     1      36.529   9.376  14.430  1.00  0.00     0.012 C 
HETATM   30  C   UNL     1      37.293  11.731  14.016  1.00  0.00     0.012 C 
ENDBRANCH  16  28
BRANCH  14  31
HETATM   31  C   UNL     1      33.961  12.410  10.105  1.00  0.00     0.010 C 
HETATM   32  C   UNL     1      34.992  13.319  10.771  1.00  0.00     0.012 C 
HETATM   33  C   UNL     1      34.571  11.703   8.898  1.00  0.00     0.012 C 
ENDBRANCH  14  31
BRANCH  13  34
HETATM   34  C   UNL     1      33.309   9.040  18.640  1.00  0.00     0.010 C 
HETATM   35  C   UNL     1      33.392   7.519  18.759  1.00  0.00     0.012 C 
HETATM   36  C   UNL     1      32.384   9.610  19.713  1.00  0.00     0.012 C 
ENDBRANCH  13  34
BRANCH  18  37
HETATM   37  C   UNL     1      29.690   8.127  11.657  1.00  0.00     0.016 C 
HETATM   38  C   UNL     1      29.226   7.856  13.089  1.00  0.00     0.012 C 
HETATM   39  C   UNL     1      28.629   7.675  10.656  1.00  0.00     0.012 C 
ENDBRANCH  18  37
BRANCH  17  40
HETATM   40  C   UNL     1      29.448  11.864  18.504  1.00  0.00     0.016 C 
HETATM   41  C   UNL     1      28.069  12.514  18.591  1.00  0.00     0.012 C 
HETATM   42  C   UNL     1      30.440  12.586  19.413  1.00  0.00     0.012 C 
ENDBRANCH  17  40
BRANCH  15  43
HETATM   43  C   UNL     1      27.008  12.728  13.495  1.00  0.00     0.010 C 
HETATM   44  C   UNL     1      27.326  13.180  12.072  1.00  0.00     0.012 C 
HETATM   45  C   UNL     1      25.514  12.458  13.654  1.00  0.00     0.012 C 
ENDBRANCH  15  43
TORSDOF 6
ENDMDL
MODEL 13
REMARK VINA RESULT:    -6.402     20.732     24.443
REMARK INTER + INTRA:          -7.319
REMARK INTER:                  -8.463
REMARK INTRA:                   1.145
REMARK UNBOUND:                 1.329
REMARK  6 active torsions:
REMARK  status: ('A' for Active; 'I' for Inactive)
REMARK    1  A    between atoms: C_13  and  C_16 
REMARK    2  A    between atoms: C_14  and  C_17 
REMARK    3  A    between atoms: C_15  and  C_18 
REMARK    4  A    between atoms: C_19  and  C_22 
REMARK    5  A    between atoms: C_20  and  C_23 
REMARK    6  A    between atoms: C_21  and  C_24 
ROOT
HETATM    1  O   UNL     1      29.634   6.935  15.290  1.00  0.00    -0.304 OA
HETATM    2  O   UNL     1      33.677  10.165  15.368  1.00  0.00    -0.304 OA
HETATM    3  O   UNL     1      30.149  11.272  12.420  1.00  0.00    -0.304 OA
HETATM    4  O   UNL     1      30.271   9.262  16.237  1.00  0.00    -0.270 OA
HETATM    5  O   UNL     1      28.059   9.889  14.398  1.00  0.00    -0.270 OA
HETATM    6  O   UNL     1      33.676  12.938  13.689  1.00  0.00    -0.270 OA
HETATM    7  O   UNL     1      30.915   7.161  13.385  1.00  0.00    -0.263 OA
HETATM    8  O   UNL     1      33.395  12.134  16.529  1.00  0.00    -0.263 OA
HETATM    9  O   UNL     1      30.016  12.625  10.570  1.00  0.00    -0.263 OA
HETATM   10  N   UNL     1      32.344   8.686  17.086  1.00  0.00    -0.340 N 
HETATM   11  N   UNL     1      28.655   8.655  12.526  1.00  0.00    -0.340 N 
HETATM   12  N   UNL     1      32.830  11.171  12.434  1.00  0.00    -0.340 N 
HETATM   13  C   UNL     1      32.583  10.083  17.504  1.00  0.00     0.190 C 
HETATM   14  C   UNL     1      28.495   7.392  13.274  1.00  0.00     0.190 C 
HETATM   15  C   UNL     1      32.199  12.069  11.445  1.00  0.00     0.190 C 
HETATM   16  C   UNL     1      30.806   6.933  16.134  1.00  0.00     0.227 C 
HETATM   17  C   UNL     1      34.446  10.748  14.302  1.00  0.00     0.227 C 
HETATM   18  C   UNL     1      28.714  11.164  12.484  1.00  0.00     0.227 C 
HETATM   19  C   UNL     1      31.113   8.391  16.483  1.00  0.00     0.250 C 
HETATM   20  C   UNL     1      28.442   9.857  13.225  1.00  0.00     0.250 C 
HETATM   21  C   UNL     1      33.614  11.726  13.461  1.00  0.00     0.250 C 
HETATM   22  C   UNL     1      29.831   7.141  13.953  1.00  0.00     0.283 C 
HETATM   23  C   UNL     1      33.246  10.922  16.414  1.00  0.00     0.283 C 
HETATM   24  C   UNL     1      30.673  12.018  11.409  1.00  0.00     0.283 C 
HETATM   25  C   UNL     1      33.421   7.714  17.296  1.00  0.00     0.153 C 
HETATM   26  C   UNL     1      29.059   8.571  11.119  1.00  0.00     0.153 C 
HETATM   27  C   UNL     1      32.752   9.730  12.187  1.00  0.00     0.153 C 
ENDROOT
BRANCH  16  28
HETATM   28  C   UNL     1      30.445   6.145  17.385  1.00  0.00     0.016 C 
HETATM   29  C   UNL     1      28.929   6.041  17.538  1.00  0.00     0.012 C 
HETATM   30  C   UNL     1      31.075   4.752  17.347  1.00  0.00     0.012 C 
ENDBRANCH  16  28
BRANCH  14  31
HETATM   31  C   UNL     1      28.087   6.176  12.452  1.00  0.00     0.010 C 
HETATM   32  C   UNL     1      28.491   4.886  13.163  1.00  0.00     0.012 C 
HETATM   33  C   UNL     1      26.584   6.190  12.182  1.00  0.00     0.012 C 
ENDBRANCH  14  31
BRANCH  13  34
HETATM   34  C   UNL     1      33.376  10.210  18.805  1.00  0.00     0.010 C 
HETATM   35  C   UNL     1      32.632   9.538  19.958  1.00  0.00     0.012 C 
HETATM   36  C   UNL     1      33.650  11.677  19.130  1.00  0.00     0.012 C 
ENDBRANCH  13  34
BRANCH  18  37
HETATM   37  C   UNL     1      28.168  12.369  13.246  1.00  0.00     0.016 C 
HETATM   38  C   UNL     1      29.300  13.125  13.942  1.00  0.00     0.012 C 
HETATM   39  C   UNL     1      27.400  13.298  12.309  1.00  0.00     0.012 C 
ENDBRANCH  18  37
BRANCH  17  40
HETATM   40  C   UNL     1      35.747  11.367  14.813  1.00  0.00     0.016 C 
HETATM   41  C   UNL     1      36.608  11.847  13.647  1.00  0.00     0.012 C 
HETATM   42  C   UNL     1      36.517  10.367  15.673  1.00  0.00     0.012 C 
ENDBRANCH  17  40
BRANCH  15  43
HETATM   43  C   UNL     1      32.775  11.847  10.046  1.00  0.00     0.010 C 
HETATM   44  C   UNL     1      34.298  11.956  10.072  1.00  0.00     0.012 C 
HETATM   45  C   UNL     1      32.341  10.491   9.498  1.00  0.00     0.012 C 
ENDBRANCH  15  43
TORSDOF 6
ENDMDL
MODEL 14
REMARK VINA RESULT:    -6.256     16.662     21.775
REMARK INTER + INTRA:          -7.121
REMARK INTER:                  -8.518
REMARK INTRA:                   1.396
REMARK UNBOUND:                 1.329
REMARK  6 active torsions:
REMARK  status: ('A' for Active; 'I' for Inactive)
REMARK    1  A    between atoms: C_13  and  C_16 
REMARK    2  A    between atoms: C_14  and  C_17 
REMARK    3  A    between atoms: C_15  and  C_18 
REMARK    4  A    between atoms: C_19  and  C_22 
REMARK    5  A    between atoms: C_20  and  C_23 
REMARK    6  A    between atoms: C_21  and  C_24 
ROOT
HETATM    1  O   UNL     1      31.124  13.792  16.426  1.00  0.00    -0.304 OA
HETATM    2  O   UNL     1      33.187  11.494  20.579  1.00  0.00    -0.304 OA
HETATM    3  O   UNL     1      34.631   9.919  16.361  1.00  0.00    -0.304 OA
HETATM    4  O   UNL     1      33.340  13.788  17.771  1.00  0.00    -0.270 OA
HETATM    5  O   UNL     1      34.183  12.826  15.118  1.00  0.00    -0.270 OA
HETATM    6  O   UNL     1      35.540   9.280  20.309  1.00  0.00    -0.270 OA
HETATM    7  O   UNL     1      30.688  11.557  16.793  1.00  0.00    -0.263 OA
HETATM    8  O   UNL     1      35.332  12.119  21.138  1.00  0.00    -0.263 OA
HETATM    9  O   UNL     1      35.636   7.973  15.672  1.00  0.00    -0.263 OA
HETATM   10  N   UNL     1      32.411  13.910  19.885  1.00  0.00    -0.340 N 
HETATM   11  N   UNL     1      32.537  11.258  14.654  1.00  0.00    -0.340 N 
HETATM   12  N   UNL     1      33.857   8.945  18.738  1.00  0.00    -0.340 N 
HETATM   13  C   UNL     1      33.753  13.827  20.501  1.00  0.00     0.190 C 
HETATM   14  C   UNL     1      31.502  12.312  14.628  1.00  0.00     0.190 C 
HETATM   15  C   UNL     1      34.703   8.070  17.899  1.00  0.00     0.190 C 
HETATM   16  C   UNL     1      30.969  14.101  17.828  1.00  0.00     0.227 C 
HETATM   17  C   UNL     1      33.364  10.105  20.904  1.00  0.00     0.227 C 
HETATM   18  C   UNL     1      34.903  10.545  15.093  1.00  0.00     0.227 C 
HETATM   19  C   UNL     1      32.339  13.915  18.485  1.00  0.00     0.250 C 
HETATM   20  C   UNL     1      33.854  11.646  14.955  1.00  0.00     0.250 C 
HETATM   21  C   UNL     1      34.363   9.417  19.962  1.00  0.00     0.250 C 
HETATM   22  C   UNL     1      31.041  12.476  16.066  1.00  0.00     0.283 C 
HETATM   23  C   UNL     1      34.196  12.389  20.762  1.00  0.00     0.283 C 
HETATM   24  C   UNL     1      35.035   8.628  16.517  1.00  0.00     0.283 C 
HETATM   25  C   UNL     1      31.249  13.942  20.778  1.00  0.00     0.153 C 
HETATM   26  C   UNL     1      32.113   9.877  14.402  1.00  0.00     0.153 C 
HETATM   27  C   UNL     1      32.463   9.130  18.331  1.00  0.00     0.153 C 
ENDROOT
BRANCH  16  28
HETATM   28  C   UNL     1      30.524  15.553  17.913  1.00  0.00     0.016 C 
HETATM   29  C   UNL     1      30.901  16.308  16.639  1.00  0.00     0.012 C 
HETATM   30  C   UNL     1      29.019  15.644  18.162  1.00  0.00     0.012 C 
ENDBRANCH  16  28
BRANCH  14  31
HETATM   31  C   UNL     1      30.308  12.053  13.718  1.00  0.00     0.010 C 
HETATM   32  C   UNL     1      29.172  13.025  14.033  1.00  0.00     0.012 C 
HETATM   33  C   UNL     1      30.715  12.162  12.251  1.00  0.00     0.012 C 
ENDBRANCH  14  31
BRANCH  13  34
HETATM   34  C   UNL     1      33.895  14.650  21.780  1.00  0.00     0.010 C 
HETATM   35  C   UNL     1      33.193  13.958  22.948  1.00  0.00     0.012 C 
HETATM   36  C   UNL     1      33.339  16.059  21.582  1.00  0.00     0.012 C 
ENDBRANCH  13  34
BRANCH  18  37
HETATM   37  C   UNL     1      36.319  11.115  15.124  1.00  0.00     0.016 C 
HETATM   38  C   UNL     1      36.901  11.034  16.535  1.00  0.00     0.012 C 
HETATM   39  C   UNL     1      37.218  10.383  14.131  1.00  0.00     0.012 C 
ENDBRANCH  18  37
BRANCH  17  40
HETATM   40  C   UNL     1      33.712   9.906  22.379  1.00  0.00     0.016 C 
HETATM   41  C   UNL     1      33.922   8.425  22.687  1.00  0.00     0.012 C 
HETATM   42  C   UNL     1      32.619  10.490  23.272  1.00  0.00     0.012 C 
ENDBRANCH  17  40
BRANCH  15  43
HETATM   43  C   UNL     1      34.106   6.667  17.781  1.00  0.00     0.010 C 
HETATM   44  C   UNL     1      35.197   5.649  17.457  1.00  0.00     0.012 C 
HETATM   45  C   UNL     1      33.379   6.287  19.067  1.00  0.00     0.012 C 
ENDBRANCH  15  43
TORSDOF 6
ENDMDL
MODEL 15
REMARK VINA RESULT:    -6.255     20.682     24.345
REMARK INTER + INTRA:          -7.120
REMARK INTER:                  -8.237
REMARK INTRA:                   1.117
REMARK UNBOUND:                 1.329
REMARK  6 active torsions:
REMARK  status: ('A' for Active; 'I' for Inactive)
REMARK    1  A    between atoms: C_13  and  C_16 
REMARK    2  A    between atoms: C_14  and  C_17 
REMARK    3  A    between atoms: C_15  and  C_18 
REMARK    4  A    between atoms: C_19  and  C_22 
REMARK    5  A    between atoms: C_20  and  C_23 
REMARK    6  A    between atoms: C_21  and  C_24 
ROOT
HETATM    1  O   UNL     1      40.122   7.034  26.299  1.00  0.00    -0.304 OA
HETATM    2  O   UNL     1      35.828   6.232  23.523  1.00  0.00    -0.304 OA
HETATM    3  O   UNL     1      39.826   4.383  21.805  1.00  0.00    -0.304 OA
HETATM    4  O   UNL     1      38.421   5.139  25.815  1.00  0.00    -0.270 OA
HETATM    5  O   UNL     1      40.944   4.033  24.775  1.00  0.00    -0.270 OA
HETATM    6  O   UNL     1      35.828   4.340  20.891  1.00  0.00    -0.270 OA
HETATM    7  O   UNL     1      39.974   7.950  24.187  1.00  0.00    -0.263 OA
HETATM    8  O   UNL     1      34.872   4.144  23.691  1.00  0.00    -0.263 OA
HETATM    9  O   UNL     1      40.452   3.663  19.717  1.00  0.00    -0.263 OA
HETATM   10  N   UNL     1      36.493   6.392  26.063  1.00  0.00    -0.340 N 
HETATM   11  N   UNL     1      41.779   5.839  23.582  1.00  0.00    -0.340 N 
HETATM   12  N   UNL     1      37.682   5.745  20.942  1.00  0.00    -0.340 N 
HETATM   13  C   UNL     1      35.663   5.225  25.697  1.00  0.00     0.190 C 
HETATM   14  C   UNL     1      41.917   6.629  24.822  1.00  0.00     0.190 C 
HETATM   15  C   UNL     1      38.416   4.946  19.939  1.00  0.00     0.190 C 
HETATM   16  C   UNL     1      38.750   7.377  26.594  1.00  0.00     0.227 C 
HETATM   17  C   UNL     1      35.565   6.387  22.118  1.00  0.00     0.227 C 
HETATM   18  C   UNL     1      40.988   3.772  22.399  1.00  0.00     0.227 C 
HETATM   19  C   UNL     1      37.881   6.209  26.120  1.00  0.00     0.250 C 
HETATM   20  C   UNL     1      41.234   4.547  23.691  1.00  0.00     0.250 C 
HETATM   21  C   UNL     1      36.363   5.386  21.270  1.00  0.00     0.250 C 
HETATM   22  C   UNL     1      40.572   7.302  25.036  1.00  0.00     0.283 C 
HETATM   23  C   UNL     1      35.420   5.120  24.192  1.00  0.00     0.283 C 
HETATM   24  C   UNL     1      39.684   4.270  20.456  1.00  0.00     0.283 C 
HETATM   25  C   UNL     1      35.812   7.668  26.303  1.00  0.00     0.153 C 
HETATM   26  C   UNL     1      42.186   6.467  22.321  1.00  0.00     0.153 C 
HETATM   27  C   UNL     1      38.309   6.981  21.413  1.00  0.00     0.153 C 
ENDROOT
BRANCH  16  28
HETATM   28  C   UNL     1      38.653   7.542  28.103  1.00  0.00     0.016 C 
HETATM   29  C   UNL     1      38.599   6.179  28.793  1.00  0.00     0.012 C 
HETATM   30  C   UNL     1      39.827   8.363  28.634  1.00  0.00     0.012 C 
ENDBRANCH  16  28
BRANCH  14  31
HETATM   31  C   UNL     1      43.032   7.668  24.832  1.00  0.00     0.010 C 
HETATM   32  C   UNL     1      42.890   8.597  26.035  1.00  0.00     0.012 C 
HETATM   33  C   UNL     1      44.399   6.989  24.838  1.00  0.00     0.012 C 
ENDBRANCH  14  31
BRANCH  13  34
HETATM   34  C   UNL     1      34.329   5.160  26.440  1.00  0.00     0.010 C 
HETATM   35  C   UNL     1      34.151   3.797  27.108  1.00  0.00     0.012 C 
HETATM   36  C   UNL     1      33.167   5.446  25.492  1.00  0.00     0.012 C 
ENDBRANCH  13  34
BRANCH  18  37
HETATM   37  C   UNL     1      40.679   2.302  22.673  1.00  0.00     0.016 C 
HETATM   38  C   UNL     1      39.170   2.074  22.750  1.00  0.00     0.012 C 
HETATM   39  C   UNL     1      41.302   1.410  21.601  1.00  0.00     0.012 C 
ENDBRANCH  18  37
BRANCH  17  40
HETATM   40  C   UNL     1      34.067   6.356  21.814  1.00  0.00     0.016 C 
HETATM   41  C   UNL     1      33.820   6.489  20.313  1.00  0.00     0.012 C 
HETATM   42  C   UNL     1      33.340   7.461  22.578  1.00  0.00     0.012 C 
ENDBRANCH  17  40
BRANCH  15  43
HETATM   43  C   UNL     1      38.721   5.770  18.687  1.00  0.00     0.010 C 
HETATM   44  C   UNL     1      39.204   4.864  17.557  1.00  0.00     0.012 C 
HETATM   45  C   UNL     1      37.490   6.561  18.256  1.00  0.00     0.012 C 
ENDBRANCH  15  43
TORSDOF 6
ENDMDL
MODEL 16
REMARK VINA RESULT:    -6.182     20.230     24.243
REMARK INTER + INTRA:          -7.022
REMARK INTER:                  -7.978
REMARK INTRA:                   0.957
REMARK UNBOUND:                 1.329
REMARK  6 active torsions:
REMARK  status: ('A' for Active; 'I' for Inactive)
REMARK    1  A    between atoms: C_13  and  C_16 
REMARK    2  A    between atoms: C_14  and  C_17 
REMARK    3  A    between atoms: C_15  and  C_18 
REMARK    4  A    between atoms: C_19  and  C_22 
REMARK    5  A    between atoms: C_20  and  C_23 
REMARK    6  A    between atoms: C_21  and  C_24 
ROOT
HETATM    1  O   UNL     1      31.322  10.713  12.486  1.00  0.00    -0.304 OA
HETATM    2  O   UNL     1      34.165  10.388  16.798  1.00  0.00    -0.304 OA
HETATM    3  O   UNL     1      30.267   7.718  16.635  1.00  0.00    -0.304 OA
HETATM    4  O   UNL     1      33.013   9.100  13.607  1.00  0.00    -0.270 OA
HETATM    5  O   UNL     1      30.559   7.479  13.464  1.00  0.00    -0.270 OA
HETATM    6  O   UNL     1      33.460   8.271  19.149  1.00  0.00    -0.270 OA
HETATM    7  O   UNL     1      30.406  11.425  14.479  1.00  0.00    -0.263 OA
HETATM    8  O   UNL     1      35.498   8.523  17.010  1.00  0.00    -0.263 OA
HETATM    9  O   UNL     1      28.995   6.696  18.251  1.00  0.00    -0.263 OA
HETATM   10  N   UNL     1      34.583  10.684  14.218  1.00  0.00    -0.340 N 
HETATM   11  N   UNL     1      28.969   8.986  14.227  1.00  0.00    -0.340 N 
HETATM   12  N   UNL     1      31.553   9.334  18.347  1.00  0.00    -0.340 N 
HETATM   13  C   UNL     1      35.403   9.646  14.878  1.00  0.00     0.190 C 
HETATM   14  C   UNL     1      29.198   9.861  13.059  1.00  0.00     0.190 C 
HETATM   15  C   UNL     1      30.645   8.325  18.932  1.00  0.00     0.190 C 
HETATM   16  C   UNL     1      32.597  11.314  12.803  1.00  0.00     0.227 C 
HETATM   17  C   UNL     1      33.793  10.445  18.185  1.00  0.00     0.227 C 
HETATM   18  C   UNL     1      29.597   6.978  15.596  1.00  0.00     0.227 C 
HETATM   19  C   UNL     1      33.407  10.271  13.577  1.00  0.00     0.250 C 
HETATM   20  C   UNL     1      29.754   7.825  14.335  1.00  0.00     0.250 C 
HETATM   21  C   UNL     1      32.932   9.242  18.600  1.00  0.00     0.250 C 
HETATM   22  C   UNL     1      30.351  10.772  13.445  1.00  0.00     0.283 C 
HETATM   23  C   UNL     1      35.023   9.435  16.343  1.00  0.00     0.283 C 
HETATM   24  C   UNL     1      29.862   7.496  17.916  1.00  0.00     0.283 C 
HETATM   25  C   UNL     1      35.036  12.075  14.311  1.00  0.00     0.153 C 
HETATM   26  C   UNL     1      27.965   9.406  15.211  1.00  0.00     0.153 C 
HETATM   27  C   UNL     1      30.943  10.485  17.678  1.00  0.00     0.153 C 
ENDROOT
BRANCH  16  28
HETATM   28  C   UNL     1      33.270  11.643  11.478  1.00  0.00     0.016 C 
HETATM   29  C   UNL     1      32.559  10.940  10.323  1.00  0.00     0.012 C 
HETATM   30  C   UNL     1      33.299  13.154  11.247  1.00  0.00     0.012 C 
ENDBRANCH  16  28
BRANCH  14  31
HETATM   31  C   UNL     1      28.004  10.688  12.600  1.00  0.00     0.010 C 
HETATM   32  C   UNL     1      28.468  11.892  11.782  1.00  0.00     0.012 C 
HETATM   33  C   UNL     1      27.036   9.831  11.789  1.00  0.00     0.012 C 
ENDBRANCH  14  31
BRANCH  13  34
HETATM   34  C   UNL     1      36.908   9.885  14.766  1.00  0.00     0.010 C 
HETATM   35  C   UNL     1      37.611   8.648  14.209  1.00  0.00     0.012 C 
HETATM   36  C   UNL     1      37.497  10.270  16.121  1.00  0.00     0.012 C 
ENDBRANCH  13  34
BRANCH  18  37
HETATM   37  C   UNL     1      30.275   5.618  15.451  1.00  0.00     0.016 C 
HETATM   38  C   UNL     1      31.422   5.478  16.450  1.00  0.00     0.012 C 
HETATM   39  C   UNL     1      29.264   4.488  15.635  1.00  0.00     0.012 C 
ENDBRANCH  18  37
BRANCH  17  40
HETATM   40  C   UNL     1      35.008  10.641  19.092  1.00  0.00     0.016 C 
HETATM   41  C   UNL     1      34.602  10.555  20.562  1.00  0.00     0.012 C 
HETATM   42  C   UNL     1      35.686  11.978  18.800  1.00  0.00     0.012 C 
ENDBRANCH  17  40
BRANCH  15  43
HETATM   43  C   UNL     1      29.697   8.955  19.953  1.00  0.00     0.010 C 
HETATM   44  C   UNL     1      29.075   7.879  20.838  1.00  0.00     0.012 C 
HETATM   45  C   UNL     1      30.435   9.989  20.799  1.00  0.00     0.012 C 
ENDBRANCH  15  43
TORSDOF 6
ENDMDL
MODEL 17
REMARK VINA RESULT:    -6.153      2.552      6.869
REMARK INTER + INTRA:          -6.982
REMARK INTER:                  -8.332
REMARK INTRA:                   1.350
REMARK UNBOUND:                 1.329
REMARK  6 active torsions:
REMARK  status: ('A' for Active; 'I' for Inactive)
REMARK    1  A    between atoms: C_13  and  C_16 
REMARK    2  A    between atoms: C_14  and  C_17 
REMARK    3  A    between atoms: C_15  and  C_18 
REMARK    4  A    between atoms: C_19  and  C_22 
REMARK    5  A    between atoms: C_20  and  C_23 
REMARK    6  A    between atoms: C_21  and  C_24 
ROOT
HETATM    1  O   UNL     1      26.702  23.836  32.749  1.00  0.00    -0.304 OA
HETATM    2  O   UNL     1      29.901  20.831  30.006  1.00  0.00    -0.304 OA
HETATM    3  O   UNL     1      30.470  20.786  34.700  1.00  0.00    -0.304 OA
HETATM    4  O   UNL     1      27.024  21.332  32.160  1.00  0.00    -0.270 OA
HETATM    5  O   UNL     1      27.353  21.363  35.086  1.00  0.00    -0.270 OA
HETATM    6  O   UNL     1      32.002  18.823  31.441  1.00  0.00    -0.270 OA
HETATM    7  O   UNL     1      28.960  24.307  32.766  1.00  0.00    -0.263 OA
HETATM    8  O   UNL     1      29.430  18.578  29.989  1.00  0.00    -0.263 OA
HETATM    9  O   UNL     1      32.209  20.165  36.064  1.00  0.00    -0.263 OA
HETATM   10  N   UNL     1      27.388  21.599  29.892  1.00  0.00    -0.340 N 
HETATM   11  N   UNL     1      28.766  23.182  35.369  1.00  0.00    -0.340 N 
HETATM   12  N   UNL     1      31.961  20.908  32.473  1.00  0.00    -0.340 N 
HETATM   13  C   UNL     1      27.615  20.146  29.738  1.00  0.00     0.190 C 
HETATM   14  C   UNL     1      27.730  24.101  34.856  1.00  0.00     0.190 C 
HETATM   15  C   UNL     1      32.623  20.406  33.696  1.00  0.00     0.190 C 
HETATM   16  C   UNL     1      26.724  23.557  31.332  1.00  0.00     0.227 C 
HETATM   17  C   UNL     1      31.329  20.668  30.060  1.00  0.00     0.227 C 
HETATM   18  C   UNL     1      29.570  20.847  35.823  1.00  0.00     0.227 C 
HETATM   19  C   UNL     1      27.061  22.072  31.170  1.00  0.00     0.250 C 
HETATM   20  C   UNL     1      28.463  21.809  35.397  1.00  0.00     0.250 C 
HETATM   21  C   UNL     1      31.786  20.037  31.384  1.00  0.00     0.250 C 
HETATM   22  C   UNL     1      27.900  24.114  33.346  1.00  0.00     0.283 C 
HETATM   23  C   UNL     1      29.076  19.751  29.941  1.00  0.00     0.283 C 
HETATM   24  C   UNL     1      31.764  20.448  34.957  1.00  0.00     0.283 C 
HETATM   25  C   UNL     1      27.557  22.448  28.709  1.00  0.00     0.153 C 
HETATM   26  C   UNL     1      30.051  23.758  35.779  1.00  0.00     0.153 C 
HETATM   27  C   UNL     1      31.683  22.343  32.396  1.00  0.00     0.153 C 
ENDROOT
BRANCH  16  28
HETATM   28  C   UNL     1      25.328  23.852  30.804  1.00  0.00     0.016 C 
HETATM   29  C   UNL     1      24.366  24.143  31.955  1.00  0.00     0.012 C 
HETATM   30  C   UNL     1      25.358  25.024  29.823  1.00  0.00     0.012 C 
ENDBRANCH  16  28
BRANCH  14  31
HETATM   31  C   UNL     1      27.769  25.523  35.402  1.00  0.00     0.010 C 
HETATM   32  C   UNL     1      26.896  26.447  34.555  1.00  0.00     0.012 C 
HETATM   33  C   UNL     1      27.321  25.551  36.861  1.00  0.00     0.012 C 
ENDBRANCH  14  31
BRANCH  13  34
HETATM   34  C   UNL     1      27.109  19.581  28.411  1.00  0.00     0.010 C 
HETATM   35  C   UNL     1      26.259  18.333  28.646  1.00  0.00     0.012 C 
HETATM   36  C   UNL     1      28.275  19.265  27.477  1.00  0.00     0.012 C 
ENDBRANCH  13  34
BRANCH  18  37
HETATM   37  C   UNL     1      29.027  19.446  36.091  1.00  0.00     0.016 C 
HETATM   38  C   UNL     1      28.003  19.473  37.225  1.00  0.00     0.012 C 
HETATM   39  C   UNL     1      28.409  18.854  34.826  1.00  0.00     0.012 C 
ENDBRANCH  18  37
BRANCH  17  40
HETATM   40  C   UNL     1      31.863  19.925  28.836  1.00  0.00     0.016 C 
HETATM   41  C   UNL     1      33.376  19.743  28.935  1.00  0.00     0.012 C 
HETATM   42  C   UNL     1      31.494  20.667  27.553  1.00  0.00     0.012 C 
ENDBRANCH  17  40
BRANCH  15  43
HETATM   43  C   UNL     1      33.959  21.110  33.934  1.00  0.00     0.010 C 
HETATM   44  C   UNL     1      34.849  20.271  34.847  1.00  0.00     0.012 C 
HETATM   45  C   UNL     1      34.659  21.390  32.607  1.00  0.00     0.012 C 
ENDBRANCH  15  43
TORSDOF 6
ENDMDL
MODEL 18
REMARK VINA RESULT:    -6.148     18.962     23.407
REMARK INTER + INTRA:          -6.975
REMARK INTER:                  -7.905
REMARK INTRA:                   0.930
REMARK UNBOUND:                 1.329
REMARK  6 active torsions:
REMARK  status: ('A' for Active; 'I' for Inactive)
REMARK    1  A    between atoms: C_13  and  C_16 
REMARK    2  A    between atoms: C_14  and  C_17 
REMARK    3  A    between atoms: C_15  and  C_18 
REMARK    4  A    between atoms: C_19  and  C_22 
REMARK    5  A    between atoms: C_20  and  C_23 
REMARK    6  A    between atoms: C_21  and  C_24 
ROOT
HETATM    1  O   UNL     1      36.588   4.727  27.739  1.00  0.00    -0.304 OA
HETATM    2  O   UNL     1      40.388   7.787  26.011  1.00  0.00    -0.304 OA
HETATM    3  O   UNL     1      38.302   5.002  22.810  1.00  0.00    -0.304 OA
HETATM    4  O   UNL     1      36.884   6.929  26.402  1.00  0.00    -0.270 OA
HETATM    5  O   UNL     1      35.569   5.153  24.455  1.00  0.00    -0.270 OA
HETATM    6  O   UNL     1      41.119   7.983  22.860  1.00  0.00    -0.270 OA
HETATM    7  O   UNL     1      38.509   3.757  26.911  1.00  0.00    -0.263 OA
HETATM    8  O   UNL     1      39.743   9.677  24.866  1.00  0.00    -0.263 OA
HETATM    9  O   UNL     1      38.932   4.252  20.733  1.00  0.00    -0.263 OA
HETATM   10  N   UNL     1      38.451   7.915  27.787  1.00  0.00    -0.340 N 
HETATM   11  N   UNL     1      36.801   3.203  24.708  1.00  0.00    -0.340 N 
HETATM   12  N   UNL     1      40.767   5.782  23.527  1.00  0.00    -0.340 N 
HETATM   13  C   UNL     1      38.555   9.075  26.876  1.00  0.00     0.190 C 
HETATM   14  C   UNL     1      36.327   3.052  26.098  1.00  0.00     0.190 C 
HETATM   15  C   UNL     1      40.593   5.304  22.140  1.00  0.00     0.190 C 
HETATM   16  C   UNL     1      37.344   5.745  28.430  1.00  0.00     0.227 C 
HETATM   17  C   UNL     1      41.526   7.507  25.178  1.00  0.00     0.227 C 
HETATM   18  C   UNL     1      36.950   4.553  22.597  1.00  0.00     0.227 C 
HETATM   19  C   UNL     1      37.539   6.906  27.450  1.00  0.00     0.250 C 
HETATM   20  C   UNL     1      36.373   4.337  23.994  1.00  0.00     0.250 C 
HETATM   21  C   UNL     1      41.112   7.127  23.749  1.00  0.00     0.250 C 
HETATM   22  C   UNL     1      37.290   3.856  26.954  1.00  0.00     0.283 C 
HETATM   23  C   UNL     1      39.612   8.883  25.791  1.00  0.00     0.283 C 
HETATM   24  C   UNL     1      39.197   4.779  21.809  1.00  0.00     0.283 C 
HETATM   25  C   UNL     1      39.334   7.882  28.956  1.00  0.00     0.153 C 
HETATM   26  C   UNL     1      37.713   2.183  24.180  1.00  0.00     0.153 C 
HETATM   27  C   UNL     1      40.744   4.781  24.596  1.00  0.00     0.153 C 
ENDROOT
BRANCH  16  28
HETATM   28  C   UNL     1      36.506   6.183  29.622  1.00  0.00     0.016 C 
HETATM   29  C   UNL     1      35.069   5.684  29.483  1.00  0.00     0.012 C 
HETATM   30  C   UNL     1      37.122   5.683  30.928  1.00  0.00     0.012 C 
ENDBRANCH  16  28
BRANCH  14  31
HETATM   31  C   UNL     1      36.228   1.623  26.618  1.00  0.00     0.010 C 
HETATM   32  C   UNL     1      36.154   1.611  28.144  1.00  0.00     0.012 C 
HETATM   33  C   UNL     1      35.016   0.915  26.017  1.00  0.00     0.012 C 
ENDBRANCH  14  31
BRANCH  13  34
HETATM   34  C   UNL     1      38.790  10.403  27.595  1.00  0.00     0.010 C 
HETATM   35  C   UNL     1      37.763  11.445  27.151  1.00  0.00     0.012 C 
HETATM   36  C   UNL     1      40.208  10.911  27.344  1.00  0.00     0.012 C 
ENDBRANCH  13  34
BRANCH  18  37
HETATM   37  C   UNL     1      36.190   5.635  21.834  1.00  0.00     0.016 C 
HETATM   38  C   UNL     1      37.007   6.926  21.773  1.00  0.00     0.012 C 
HETATM   39  C   UNL     1      35.837   5.158  20.427  1.00  0.00     0.012 C 
ENDBRANCH  18  37
BRANCH  17  40
HETATM   40  C   UNL     1      42.549   8.643  25.213  1.00  0.00     0.016 C 
HETATM   41  C   UNL     1      43.745   8.316  24.323  1.00  0.00     0.012 C 
HETATM   42  C   UNL     1      43.003   8.912  26.647  1.00  0.00     0.012 C 
ENDBRANCH  17  40
BRANCH  15  43
HETATM   43  C   UNL     1      41.655   4.268  21.771  1.00  0.00     0.010 C 
HETATM   44  C   UNL     1      41.382   3.692  20.384  1.00  0.00     0.012 C 
HETATM   45  C   UNL     1      43.048   4.887  21.833  1.00  0.00     0.012 C 
ENDBRANCH  15  43
TORSDOF 6
ENDMDL
MODEL 19
REMARK VINA RESULT:    -6.139     13.058     18.513
REMARK INTER + INTRA:          -6.963
REMARK INTER:                  -7.640
REMARK INTRA:                   0.678
REMARK UNBOUND:                 1.329
REMARK  6 active torsions:
REMARK  status: ('A' for Active; 'I' for Inactive)
REMARK    1  A    between atoms: C_13  and  C_16 
REMARK    2  A    between atoms: C_14  and  C_17 
REMARK    3  A    between atoms: C_15  and  C_18 
REMARK    4  A    between atoms: C_19  and  C_22 
REMARK    5  A    between atoms: C_20  and  C_23 
REMARK    6  A    between atoms: C_21  and  C_24 
ROOT
HETATM    1  O   UNL     1      40.315  11.436  29.285  1.00  0.00    -0.304 OA
HETATM    2  O   UNL     1      40.134  16.151  31.411  1.00  0.00    -0.304 OA
HETATM    3  O   UNL     1      43.325  15.504  27.983  1.00  0.00    -0.304 OA
HETATM    4  O   UNL     1      39.428  13.808  28.731  1.00  0.00    -0.270 OA
HETATM    5  O   UNL     1      41.418  13.343  26.610  1.00  0.00    -0.270 OA
HETATM    6  O   UNL     1      41.922  18.603  30.274  1.00  0.00    -0.270 OA
HETATM    7  O   UNL     1      42.149  12.200  30.456  1.00  0.00    -0.263 OA
HETATM    8  O   UNL     1      39.073  17.788  30.187  1.00  0.00    -0.263 OA
HETATM    9  O   UNL     1      45.234  16.631  27.383  1.00  0.00    -0.263 OA
HETATM   10  N   UNL     1      38.437  14.245  30.774  1.00  0.00    -0.340 N 
HETATM   11  N   UNL     1      43.200  12.496  27.831  1.00  0.00    -0.340 N 
HETATM   12  N   UNL     1      43.151  16.632  30.411  1.00  0.00    -0.340 N 
HETATM   13  C   UNL     1      38.063  15.603  30.325  1.00  0.00     0.190 C 
HETATM   14  C   UNL     1      42.411  11.305  28.208  1.00  0.00     0.190 C 
HETATM   15  C   UNL     1      44.211  17.136  29.513  1.00  0.00     0.190 C 
HETATM   16  C   UNL     1      39.405  11.975  30.268  1.00  0.00     0.227 C 
HETATM   17  C   UNL     1      41.176  17.008  31.906  1.00  0.00     0.227 C 
HETATM   18  C   UNL     1      43.341  14.757  26.752  1.00  0.00     0.227 C 
HETATM   19  C   UNL     1      39.098  13.417  29.856  1.00  0.00     0.250 C 
HETATM   20  C   UNL     1      42.565  13.476  27.049  1.00  0.00     0.250 C 
HETATM   21  C   UNL     1      42.104  17.494  30.783  1.00  0.00     0.250 C 
HETATM   22  C   UNL     1      41.645  11.696  29.461  1.00  0.00     0.283 C 
HETATM   23  C   UNL     1      39.147  16.640  30.612  1.00  0.00     0.283 C 
HETATM   24  C   UNL     1      44.334  16.396  28.183  1.00  0.00     0.283 C 
HETATM   25  C   UNL     1      38.124  13.871  32.156  1.00  0.00     0.153 C 
HETATM   26  C   UNL     1      44.576  12.590  28.328  1.00  0.00     0.153 C 
HETATM   27  C   UNL     1      43.343  15.310  31.010  1.00  0.00     0.153 C 
ENDROOT
BRANCH  16  28
HETATM   28  C   UNL     1      38.146  11.121  30.216  1.00  0.00     0.016 C 
HETATM   29  C   UNL     1      38.057  10.372  28.887  1.00  0.00     0.012 C 
HETATM   30  C   UNL     1      38.109  10.140  31.386  1.00  0.00     0.012 C 
ENDBRANCH  16  28
BRANCH  14  31
HETATM   31  C   UNL     1      43.205  10.028  28.453  1.00  0.00     0.010 C 
HETATM   32  C   UNL     1      42.414   9.066  29.338  1.00  0.00     0.012 C 
HETATM   33  C   UNL     1      43.572   9.361  27.130  1.00  0.00     0.012 C 
ENDBRANCH  14  31
BRANCH  13  34
HETATM   34  C   UNL     1      36.725  16.089  30.880  1.00  0.00     0.010 C 
HETATM   35  C   UNL     1      35.821  16.585  29.751  1.00  0.00     0.012 C 
HETATM   36  C   UNL     1      36.937  17.190  31.917  1.00  0.00     0.012 C 
ENDBRANCH  13  34
BRANCH  18  37
HETATM   37  C   UNL     1      42.663  15.589  25.667  1.00  0.00     0.016 C 
HETATM   38  C   UNL     1      41.967  16.806  26.277  1.00  0.00     0.012 C 
HETATM   39  C   UNL     1      43.673  16.026  24.609  1.00  0.00     0.012 C 
ENDBRANCH  18  37
BRANCH  17  40
HETATM   40  C   UNL     1      40.616  18.156  32.746  1.00  0.00     0.016 C 
HETATM   41  C   UNL     1      41.739  19.081  33.211  1.00  0.00     0.012 C 
HETATM   42  C   UNL     1      39.835  17.616  33.943  1.00  0.00     0.012 C 
ENDBRANCH  17  40
BRANCH  15  43
HETATM   43  C   UNL     1      45.564  17.186  30.225  1.00  0.00     0.010 C 
HETATM   44  C   UNL     1      46.432  16.002  29.805  1.00  0.00     0.012 C 
HETATM   45  C   UNL     1      46.273  18.505  29.931  1.00  0.00     0.012 C 
ENDBRANCH  15  43
TORSDOF 6
ENDMDL
MODEL 20
REMARK VINA RESULT:    -6.104      2.067      8.029
REMARK INTER + INTRA:          -6.916
REMARK INTER:                  -8.633
REMARK INTRA:                   1.718
REMARK UNBOUND:                 1.329
REMARK  6 active torsions:
REMARK  status: ('A' for Active; 'I' for Inactive)
REMARK    1  A    between atoms: C_13  and  C_16 
REMARK    2  A    between atoms: C_14  and  C_17 
REMARK    3  A    between atoms: C_15  and  C_18 
REMARK    4  A    between atoms: C_19  and  C_22 
REMARK    5  A    between atoms: C_20  and  C_23 
REMARK    6  A    between atoms: C_21  and  C_24 
ROOT
HETATM    1  O   UNL     1      27.217  21.658  29.549  1.00  0.00    -0.304 OA
HETATM    2  O   UNL     1      25.805  24.084  33.897  1.00  0.00    -0.304 OA
HETATM    3  O   UNL     1      29.235  20.855  34.302  1.00  0.00    -0.304 OA
HETATM    4  O   UNL     1      28.076  23.531  31.122  1.00  0.00    -0.270 OA
HETATM    5  O   UNL     1      30.189  21.490  31.322  1.00  0.00    -0.270 OA
HETATM    6  O   UNL     1      27.368  23.612  36.697  1.00  0.00    -0.270 OA
HETATM    7  O   UNL     1      26.252  20.430  31.246  1.00  0.00    -0.263 OA
HETATM    8  O   UNL     1      27.210  25.747  34.647  1.00  0.00    -0.263 OA
HETATM    9  O   UNL     1      30.077  19.674  36.083  1.00  0.00    -0.263 OA
HETATM   10  N   UNL     1      26.079  24.675  31.349  1.00  0.00    -0.340 N 
HETATM   11  N   UNL     1      28.935  19.557  31.597  1.00  0.00    -0.340 N 
HETATM   12  N   UNL     1      26.995  21.611  35.571  1.00  0.00    -0.340 N 
HETATM   13  C   UNL     1      26.707  25.625  32.291  1.00  0.00     0.190 C 
HETATM   14  C   UNL     1      28.352  19.711  30.248  1.00  0.00     0.190 C 
HETATM   15  C   UNL     1      28.002  20.880  36.368  1.00  0.00     0.190 C 
HETATM   16  C   UNL     1      26.286  22.745  29.743  1.00  0.00     0.227 C 
HETATM   17  C   UNL     1      25.487  23.578  35.205  1.00  0.00     0.227 C 
HETATM   18  C   UNL     1      30.342  20.454  33.473  1.00  0.00     0.227 C 
HETATM   19  C   UNL     1      26.892  23.676  30.797  1.00  0.00     0.250 C 
HETATM   20  C   UNL     1      29.825  20.552  32.039  1.00  0.00     0.250 C 
HETATM   21  C   UNL     1      26.709  22.949  35.891  1.00  0.00     0.250 C 
HETATM   22  C   UNL     1      27.139  20.609  30.421  1.00  0.00     0.283 C 
HETATM   23  C   UNL     1      26.624  25.160  33.744  1.00  0.00     0.283 C 
HETATM   24  C   UNL     1      29.213  20.385  35.580  1.00  0.00     0.283 C 
HETATM   25  C   UNL     1      24.644  24.820  31.086  1.00  0.00     0.153 C 
HETATM   26  C   UNL     1      28.518  18.400  32.395  1.00  0.00     0.153 C 
HETATM   27  C   UNL     1      26.215  20.843  34.598  1.00  0.00     0.153 C 
ENDROOT
BRANCH  16  28
HETATM   28  C   UNL     1      26.157  23.458  28.405  1.00  0.00     0.016 C 
HETATM   29  C   UNL     1      24.697  23.806  28.118  1.00  0.00     0.012 C 
HETATM   30  C   UNL     1      27.022  24.717  28.378  1.00  0.00     0.012 C 
ENDBRANCH  16  28
BRANCH  14  31
HETATM   31  C   UNL     1      27.956  18.421  29.541  1.00  0.00     0.010 C 
HETATM   32  C   UNL     1      26.923  18.702  28.452  1.00  0.00     0.012 C 
HETATM   33  C   UNL     1      29.184  17.733  28.950  1.00  0.00     0.012 C 
ENDBRANCH  14  31
BRANCH  13  34
HETATM   34  C   UNL     1      26.173  27.052  32.176  1.00  0.00     0.010 C 
HETATM   35  C   UNL     1      27.320  28.043  31.981  1.00  0.00     0.012 C 
HETATM   36  C   UNL     1      25.350  27.423  33.408  1.00  0.00     0.012 C 
ENDBRANCH  13  34
BRANCH  18  37
HETATM   37  C   UNL     1      31.507  21.409  33.719  1.00  0.00     0.016 C 
HETATM   38  C   UNL     1      31.060  22.595  34.573  1.00  0.00     0.012 C 
HETATM   39  C   UNL     1      32.672  20.679  34.384  1.00  0.00     0.012 C 
ENDBRANCH  18  37
BRANCH  17  40
HETATM   40  C   UNL     1      24.802  24.635  36.072  1.00  0.00     0.016 C 
HETATM   41  C   UNL     1      24.375  24.037  37.411  1.00  0.00     0.012 C 
HETATM   42  C   UNL     1      23.601  25.232  35.342  1.00  0.00     0.012 C 
ENDBRANCH  17  40
BRANCH  15  43
HETATM   43  C   UNL     1      27.365  19.730  37.149  1.00  0.00     0.010 C 
HETATM   44  C   UNL     1      26.205  20.240  38.000  1.00  0.00     0.012 C 
HETATM   45  C   UNL     1      26.894  18.635  36.197  1.00  0.00     0.012 C 
ENDBRANCH  15  43
TORSDOF 6
ENDMDL
