MODEL 1
REMARK VINA RESULT:    -8.109      0.000      0.000
REMARK INTER + INTRA:          -9.646
REMARK INTER:                 -10.953
REMARK INTRA:                   1.306
REMARK UNBOUND:                 1.306
REMARK  6 active torsions:
REMARK  status: ('A' for Active; 'I' for Inactive)
REMARK    1  A    between atoms: C_13  and  C_16 
REMARK    2  A    between atoms: C_14  and  C_17 
REMARK    3  A    between atoms: C_15  and  C_18 
REMARK    4  A    between atoms: C_19  and  C_22 
REMARK    5  A    between atoms: C_20  and  C_23 
REMARK    6  A    between atoms: C_21  and  C_24 
ROOT
HETATM    1  O   UNL     1      26.212  22.526  36.075  1.00  0.00    -0.304 OA
HETATM    2  O   UNL     1      28.898  22.512  31.651  1.00  0.00    -0.304 OA
HETATM    3  O   UNL     1      26.688  26.541  32.764  1.00  0.00    -0.304 OA
HETATM    4  O   UNL     1      28.464  23.407  35.141  1.00  0.00    -0.270 OA
HETATM    5  O   UNL     1      27.045  25.883  35.868  1.00  0.00    -0.270 OA
HETATM    6  O   UNL     1      29.268  25.197  29.873  1.00  0.00    -0.270 OA
HETATM    7  O   UNL     1      25.079  22.788  34.084  1.00  0.00    -0.263 OA
HETATM    8  O   UNL     1      30.946  23.563  31.690  1.00  0.00    -0.263 OA
HETATM    9  O   UNL     1      26.044  28.370  31.534  1.00  0.00    -0.263 OA
HETATM   10  N   UNL     1      29.120  21.472  34.057  1.00  0.00    -0.340 N 
HETATM   11  N   UNL     1      24.939  25.482  34.980  1.00  0.00    -0.340 N 
HETATM   12  N   UNL     1      27.081  24.961  30.632  1.00  0.00    -0.340 N 
HETATM   13  C   UNL     1      30.331  22.147  33.543  1.00  0.00     0.190 C 
HETATM   14  C   UNL     1      24.731  24.355  35.913  1.00  0.00     0.190 C 
HETATM   15  C   UNL     1      26.750  26.376  30.365  1.00  0.00     0.190 C 
HETATM   16  C   UNL     1      27.062  21.504  35.510  1.00  0.00     0.227 C 
HETATM   17  C   UNL     1      28.547  22.952  30.328  1.00  0.00     0.227 C 
HETATM   18  C   UNL     1      26.435  27.241  33.997  1.00  0.00     0.227 C 
HETATM   19  C   UNL     1      28.268  22.213  34.887  1.00  0.00     0.250 C 
HETATM   20  C   UNL     1      26.175  26.150  35.033  1.00  0.00     0.250 C 
HETATM   21  C   UNL     1      28.347  24.473  30.262  1.00  0.00     0.250 C 
HETATM   22  C   UNL     1      25.329  23.137  35.230  1.00  0.00     0.283 C 
HETATM   23  C   UNL     1      30.099  22.838  32.201  1.00  0.00     0.283 C 
HETATM   24  C   UNL     1      26.438  27.210  31.605  1.00  0.00     0.283 C 
HETATM   25  C   UNL     1      28.874  20.091  33.633  1.00  0.00     0.153 C 
HETATM   26  C   UNL     1      23.860  25.802  34.041  1.00  0.00     0.153 C 
HETATM   27  C   UNL     1      26.004  24.092  31.109  1.00  0.00     0.153 C 
ENDROOT
BRANCH  16  28
HETATM   28  C   UNL     1      27.499  20.610  36.661  1.00  0.00     0.016 C 
HETATM   29  C   UNL     1      28.828  21.091  37.244  1.00  0.00     0.012 C 
HETATM   30  C   UNL     1      26.425  20.563  37.747  1.00  0.00     0.012 C 
ENDBRANCH  16  28
BRANCH  14  31
HETATM   31  C   UNL     1      23.287  24.078  36.313  1.00  0.00     0.010 C 
HETATM   32  C   UNL     1      23.081  22.589  36.585  1.00  0.00     0.012 C 
HETATM   33  C   UNL     1      22.901  24.904  37.537  1.00  0.00     0.012 C 
ENDBRANCH  14  31
BRANCH  13  34
HETATM   34  C   UNL     1      31.551  21.232  33.447  1.00  0.00     0.010 C 
HETATM   35  C   UNL     1      32.200  21.053  34.819  1.00  0.00     0.012 C 
HETATM   36  C   UNL     1      32.563  21.784  32.445  1.00  0.00     0.012 C 
ENDBRANCH  13  34
BRANCH  18  37
HETATM   37  C   UNL     1      27.666  28.072  34.349  1.00  0.00     0.016 C 
HETATM   38  C   UNL     1      28.890  27.572  33.580  1.00  0.00     0.012 C 
HETATM   39  C   UNL     1      27.421  29.551  34.061  1.00  0.00     0.012 C 
ENDBRANCH  18  37
BRANCH  17  40
HETATM   40  C   UNL     1      29.536  22.441  29.279  1.00  0.00     0.016 C 
HETATM   41  C   UNL     1      29.012  22.712  27.870  1.00  0.00     0.012 C 
HETATM   42  C   UNL     1      29.804  20.950  29.475  1.00  0.00     0.012 C 
ENDBRANCH  17  40
BRANCH  15  43
HETATM   43  C   UNL     1      25.622  26.499  29.340  1.00  0.00     0.010 C 
HETATM   44  C   UNL     1      24.323  26.919  30.023  1.00  0.00     0.012 C 
HETATM   45  C   UNL     1      26.001  27.492  28.245  1.00  0.00     0.012 C 
ENDBRANCH  15  43
TORSDOF 6
ENDMDL
MODEL 2
REMARK VINA RESULT:    -7.903      2.108      6.526
REMARK INTER + INTRA:          -9.369
REMARK INTER:                 -10.906
REMARK INTRA:                   1.537
REMARK UNBOUND:                 1.306
REMARK  6 active torsions:
REMARK  status: ('A' for Active; 'I' for Inactive)
REMARK    1  A    between atoms: C_13  and  C_16 
REMARK    2  A    between atoms: C_14  and  C_17 
REMARK    3  A    between atoms: C_15  and  C_18 
REMARK    4  A    between atoms: C_19  and  C_22 
REMARK    5  A    between atoms: C_20  and  C_23 
REMARK    6  A    between atoms: C_21  and  C_24 
ROOT
HETATM    1  O   UNL     1      26.656  26.293  29.489  1.00  0.00    -0.304 OA
HETATM    2  O   UNL     1      29.083  21.940  30.882  1.00  0.00    -0.304 OA
HETATM    3  O   UNL     1      26.257  23.908  34.121  1.00  0.00    -0.304 OA
HETATM    4  O   UNL     1      26.141  23.772  29.810  1.00  0.00    -0.270 OA
HETATM    5  O   UNL     1      24.390  25.056  31.800  1.00  0.00    -0.270 OA
HETATM    6  O   UNL     1      28.494  20.493  33.722  1.00  0.00    -0.270 OA
HETATM    7  O   UNL     1      28.200  26.378  31.199  1.00  0.00    -0.263 OA
HETATM    8  O   UNL     1      27.822  20.014  30.875  1.00  0.00    -0.263 OA
HETATM    9  O   UNL     1      26.109  23.709  36.404  1.00  0.00    -0.263 OA
HETATM   10  N   UNL     1      27.996  22.942  28.707  1.00  0.00    -0.340 N 
HETATM   11  N   UNL     1      25.845  26.576  32.778  1.00  0.00    -0.340 N 
HETATM   12  N   UNL     1      28.695  22.799  33.955  1.00  0.00    -0.340 N 
HETATM   13  C   UNL     1      27.596  21.557  29.036  1.00  0.00     0.190 C 
HETATM   14  C   UNL     1      25.974  27.313  31.504  1.00  0.00     0.190 C 
HETATM   15  C   UNL     1      28.050  22.803  35.285  1.00  0.00     0.190 C 
HETATM   16  C   UNL     1      27.495  25.411  28.712  1.00  0.00     0.227 C 
HETATM   17  C   UNL     1      29.829  21.607  32.066  1.00  0.00     0.227 C 
HETATM   18  C   UNL     1      24.994  24.598  34.068  1.00  0.00     0.227 C 
HETATM   19  C   UNL     1      27.152  23.978  29.129  1.00  0.00     0.250 C 
HETATM   20  C   UNL     1      25.040  25.422  32.784  1.00  0.00     0.250 C 
HETATM   21  C   UNL     1      28.937  21.571  33.315  1.00  0.00     0.250 C 
HETATM   22  C   UNL     1      27.093  26.625  30.740  1.00  0.00     0.283 C 
HETATM   23  C   UNL     1      28.159  21.081  30.373  1.00  0.00     0.283 C 
HETATM   24  C   UNL     1      26.709  23.531  35.349  1.00  0.00     0.283 C 
HETATM   25  C   UNL     1      29.264  23.138  27.997  1.00  0.00     0.153 C 
HETATM   26  C   UNL     1      26.591  27.075  33.937  1.00  0.00     0.153 C 
HETATM   27  C   UNL     1      29.211  24.073  33.451  1.00  0.00     0.153 C 
ENDROOT
BRANCH  16  28
HETATM   28  C   UNL     1      27.145  25.645  27.250  1.00  0.00     0.016 C 
HETATM   29  C   UNL     1      26.257  26.879  27.099  1.00  0.00     0.012 C 
HETATM   30  C   UNL     1      28.412  25.792  26.408  1.00  0.00     0.012 C 
ENDBRANCH  16  28
BRANCH  14  31
HETATM   31  C   UNL     1      26.257  28.805  31.622  1.00  0.00     0.010 C 
HETATM   32  C   UNL     1      26.575  29.401  30.253  1.00  0.00     0.012 C 
HETATM   33  C   UNL     1      25.073  29.528  32.260  1.00  0.00     0.012 C 
ENDBRANCH  14  31
BRANCH  13  34
HETATM   34  C   UNL     1      27.934  20.543  27.944  1.00  0.00     0.010 C 
HETATM   35  C   UNL     1      26.980  19.350  28.003  1.00  0.00     0.012 C 
HETATM   36  C   UNL     1      29.382  20.075  28.069  1.00  0.00     0.012 C 
ENDBRANCH  13  34
BRANCH  18  37
HETATM   37  C   UNL     1      23.873  23.562  34.033  1.00  0.00     0.016 C 
HETATM   38  C   UNL     1      24.438  22.167  33.763  1.00  0.00     0.012 C 
HETATM   39  C   UNL     1      23.083  23.575  35.340  1.00  0.00     0.012 C 
ENDBRANCH  18  37
BRANCH  17  40
HETATM   40  C   UNL     1      30.641  20.325  31.884  1.00  0.00     0.016 C 
HETATM   41  C   UNL     1      31.361  19.956  33.179  1.00  0.00     0.012 C 
HETATM   42  C   UNL     1      31.641  20.480  30.739  1.00  0.00     0.012 C 
ENDBRANCH  17  40
BRANCH  15  43
HETATM   43  C   UNL     1      28.998  23.331  36.362  1.00  0.00     0.010 C 
HETATM   44  C   UNL     1      30.291  22.518  36.379  1.00  0.00     0.012 C 
HETATM   45  C   UNL     1      29.295  24.810  36.133  1.00  0.00     0.012 C 
ENDBRANCH  15  43
TORSDOF 6
ENDMDL
MODEL 3
REMARK VINA RESULT:    -7.679      2.429      6.550
REMARK INTER + INTRA:          -9.066
REMARK INTER:                 -10.240
REMARK INTRA:                   1.174
REMARK UNBOUND:                 1.306
REMARK  6 active torsions:
REMARK  status: ('A' for Active; 'I' for Inactive)
REMARK    1  A    between atoms: C_13  and  C_16 
REMARK    2  A    between atoms: C_14  and  C_17 
REMARK    3  A    between atoms: C_15  and  C_18 
REMARK    4  A    between atoms: C_19  and  C_22 
REMARK    5  A    between atoms: C_20  and  C_23 
REMARK    6  A    between atoms: C_21  and  C_24 
ROOT
HETATM    1  O   UNL     1      26.611  26.165  31.677  1.00  0.00    -0.304 OA
HETATM    2  O   UNL     1      27.187  21.323  33.411  1.00  0.00    -0.304 OA
HETATM    3  O   UNL     1      28.556  22.148  28.961  1.00  0.00    -0.304 OA
HETATM    4  O   UNL     1      28.490  24.590  32.518  1.00  0.00    -0.270 OA
HETATM    5  O   UNL     1      29.301  25.152  29.743  1.00  0.00    -0.270 OA
HETATM    6  O   UNL     1      28.654  19.041  31.637  1.00  0.00    -0.270 OA
HETATM    7  O   UNL     1      25.392  24.476  30.687  1.00  0.00    -0.263 OA
HETATM    8  O   UNL     1      29.321  20.694  34.007  1.00  0.00    -0.263 OA
HETATM    9  O   UNL     1      28.918  20.781  27.152  1.00  0.00    -0.263 OA
HETATM   10  N   UNL     1      27.385  23.763  34.373  1.00  0.00    -0.340 N 
HETATM   11  N   UNL     1      27.295  24.864  28.612  1.00  0.00    -0.340 N 
HETATM   12  N   UNL     1      27.185  20.313  30.359  1.00  0.00    -0.340 N 
HETATM   13  C   UNL     1      28.521  22.869  34.676  1.00  0.00     0.190 C 
HETATM   14  C   UNL     1      26.698  26.012  29.324  1.00  0.00     0.190 C 
HETATM   15  C   UNL     1      27.785  19.872  29.083  1.00  0.00     0.190 C 
HETATM   16  C   UNL     1      26.384  25.620  32.995  1.00  0.00     0.227 C 
HETATM   17  C   UNL     1      26.833  20.058  32.827  1.00  0.00     0.227 C 
HETATM   18  C   UNL     1      29.194  23.253  28.294  1.00  0.00     0.227 C 
HETATM   19  C   UNL     1      27.507  24.616  33.267  1.00  0.00     0.250 C 
HETATM   20  C   UNL     1      28.614  24.505  28.947  1.00  0.00     0.250 C 
HETATM   21  C   UNL     1      27.653  19.759  31.563  1.00  0.00     0.250 C 
HETATM   22  C   UNL     1      26.132  25.448  30.617  1.00  0.00     0.283 C 
HETATM   23  C   UNL     1      28.407  21.512  33.984  1.00  0.00     0.283 C 
HETATM   24  C   UNL     1      28.470  20.973  28.277  1.00  0.00     0.283 C 
HETATM   25  C   UNL     1      26.195  23.672  35.225  1.00  0.00     0.153 C 
HETATM   26  C   UNL     1      26.463  24.156  27.634  1.00  0.00     0.153 C 
HETATM   27  C   UNL     1      26.006  21.179  30.289  1.00  0.00     0.153 C 
ENDROOT
BRANCH  16  28
HETATM   28  C   UNL     1      26.456  26.785  33.971  1.00  0.00     0.016 C 
HETATM   29  C   UNL     1      27.869  27.365  34.016  1.00  0.00     0.012 C 
HETATM   30  C   UNL     1      25.445  27.868  33.596  1.00  0.00     0.012 C 
ENDBRANCH  16  28
BRANCH  14  31
HETATM   31  C   UNL     1      25.620  26.779  28.568  1.00  0.00     0.010 C 
HETATM   32  C   UNL     1      24.965  27.818  29.475  1.00  0.00     0.012 C 
HETATM   33  C   UNL     1      26.205  27.444  27.325  1.00  0.00     0.012 C 
ENDBRANCH  14  31
BRANCH  13  34
HETATM   34  C   UNL     1      28.764  22.665  36.171  1.00  0.00     0.010 C 
HETATM   35  C   UNL     1      30.256  22.505  36.459  1.00  0.00     0.012 C 
HETATM   36  C   UNL     1      27.988  21.455  36.686  1.00  0.00     0.012 C 
ENDBRANCH  13  34
BRANCH  18  37
HETATM   37  C   UNL     1      30.701  23.151  28.510  1.00  0.00     0.016 C 
HETATM   38  C   UNL     1      31.018  22.166  29.636  1.00  0.00     0.012 C 
HETATM   39  C   UNL     1      31.406  22.734  27.221  1.00  0.00     0.012 C 
ENDBRANCH  18  37
BRANCH  17  40
HETATM   40  C   UNL     1      26.890  18.924  33.850  1.00  0.00     0.016 C 
HETATM   41  C   UNL     1      26.658  17.576  33.171  1.00  0.00     0.012 C 
HETATM   42  C   UNL     1      25.866  19.150  34.961  1.00  0.00     0.012 C 
ENDBRANCH  17  40
BRANCH  15  43
HETATM   43  C   UNL     1      26.766  19.130  28.217  1.00  0.00     0.010 C 
HETATM   44  C   UNL     1      27.463  18.429  27.054  1.00  0.00     0.012 C 
HETATM   45  C   UNL     1      25.981  18.127  29.057  1.00  0.00     0.012 C 
ENDBRANCH  15  43
TORSDOF 6
ENDMDL
MODEL 4
REMARK VINA RESULT:    -7.640      1.982      6.622
REMARK INTER + INTRA:          -9.013
REMARK INTER:                 -10.039
REMARK INTRA:                   1.026
REMARK UNBOUND:                 1.306
REMARK  6 active torsions:
REMARK  status: ('A' for Active; 'I' for Inactive)
REMARK    1  A    between atoms: C_13  and  C_16 
REMARK    2  A    between atoms: C_14  and  C_17 
REMARK    3  A    between atoms: C_15  and  C_18 
REMARK    4  A    between atoms: C_19  and  C_22 
REMARK    5  A    between atoms: C_20  and  C_23 
REMARK    6  A    between atoms: C_21  and  C_24 
ROOT
HETATM    1  O   UNL     1      29.653  21.424  34.734  1.00  0.00    -0.304 OA
HETATM    2  O   UNL     1      26.198  24.959  33.202  1.00  0.00    -0.304 OA
HETATM    3  O   UNL     1      27.989  22.163  29.836  1.00  0.00    -0.304 OA
HETATM    4  O   UNL     1      27.163  21.560  34.028  1.00  0.00    -0.270 OA
HETATM    5  O   UNL     1      28.331  19.810  31.968  1.00  0.00    -0.270 OA
HETATM    6  O   UNL     1      25.117  25.075  30.148  1.00  0.00    -0.270 OA
HETATM    7  O   UNL     1      30.335  23.101  33.304  1.00  0.00    -0.263 OA
HETATM    8  O   UNL     1      24.068  24.195  32.777  1.00  0.00    -0.263 OA
HETATM    9  O   UNL     1      28.119  22.344  27.551  1.00  0.00    -0.263 OA
HETATM   10  N   UNL     1      26.591  23.411  35.292  1.00  0.00    -0.340 N 
HETATM   11  N   UNL     1      30.262  20.974  31.420  1.00  0.00    -0.340 N 
HETATM   12  N   UNL     1      27.420  24.754  30.236  1.00  0.00    -0.340 N 
HETATM   13  C   UNL     1      25.221  23.391  34.737  1.00  0.00     0.190 C 
HETATM   14  C   UNL     1      30.803  20.771  32.779  1.00  0.00     0.190 C 
HETATM   15  C   UNL     1      27.491  24.293  28.834  1.00  0.00     0.190 C 
HETATM   16  C   UNL     1      28.864  22.347  35.515  1.00  0.00     0.227 C 
HETATM   17  C   UNL     1      26.222  25.899  32.115  1.00  0.00     0.227 C 
HETATM   18  C   UNL     1      28.372  20.776  29.780  1.00  0.00     0.227 C 
HETATM   19  C   UNL     1      27.474  22.403  34.877  1.00  0.00     0.250 C 
HETATM   20  C   UNL     1      28.978  20.471  31.148  1.00  0.00     0.250 C 
HETATM   21  C   UNL     1      26.189  25.199  30.748  1.00  0.00     0.250 C 
HETATM   22  C   UNL     1      30.263  21.919  33.615  1.00  0.00     0.283 C 
HETATM   23  C   UNL     1      25.091  24.208  33.453  1.00  0.00     0.283 C 
HETATM   24  C   UNL     1      27.914  22.836  28.655  1.00  0.00     0.283 C 
HETATM   25  C   UNL     1      26.944  24.501  36.206  1.00  0.00     0.153 C 
HETATM   26  C   UNL     1      31.085  21.717  30.460  1.00  0.00     0.153 C 
HETATM   27  C   UNL     1      28.681  24.891  30.967  1.00  0.00     0.153 C 
ENDROOT
BRANCH  16  28
HETATM   28  C   UNL     1      28.787  21.777  36.924  1.00  0.00     0.016 C 
HETATM   29  C   UNL     1      27.519  20.943  37.099  1.00  0.00     0.012 C 
HETATM   30  C   UNL     1      30.026  20.939  37.237  1.00  0.00     0.012 C 
ENDBRANCH  16  28
BRANCH  14  31
HETATM   31  C   UNL     1      32.321  20.707  32.892  1.00  0.00     0.010 C 
HETATM   32  C   UNL     1      32.768  21.027  34.317  1.00  0.00     0.012 C 
HETATM   33  C   UNL     1      32.834  19.334  32.465  1.00  0.00     0.012 C 
ENDBRANCH  14  31
BRANCH  13  34
HETATM   34  C   UNL     1      24.146  23.823  35.733  1.00  0.00     0.010 C 
HETATM   35  C   UNL     1      22.996  22.817  35.756  1.00  0.00     0.012 C 
HETATM   36  C   UNL     1      23.627  25.220  35.398  1.00  0.00     0.012 C 
ENDBRANCH  13  34
BRANCH  18  37
HETATM   37  C   UNL     1      27.127  19.935  29.514  1.00  0.00     0.016 C 
HETATM   38  C   UNL     1      25.864  20.789  29.636  1.00  0.00     0.012 C 
HETATM   39  C   UNL     1      27.199  19.281  28.136  1.00  0.00     0.012 C 
ENDBRANCH  18  37
BRANCH  17  40
HETATM   40  C   UNL     1      25.133  26.962  32.259  1.00  0.00     0.016 C 
HETATM   41  C   UNL     1      25.142  27.908  31.060  1.00  0.00     0.012 C 
HETATM   42  C   UNL     1      25.313  27.743  33.560  1.00  0.00     0.012 C 
ENDBRANCH  17  40
BRANCH  15  43
HETATM   43  C   UNL     1      28.372  25.214  27.989  1.00  0.00     0.010 C 
HETATM   44  C   UNL     1      29.708  24.541  27.683  1.00  0.00     0.012 C 
HETATM   45  C   UNL     1      27.656  25.602  26.699  1.00  0.00     0.012 C 
ENDBRANCH  15  43
TORSDOF 6
ENDMDL
MODEL 5
REMARK VINA RESULT:    -7.587      2.106      7.069
REMARK INTER + INTRA:          -8.941
REMARK INTER:                 -10.066
REMARK INTRA:                   1.125
REMARK UNBOUND:                 1.306
REMARK  6 active torsions:
REMARK  status: ('A' for Active; 'I' for Inactive)
REMARK    1  A    between atoms: C_13  and  C_16 
REMARK    2  A    between atoms: C_14  and  C_17 
REMARK    3  A    between atoms: C_15  and  C_18 
REMARK    4  A    between atoms: C_19  and  C_22 
REMARK    5  A    between atoms: C_20  and  C_23 
REMARK    6  A    between atoms: C_21  and  C_24 
ROOT
HETATM    1  O   UNL     1      26.069  27.006  31.172  1.00  0.00    -0.304 OA
HETATM    2  O   UNL     1      25.789  22.938  34.359  1.00  0.00    -0.304 OA
HETATM    3  O   UNL     1      28.431  22.398  30.475  1.00  0.00    -0.304 OA
HETATM    4  O   UNL     1      27.515  25.806  32.958  1.00  0.00    -0.270 OA
HETATM    5  O   UNL     1      29.125  25.514  30.509  1.00  0.00    -0.270 OA
HETATM    6  O   UNL     1      27.542  20.258  33.859  1.00  0.00    -0.270 OA
HETATM    7  O   UNL     1      25.072  25.068  30.418  1.00  0.00    -0.263 OA
HETATM    8  O   UNL     1      27.613  22.569  35.715  1.00  0.00    -0.263 OA
HETATM    9  O   UNL     1      29.202  20.553  29.345  1.00  0.00    -0.263 OA
HETATM   10  N   UNL     1      25.869  25.559  34.564  1.00  0.00    -0.340 N 
HETATM   11  N   UNL     1      27.513  24.849  28.978  1.00  0.00    -0.340 N 
HETATM   12  N   UNL     1      26.593  21.046  31.887  1.00  0.00    -0.340 N 
HETATM   13  C   UNL     1      26.807  24.825  35.440  1.00  0.00     0.190 C 
HETATM   14  C   UNL     1      26.817  26.145  29.107  1.00  0.00     0.190 C 
HETATM   15  C   UNL     1      27.502  20.250  31.036  1.00  0.00     0.190 C 
HETATM   16  C   UNL     1      25.437  26.884  32.465  1.00  0.00     0.227 C 
HETATM   17  C   UNL     1      25.531  21.547  34.101  1.00  0.00     0.227 C 
HETATM   18  C   UNL     1      29.308  23.261  29.727  1.00  0.00     0.227 C 
HETATM   19  C   UNL     1      26.363  26.036  33.341  1.00  0.00     0.250 C 
HETATM   20  C   UNL     1      28.652  24.640  29.777  1.00  0.00     0.250 C 
HETATM   21  C   UNL     1      26.656  20.896  33.283  1.00  0.00     0.250 C 
HETATM   22  C   UNL     1      25.867  25.990  30.282  1.00  0.00     0.283 C 
HETATM   23  C   UNL     1      26.803  23.320  35.182  1.00  0.00     0.283 C 
HETATM   24  C   UNL     1      28.463  21.069  30.178  1.00  0.00     0.283 C 
HETATM   25  C   UNL     1      24.482  25.704  35.015  1.00  0.00     0.153 C 
HETATM   26  C   UNL     1      26.950  23.858  28.056  1.00  0.00     0.153 C 
HETATM   27  C   UNL     1      25.546  21.822  31.218  1.00  0.00     0.153 C 
ENDROOT
BRANCH  16  28
HETATM   28  C   UNL     1      25.305  28.292  33.026  1.00  0.00     0.016 C 
HETATM   29  C   UNL     1      26.535  28.659  33.855  1.00  0.00     0.012 C 
HETATM   30  C   UNL     1      25.097  29.305  31.901  1.00  0.00     0.012 C 
ENDBRANCH  16  28
BRANCH  14  31
HETATM   31  C   UNL     1      26.056  26.620  27.875  1.00  0.00     0.010 C 
HETATM   32  C   UNL     1      25.217  27.852  28.204  1.00  0.00     0.012 C 
HETATM   33  C   UNL     1      27.021  26.920  26.730  1.00  0.00     0.012 C 
ENDBRANCH  14  31
BRANCH  13  34
HETATM   34  C   UNL     1      26.596  25.093  36.930  1.00  0.00     0.010 C 
HETATM   35  C   UNL     1      27.895  25.563  37.583  1.00  0.00     0.012 C 
HETATM   36  C   UNL     1      26.065  23.846  37.634  1.00  0.00     0.012 C 
ENDBRANCH  13  34
BRANCH  18  37
HETATM   37  C   UNL     1      30.679  23.265  30.398  1.00  0.00     0.016 C 
HETATM   38  C   UNL     1      30.605  22.610  31.777  1.00  0.00     0.012 C 
HETATM   39  C   UNL     1      31.710  22.556  29.523  1.00  0.00     0.012 C 
ENDBRANCH  18  37
BRANCH  17  40
HETATM   40  C   UNL     1      25.214  20.780  35.384  1.00  0.00     0.016 C 
HETATM   41  C   UNL     1      25.178  19.277  35.118  1.00  0.00     0.012 C 
HETATM   42  C   UNL     1      23.888  21.252  35.979  1.00  0.00     0.012 C 
ENDBRANCH  17  40
BRANCH  15  43
HETATM   43  C   UNL     1      26.726  19.257  30.171  1.00  0.00     0.010 C 
HETATM   44  C   UNL     1      26.695  19.724  28.718  1.00  0.00     0.012 C 
HETATM   45  C   UNL     1      27.340  17.864  30.276  1.00  0.00     0.012 C 
ENDBRANCH  15  43
TORSDOF 6
ENDMDL
MODEL 6
REMARK VINA RESULT:    -7.459     20.728     23.523
REMARK INTER + INTRA:          -8.769
REMARK INTER:                 -11.553
REMARK INTRA:                   2.784
REMARK UNBOUND:                 1.306
REMARK  6 active torsions:
REMARK  status: ('A' for Active; 'I' for Inactive)
REMARK    1  A    between atoms: C_13  and  C_16 
REMARK    2  A    between atoms: C_14  and  C_17 
REMARK    3  A    between atoms: C_15  and  C_18 
REMARK    4  A    between atoms: C_19  and  C_22 
REMARK    5  A    between atoms: C_20  and  C_23 
REMARK    6  A    between atoms: C_21  and  C_24 
ROOT
HETATM    1  O   UNL     1      37.149  22.951  11.997  1.00  0.00    -0.304 OA
HETATM    2  O   UNL     1      32.073  23.709  11.331  1.00  0.00    -0.304 OA
HETATM    3  O   UNL     1      34.806  27.567  11.288  1.00  0.00    -0.304 OA
HETATM    4  O   UNL     1      35.475  23.476  10.089  1.00  0.00    -0.270 OA
HETATM    5  O   UNL     1      37.220  25.849  10.100  1.00  0.00    -0.270 OA
HETATM    6  O   UNL     1      30.862  26.638  10.653  1.00  0.00    -0.270 OA
HETATM    7  O   UNL     1      35.983  24.143  13.591  1.00  0.00    -0.263 OA
HETATM    8  O   UNL     1      31.371  24.118   9.176  1.00  0.00    -0.263 OA
HETATM    9  O   UNL     1      34.372  29.801  11.596  1.00  0.00    -0.263 OA
HETATM   10  N   UNL     1      33.870  21.910  10.655  1.00  0.00    -0.340 N 
HETATM   11  N   UNL     1      37.332  26.325  12.368  1.00  0.00    -0.340 N 
HETATM   12  N   UNL     1      32.475  26.739  12.326  1.00  0.00    -0.340 N 
HETATM   13  C   UNL     1      32.998  22.379   9.558  1.00  0.00     0.190 C 
HETATM   14  C   UNL     1      38.027  25.048  12.629  1.00  0.00     0.190 C 
HETATM   15  C   UNL     1      32.659  28.197  12.173  1.00  0.00     0.190 C 
HETATM   16  C   UNL     1      36.079  21.991  11.865  1.00  0.00     0.227 C 
HETATM   17  C   UNL     1      31.164  24.637  11.946  1.00  0.00     0.227 C 
HETATM   18  C   UNL     1      36.125  27.860  10.790  1.00  0.00     0.227 C 
HETATM   19  C   UNL     1      35.121  22.528  10.799  1.00  0.00     0.250 C 
HETATM   20  C   UNL     1      36.940  26.594  11.044  1.00  0.00     0.250 C 
HETATM   21  C   UNL     1      31.484  26.091  11.568  1.00  0.00     0.250 C 
HETATM   22  C   UNL     1      36.932  24.014  12.828  1.00  0.00     0.283 C 
HETATM   23  C   UNL     1      32.066  23.511   9.985  1.00  0.00     0.283 C 
HETATM   24  C   UNL     1      34.037  28.624  11.671  1.00  0.00     0.283 C 
HETATM   25  C   UNL     1      33.354  20.862  11.540  1.00  0.00     0.153 C 
HETATM   26  C   UNL     1      37.067  27.207  13.509  1.00  0.00     0.153 C 
HETATM   27  C   UNL     1      33.218  26.072  13.397  1.00  0.00     0.153 C 
ENDROOT
BRANCH  16  28
HETATM   28  C   UNL     1      36.713  20.685  11.410  1.00  0.00     0.016 C 
HETATM   29  C   UNL     1      38.213  20.865  11.178  1.00  0.00     0.012 C 
HETATM   30  C   UNL     1      36.460  19.576  12.430  1.00  0.00     0.012 C 
ENDBRANCH  16  28
BRANCH  14  31
HETATM   31  C   UNL     1      38.982  25.038  13.817  1.00  0.00     0.010 C 
HETATM   32  C   UNL     1      39.494  23.624  14.082  1.00  0.00     0.012 C 
HETATM   33  C   UNL     1      40.148  25.994  13.577  1.00  0.00     0.012 C 
ENDBRANCH  14  31
BRANCH  13  34
HETATM   34  C   UNL     1      32.186  21.264   8.898  1.00  0.00     0.010 C 
HETATM   35  C   UNL     1      31.097  21.850   8.000  1.00  0.00     0.012 C 
HETATM   36  C   UNL     1      31.573  20.345   9.952  1.00  0.00     0.012 C 
ENDBRANCH  13  34
BRANCH  18  37
HETATM   37  C   UNL     1      36.025  28.177   9.300  1.00  0.00     0.016 C 
HETATM   38  C   UNL     1      34.587  28.011   8.809  1.00  0.00     0.012 C 
HETATM   39  C   UNL     1      36.529  29.590   9.013  1.00  0.00     0.012 C 
ENDBRANCH  18  37
BRANCH  17  40
HETATM   40  C   UNL     1      29.706  24.265  11.680  1.00  0.00     0.016 C 
HETATM   41  C   UNL     1      28.765  25.207  12.428  1.00  0.00     0.012 C 
HETATM   42  C   UNL     1      29.440  22.814  12.076  1.00  0.00     0.012 C 
ENDBRANCH  17  40
BRANCH  15  43
HETATM   43  C   UNL     1      32.304  28.941  13.461  1.00  0.00     0.010 C 
HETATM   44  C   UNL     1      31.882  30.375  13.151  1.00  0.00     0.012 C 
HETATM   45  C   UNL     1      31.201  28.206  14.215  1.00  0.00     0.012 C 
ENDBRANCH  15  43
TORSDOF 6
ENDMDL
MODEL 7
REMARK VINA RESULT:    -7.271      2.593      6.888
REMARK INTER + INTRA:          -8.516
REMARK INTER:                  -9.267
REMARK INTRA:                   0.751
REMARK UNBOUND:                 1.306
REMARK  6 active torsions:
REMARK  status: ('A' for Active; 'I' for Inactive)
REMARK    1  A    between atoms: C_13  and  C_16 
REMARK    2  A    between atoms: C_14  and  C_17 
REMARK    3  A    between atoms: C_15  and  C_18 
REMARK    4  A    between atoms: C_19  and  C_22 
REMARK    5  A    between atoms: C_20  and  C_23 
REMARK    6  A    between atoms: C_21  and  C_24 
ROOT
HETATM    1  O   UNL     1      25.862  23.756  30.706  1.00  0.00    -0.304 OA
HETATM    2  O   UNL     1      30.716  22.087  30.048  1.00  0.00    -0.304 OA
HETATM    3  O   UNL     1      28.465  20.557  33.913  1.00  0.00    -0.304 OA
HETATM    4  O   UNL     1      27.119  21.618  29.953  1.00  0.00    -0.270 OA
HETATM    5  O   UNL     1      25.681  20.717  32.359  1.00  0.00    -0.270 OA
HETATM    6  O   UNL     1      32.051  19.900  32.033  1.00  0.00    -0.270 OA
HETATM    7  O   UNL     1      27.470  24.379  32.236  1.00  0.00    -0.263 OA
HETATM    8  O   UNL     1      30.965  19.933  29.275  1.00  0.00    -0.263 OA
HETATM    9  O   UNL     1      29.189  19.669  35.903  1.00  0.00    -0.263 OA
HETATM   10  N   UNL     1      28.635  22.641  28.537  1.00  0.00    -0.340 N 
HETATM   11  N   UNL     1      26.123  22.453  33.834  1.00  0.00    -0.340 N 
HETATM   12  N   UNL     1      30.867  21.522  33.209  1.00  0.00    -0.340 N 
HETATM   13  C   UNL     1      29.288  21.343  28.266  1.00  0.00     0.190 C 
HETATM   14  C   UNL     1      25.372  23.401  32.986  1.00  0.00     0.190 C 
HETATM   15  C   UNL     1      30.809  20.704  34.438  1.00  0.00     0.190 C 
HETATM   16  C   UNL     1      26.769  23.958  29.600  1.00  0.00     0.227 C 
HETATM   17  C   UNL     1      31.831  22.034  30.953  1.00  0.00     0.227 C 
HETATM   18  C   UNL     1      27.107  20.173  34.201  1.00  0.00     0.227 C 
HETATM   19  C   UNL     1      27.520  22.641  29.386  1.00  0.00     0.250 C 
HETATM   20  C   UNL     1      26.239  21.127  33.382  1.00  0.00     0.250 C 
HETATM   21  C   UNL     1      31.592  21.044  32.103  1.00  0.00     0.250 C 
HETATM   22  C   UNL     1      26.369  23.921  31.964  1.00  0.00     0.283 C 
HETATM   23  C   UNL     1      30.406  21.024  29.258  1.00  0.00     0.283 C 
HETATM   24  C   UNL     1      29.407  20.261  34.851  1.00  0.00     0.283 C 
HETATM   25  C   UNL     1      29.220  23.841  27.932  1.00  0.00     0.153 C 
HETATM   26  C   UNL     1      26.725  22.967  35.069  1.00  0.00     0.153 C 
HETATM   27  C   UNL     1      30.312  22.876  33.270  1.00  0.00     0.153 C 
ENDROOT
BRANCH  16  28
HETATM   28  C   UNL     1      25.916  24.295  28.386  1.00  0.00     0.016 C 
HETATM   29  C   UNL     1      24.539  23.640  28.496  1.00  0.00     0.012 C 
HETATM   30  C   UNL     1      25.777  25.808  28.225  1.00  0.00     0.012 C 
ENDBRANCH  16  28
BRANCH  14  31
HETATM   31  C   UNL     1      24.707  24.565  33.711  1.00  0.00     0.010 C 
HETATM   32  C   UNL     1      24.358  25.681  32.729  1.00  0.00     0.012 C 
HETATM   33  C   UNL     1      23.459  24.093  34.453  1.00  0.00     0.012 C 
ENDBRANCH  14  31
BRANCH  13  34
HETATM   34  C   UNL     1      29.812  21.203  26.837  1.00  0.00     0.010 C 
HETATM   35  C   UNL     1      29.449  19.834  26.262  1.00  0.00     0.012 C 
HETATM   36  C   UNL     1      31.323  21.418  26.791  1.00  0.00     0.012 C 
ENDBRANCH  13  34
BRANCH  18  37
HETATM   37  C   UNL     1      26.908  18.722  33.772  1.00  0.00     0.016 C 
HETATM   38  C   UNL     1      28.107  18.231  32.960  1.00  0.00     0.012 C 
HETATM   39  C   UNL     1      26.683  17.825  34.988  1.00  0.00     0.012 C 
ENDBRANCH  18  37
BRANCH  17  40
HETATM   40  C   UNL     1      33.148  21.778  30.219  1.00  0.00     0.016 C 
HETATM   41  C   UNL     1      34.320  21.784  31.199  1.00  0.00     0.012 C 
HETATM   42  C   UNL     1      33.361  22.817  29.121  1.00  0.00     0.012 C 
ENDBRANCH  17  40
BRANCH  15  43
HETATM   43  C   UNL     1      31.515  21.399  35.603  1.00  0.00     0.010 C 
HETATM   44  C   UNL     1      30.502  22.124  36.485  1.00  0.00     0.012 C 
HETATM   45  C   UNL     1      32.317  20.391  36.419  1.00  0.00     0.012 C 
ENDBRANCH  15  43
TORSDOF 6
ENDMDL
MODEL 8
REMARK VINA RESULT:    -7.203      2.445      6.872
REMARK INTER + INTRA:          -8.423
REMARK INTER:                  -9.614
REMARK INTRA:                   1.191
REMARK UNBOUND:                 1.306
REMARK  6 active torsions:
REMARK  status: ('A' for Active; 'I' for Inactive)
REMARK    1  A    between atoms: C_13  and  C_16 
REMARK    2  A    between atoms: C_14  and  C_17 
REMARK    3  A    between atoms: C_15  and  C_18 
REMARK    4  A    between atoms: C_19  and  C_22 
REMARK    5  A    between atoms: C_20  and  C_23 
REMARK    6  A    between atoms: C_21  and  C_24 
ROOT
HETATM    1  O   UNL     1      26.941  19.211  30.912  1.00  0.00    -0.304 OA
HETATM    2  O   UNL     1      25.873  24.228  31.600  1.00  0.00    -0.304 OA
HETATM    3  O   UNL     1      27.961  22.001  35.210  1.00  0.00    -0.304 OA
HETATM    4  O   UNL     1      28.165  21.496  30.930  1.00  0.00    -0.270 OA
HETATM    5  O   UNL     1      29.440  20.053  33.158  1.00  0.00    -0.270 OA
HETATM    6  O   UNL     1      26.825  25.825  34.255  1.00  0.00    -0.270 OA
HETATM    7  O   UNL     1      25.418  19.812  32.536  1.00  0.00    -0.263 OA
HETATM    8  O   UNL     1      27.642  25.689  31.409  1.00  0.00    -0.263 OA
HETATM    9  O   UNL     1      28.133  22.465  37.453  1.00  0.00    -0.263 OA
HETATM   10  N   UNL     1      26.647  22.663  29.633  1.00  0.00    -0.340 N 
HETATM   11  N   UNL     1      27.593  19.168  34.248  1.00  0.00    -0.340 N 
HETATM   12  N   UNL     1      25.956  23.730  34.775  1.00  0.00    -0.340 N 
HETATM   13  C   UNL     1      27.430  23.905  29.800  1.00  0.00     0.190 C 
HETATM   14  C   UNL     1      27.270  18.329  33.075  1.00  0.00     0.190 C 
HETATM   15  C   UNL     1      26.556  23.726  36.125  1.00  0.00     0.190 C 
HETATM   16  C   UNL     1      26.405  20.180  29.984  1.00  0.00     0.227 C 
HETATM   17  C   UNL     1      25.243  24.923  32.689  1.00  0.00     0.227 C 
HETATM   18  C   UNL     1      28.969  20.977  35.313  1.00  0.00     0.227 C 
HETATM   19  C   UNL     1      27.147  21.496  30.229  1.00  0.00     0.250 C 
HETATM   20  C   UNL     1      28.699  20.030  34.146  1.00  0.00     0.250 C 
HETATM   21  C   UNL     1      26.091  24.874  33.969  1.00  0.00     0.250 C 
HETATM   22  C   UNL     1      26.410  19.196  32.171  1.00  0.00     0.283 C 
HETATM   23  C   UNL     1      27.014  24.705  31.033  1.00  0.00     0.283 C 
HETATM   24  C   UNL     1      27.624  22.659  36.354  1.00  0.00     0.283 C 
HETATM   25  C   UNL     1      25.386  22.742  28.889  1.00  0.00     0.153 C 
HETATM   26  C   UNL     1      26.719  19.071  35.421  1.00  0.00     0.153 C 
HETATM   27  C   UNL     1      25.096  22.601  34.413  1.00  0.00     0.153 C 
ENDROOT
BRANCH  16  28
HETATM   28  C   UNL     1      26.689  19.654  28.585  1.00  0.00     0.016 C 
HETATM   29  C   UNL     1      28.151  19.888  28.208  1.00  0.00     0.012 C 
HETATM   30  C   UNL     1      26.343  18.169  28.485  1.00  0.00     0.012 C 
ENDBRANCH  16  28
BRANCH  14  31
HETATM   31  C   UNL     1      26.562  17.013  33.371  1.00  0.00     0.010 C 
HETATM   32  C   UNL     1      26.156  16.318  32.073  1.00  0.00     0.012 C 
HETATM   33  C   UNL     1      27.452  16.100  34.211  1.00  0.00     0.012 C 
ENDBRANCH  14  31
BRANCH  13  34
HETATM   34  C   UNL     1      27.417  24.812  28.569  1.00  0.00     0.010 C 
HETATM   35  C   UNL     1      28.828  24.978  28.006  1.00  0.00     0.012 C 
HETATM   36  C   UNL     1      26.813  26.173  28.907  1.00  0.00     0.012 C 
ENDBRANCH  13  34
BRANCH  18  37
HETATM   37  C   UNL     1      30.343  21.632  35.203  1.00  0.00     0.016 C 
HETATM   38  C   UNL     1      30.211  23.094  34.778  1.00  0.00     0.012 C 
HETATM   39  C   UNL     1      31.100  21.525  36.525  1.00  0.00     0.012 C 
ENDBRANCH  18  37
BRANCH  17  40
HETATM   40  C   UNL     1      24.843  26.346  32.301  1.00  0.00     0.016 C 
HETATM   41  C   UNL     1      24.041  27.004  33.421  1.00  0.00     0.012 C 
HETATM   42  C   UNL     1      24.044  26.343  30.999  1.00  0.00     0.012 C 
ENDBRANCH  17  40
BRANCH  15  43
HETATM   43  C   UNL     1      25.481  23.649  37.210  1.00  0.00     0.010 C 
HETATM   44  C   UNL     1      24.373  24.663  36.938  1.00  0.00     0.012 C 
HETATM   45  C   UNL     1      24.909  22.237  37.295  1.00  0.00     0.012 C 
ENDBRANCH  15  43
TORSDOF 6
ENDMDL
MODEL 9
REMARK VINA RESULT:    -7.101      1.743      7.965
REMARK INTER + INTRA:          -8.285
REMARK INTER:                  -9.051
REMARK INTRA:                   0.766
REMARK UNBOUND:                 1.306
REMARK  6 active torsions:
REMARK  status: ('A' for Active; 'I' for Inactive)
REMARK    1  A    between atoms: C_13  and  C_16 
REMARK    2  A    between atoms: C_14  and  C_17 
REMARK    3  A    between atoms: C_15  and  C_18 
REMARK    4  A    between atoms: C_19  and  C_22 
REMARK    5  A    between atoms: C_20  and  C_23 
REMARK    6  A    between atoms: C_21  and  C_24 
ROOT
HETATM    1  O   UNL     1      28.599  23.090  29.540  1.00  0.00    -0.304 OA
HETATM    2  O   UNL     1      26.033  25.001  33.608  1.00  0.00    -0.304 OA
HETATM    3  O   UNL     1      28.966  21.394  34.468  1.00  0.00    -0.304 OA
HETATM    4  O   UNL     1      29.027  24.612  31.594  1.00  0.00    -0.270 OA
HETATM    5  O   UNL     1      30.846  22.346  32.070  1.00  0.00    -0.270 OA
HETATM    6  O   UNL     1      26.604  23.962  36.625  1.00  0.00    -0.270 OA
HETATM    7  O   UNL     1      27.078  21.742  30.631  1.00  0.00    -0.263 OA
HETATM    8  O   UNL     1      27.224  26.376  35.019  1.00  0.00    -0.263 OA
HETATM    9  O   UNL     1      29.134  19.884  36.190  1.00  0.00    -0.263 OA
HETATM   10  N   UNL     1      27.130  25.921  31.402  1.00  0.00    -0.340 N 
HETATM   11  N   UNL     1      29.458  20.542  31.619  1.00  0.00    -0.340 N 
HETATM   12  N   UNL     1      26.488  22.197  35.113  1.00  0.00    -0.340 N 
HETATM   13  C   UNL     1      27.484  26.651  32.638  1.00  0.00     0.190 C 
HETATM   14  C   UNL     1      29.340  20.951  30.204  1.00  0.00     0.190 C 
HETATM   15  C   UNL     1      27.149  21.254  36.039  1.00  0.00     0.190 C 
HETATM   16  C   UNL     1      27.719  24.232  29.627  1.00  0.00     0.227 C 
HETATM   17  C   UNL     1      25.290  24.349  34.652  1.00  0.00     0.227 C 
HETATM   18  C   UNL     1      30.252  20.999  33.955  1.00  0.00     0.227 C 
HETATM   19  C   UNL     1      28.016  24.930  30.958  1.00  0.00     0.250 C 
HETATM   20  C   UNL     1      30.220  21.359  32.472  1.00  0.00     0.250 C 
HETATM   21  C   UNL     1      26.195  23.499  35.556  1.00  0.00     0.250 C 
HETATM   22  C   UNL     1      28.188  21.941  30.155  1.00  0.00     0.283 C 
HETATM   23  C   UNL     1      26.920  25.992  33.895  1.00  0.00     0.283 C 
HETATM   24  C   UNL     1      28.515  20.750  35.580  1.00  0.00     0.283 C 
HETATM   25  C   UNL     1      25.862  26.257  30.747  1.00  0.00     0.153 C 
HETATM   26  C   UNL     1      28.744  19.334  32.044  1.00  0.00     0.153 C 
HETATM   27  C   UNL     1      26.012  21.667  33.834  1.00  0.00     0.153 C 
ENDROOT
BRANCH  16  28
HETATM   28  C   UNL     1      28.060  25.141  28.456  1.00  0.00     0.016 C 
HETATM   29  C   UNL     1      29.387  24.728  27.821  1.00  0.00     0.012 C 
HETATM   30  C   UNL     1      26.941  25.123  27.414  1.00  0.00     0.012 C 
ENDBRANCH  16  28
BRANCH  14  31
HETATM   31  C   UNL     1      29.112  19.828  29.200  1.00  0.00     0.010 C 
HETATM   32  C   UNL     1      28.513  20.377  27.907  1.00  0.00     0.012 C 
HETATM   33  C   UNL     1      30.417  19.089  28.916  1.00  0.00     0.012 C 
ENDBRANCH  14  31
BRANCH  13  34
HETATM   34  C   UNL     1      27.097  28.129  32.613  1.00  0.00     0.010 C 
HETATM   35  C   UNL     1      28.258  28.998  33.094  1.00  0.00     0.012 C 
HETATM   36  C   UNL     1      25.854  28.378  33.465  1.00  0.00     0.012 C 
ENDBRANCH  13  34
BRANCH  18  37
HETATM   37  C   UNL     1      31.335  21.776  34.701  1.00  0.00     0.016 C 
HETATM   38  C   UNL     1      30.709  22.839  35.604  1.00  0.00     0.012 C 
HETATM   39  C   UNL     1      32.214  20.831  35.517  1.00  0.00     0.012 C 
ENDBRANCH  18  37
BRANCH  17  40
HETATM   40  C   UNL     1      24.430  25.337  35.440  1.00  0.00     0.016 C 
HETATM   41  C   UNL     1      23.569  24.603  36.465  1.00  0.00     0.012 C 
HETATM   42  C   UNL     1      23.556  26.161  34.496  1.00  0.00     0.012 C 
ENDBRANCH  17  40
BRANCH  15  43
HETATM   43  C   UNL     1      26.232  20.079  36.383  1.00  0.00     0.010 C 
HETATM   44  C   UNL     1      26.600  18.854  35.550  1.00  0.00     0.012 C 
HETATM   45  C   UNL     1      26.310  19.760  37.873  1.00  0.00     0.012 C 
ENDBRANCH  15  43
TORSDOF 6
ENDMDL
MODEL 10
REMARK VINA RESULT:    -6.847      2.452      6.041
REMARK INTER + INTRA:          -7.942
REMARK INTER:                  -8.779
REMARK INTRA:                   0.837
REMARK UNBOUND:                 1.306
REMARK  6 active torsions:
REMARK  status: ('A' for Active; 'I' for Inactive)
REMARK    1  A    between atoms: C_13  and  C_16 
REMARK    2  A    between atoms: C_14  and  C_17 
REMARK    3  A    between atoms: C_15  and  C_18 
REMARK    4  A    between atoms: C_19  and  C_22 
REMARK    5  A    between atoms: C_20  and  C_23 
REMARK    6  A    between atoms: C_21  and  C_24 
ROOT
HETATM    1  O   UNL     1      28.830  18.673  30.660  1.00  0.00    -0.304 OA
HETATM    2  O   UNL     1      28.114  23.648  29.429  1.00  0.00    -0.304 OA
HETATM    3  O   UNL     1      27.188  22.428  33.901  1.00  0.00    -0.304 OA
HETATM    4  O   UNL     1      30.002  20.963  30.976  1.00  0.00    -0.270 OA
HETATM    5  O   UNL     1      29.413  20.143  33.742  1.00  0.00    -0.270 OA
HETATM    6  O   UNL     1      27.332  25.862  31.664  1.00  0.00    -0.270 OA
HETATM    7  O   UNL     1      26.699  19.548  30.758  1.00  0.00    -0.263 OA
HETATM    8  O   UNL     1      29.747  25.120  30.113  1.00  0.00    -0.263 OA
HETATM    9  O   UNL     1      25.949  23.404  35.570  1.00  0.00    -0.263 OA
HETATM   10  N   UNL     1      29.786  21.717  28.801  1.00  0.00    -0.340 N 
HETATM   11  N   UNL     1      27.212  19.433  33.551  1.00  0.00    -0.340 N 
HETATM   12  N   UNL     1      26.113  23.899  31.932  1.00  0.00    -0.340 N 
HETATM   13  C   UNL     1      30.413  23.005  29.163  1.00  0.00     0.190 C 
HETATM   14  C   UNL     1      27.617  18.331  32.655  1.00  0.00     0.190 C 
HETATM   15  C   UNL     1      25.716  24.238  33.315  1.00  0.00     0.190 C 
HETATM   16  C   UNL     1      29.111  19.372  29.428  1.00  0.00     0.227 C 
HETATM   17  C   UNL     1      27.016  24.540  29.684  1.00  0.00     0.227 C 
HETATM   18  C   UNL     1      27.785  21.511  34.838  1.00  0.00     0.227 C 
HETATM   19  C   UNL     1      29.666  20.748  29.806  1.00  0.00     0.250 C 
HETATM   20  C   UNL     1      28.217  20.308  34.002  1.00  0.00     0.250 C 
HETATM   21  C   UNL     1      26.849  24.833  31.182  1.00  0.00     0.250 C 
HETATM   22  C   UNL     1      27.624  18.919  31.254  1.00  0.00     0.283 C 
HETATM   23  C   UNL     1      29.399  24.043  29.640  1.00  0.00     0.283 C 
HETATM   24  C   UNL     1      26.276  23.312  34.392  1.00  0.00     0.283 C 
HETATM   25  C   UNL     1      29.299  21.555  27.427  1.00  0.00     0.153 C 
HETATM   26  C   UNL     1      25.788  19.561  33.879  1.00  0.00     0.153 C 
HETATM   27  C   UNL     1      25.562  22.672  31.352  1.00  0.00     0.153 C 
ENDROOT
BRANCH  16  28
HETATM   28  C   UNL     1      30.159  18.555  28.687  1.00  0.00     0.016 C 
HETATM   29  C   UNL     1      30.853  17.580  29.637  1.00  0.00     0.012 C 
HETATM   30  C   UNL     1      29.529  17.801  27.516  1.00  0.00     0.012 C 
ENDBRANCH  16  28
BRANCH  14  31
HETATM   31  C   UNL     1      26.746  17.082  32.696  1.00  0.00     0.010 C 
HETATM   32  C   UNL     1      26.946  16.245  31.434  1.00  0.00     0.012 C 
HETATM   33  C   UNL     1      27.053  16.254  33.942  1.00  0.00     0.012 C 
ENDBRANCH  14  31
BRANCH  13  34
HETATM   34  C   UNL     1      31.279  23.603  28.055  1.00  0.00     0.010 C 
HETATM   35  C   UNL     1      32.763  23.396  28.360  1.00  0.00     0.012 C 
HETATM   36  C   UNL     1      30.974  25.087  27.870  1.00  0.00     0.012 C 
ENDBRANCH  13  34
BRANCH  18  37
HETATM   37  C   UNL     1      28.978  22.196  35.499  1.00  0.00     0.016 C 
HETATM   38  C   UNL     1      29.328  23.492  34.768  1.00  0.00     0.012 C 
HETATM   39  C   UNL     1      28.694  22.472  36.974  1.00  0.00     0.012 C 
ENDBRANCH  18  37
BRANCH  17  40
HETATM   40  C   UNL     1      27.108  25.812  28.841  1.00  0.00     0.016 C 
HETATM   41  C   UNL     1      25.842  26.651  28.994  1.00  0.00     0.012 C 
HETATM   42  C   UNL     1      27.350  25.467  27.373  1.00  0.00     0.012 C 
ENDBRANCH  17  40
BRANCH  15  43
HETATM   43  C   UNL     1      24.197  24.354  33.444  1.00  0.00     0.010 C 
HETATM   44  C   UNL     1      23.630  23.141  34.178  1.00  0.00     0.012 C 
HETATM   45  C   UNL     1      23.820  25.645  34.165  1.00  0.00     0.012 C 
ENDBRANCH  15  43
TORSDOF 6
ENDMDL
MODEL 11
REMARK VINA RESULT:    -6.780      2.055      7.507
REMARK INTER + INTRA:          -7.852
REMARK INTER:                  -8.809
REMARK INTRA:                   0.957
REMARK UNBOUND:                 1.306
REMARK  6 active torsions:
REMARK  status: ('A' for Active; 'I' for Inactive)
REMARK    1  A    between atoms: C_13  and  C_16 
REMARK    2  A    between atoms: C_14  and  C_17 
REMARK    3  A    between atoms: C_15  and  C_18 
REMARK    4  A    between atoms: C_19  and  C_22 
REMARK    5  A    between atoms: C_20  and  C_23 
REMARK    6  A    between atoms: C_21  and  C_24 
ROOT
HETATM    1  O   UNL     1      28.381  22.712  30.306  1.00  0.00    -0.304 OA
HETATM    2  O   UNL     1      25.787  25.769  33.580  1.00  0.00    -0.304 OA
HETATM    3  O   UNL     1      26.663  21.362  35.052  1.00  0.00    -0.304 OA
HETATM    4  O   UNL     1      28.800  24.078  32.469  1.00  0.00    -0.270 OA
HETATM    5  O   UNL     1      29.348  21.315  33.325  1.00  0.00    -0.270 OA
HETATM    6  O   UNL     1      25.038  24.804  36.582  1.00  0.00    -0.270 OA
HETATM    7  O   UNL     1      26.211  22.162  30.861  1.00  0.00    -0.263 OA
HETATM    8  O   UNL     1      26.992  26.651  35.333  1.00  0.00    -0.263 OA
HETATM    9  O   UNL     1      25.729  20.036  36.678  1.00  0.00    -0.263 OA
HETATM   10  N   UNL     1      27.722  26.018  31.816  1.00  0.00    -0.340 N 
HETATM   11  N   UNL     1      27.535  20.186  32.417  1.00  0.00    -0.340 N 
HETATM   12  N   UNL     1      24.645  23.129  35.015  1.00  0.00    -0.340 N 
HETATM   13  C   UNL     1      27.984  26.631  33.135  1.00  0.00     0.190 C 
HETATM   14  C   UNL     1      27.986  20.508  31.047  1.00  0.00     0.190 C 
HETATM   15  C   UNL     1      24.587  22.069  36.043  1.00  0.00     0.190 C 
HETATM   16  C   UNL     1      28.047  24.114  30.198  1.00  0.00     0.227 C 
HETATM   17  C   UNL     1      24.589  25.542  34.341  1.00  0.00     0.227 C 
HETATM   18  C   UNL     1      27.770  20.453  34.902  1.00  0.00     0.227 C 
HETATM   19  C   UNL     1      28.220  24.727  31.590  1.00  0.00     0.250 C 
HETATM   20  C   UNL     1      28.295  20.690  33.488  1.00  0.00     0.250 C 
HETATM   21  C   UNL     1      24.789  24.468  35.420  1.00  0.00     0.250 C 
HETATM   22  C   UNL     1      27.391  21.868  30.725  1.00  0.00     0.283 C 
HETATM   23  C   UNL     1      26.881  26.342  34.151  1.00  0.00     0.283 C 
HETATM   24  C   UNL     1      25.705  21.031  35.961  1.00  0.00     0.283 C 
HETATM   25  C   UNL     1      26.930  26.784  30.849  1.00  0.00     0.153 C 
HETATM   26  C   UNL     1      26.309  19.396  32.566  1.00  0.00     0.153 C 
HETATM   27  C   UNL     1      24.367  22.744  33.630  1.00  0.00     0.153 C 
ENDROOT
BRANCH  16  28
HETATM   28  C   UNL     1      29.032  24.726  29.214  1.00  0.00     0.016 C 
HETATM   29  C   UNL     1      30.395  24.043  29.319  1.00  0.00     0.012 C 
HETATM   30  C   UNL     1      28.497  24.635  27.785  1.00  0.00     0.012 C 
ENDBRANCH  16  28
BRANCH  14  31
HETATM   31  C   UNL     1      27.612  19.501  29.967  1.00  0.00     0.010 C 
HETATM   32  C   UNL     1      27.391  20.205  28.630  1.00  0.00     0.012 C 
HETATM   33  C   UNL     1      28.690  18.428  29.836  1.00  0.00     0.012 C 
ENDBRANCH  14  31
BRANCH  13  34
HETATM   34  C   UNL     1      28.247  28.135  33.074  1.00  0.00     0.010 C 
HETATM   35  C   UNL     1      29.554  28.484  33.786  1.00  0.00     0.012 C 
HETATM   36  C   UNL     1      27.083  28.913  33.683  1.00  0.00     0.012 C 
ENDBRANCH  13  34
BRANCH  18  37
HETATM   37  C   UNL     1      28.821  20.784  35.957  1.00  0.00     0.016 C 
HETATM   38  C   UNL     1      28.507  22.120  36.630  1.00  0.00     0.012 C 
HETATM   39  C   UNL     1      28.914  19.670  36.997  1.00  0.00     0.012 C 
ENDBRANCH  18  37
BRANCH  17  40
HETATM   40  C   UNL     1      24.018  26.844  34.904  1.00  0.00     0.016 C 
HETATM   41  C   UNL     1      22.787  26.565  35.762  1.00  0.00     0.012 C 
HETATM   42  C   UNL     1      23.677  27.813  33.773  1.00  0.00     0.012 C 
ENDBRANCH  17  40
BRANCH  15  43
HETATM   43  C   UNL     1      23.220  21.384  36.059  1.00  0.00     0.010 C 
HETATM   44  C   UNL     1      22.130  22.377  36.454  1.00  0.00     0.012 C 
HETATM   45  C   UNL     1      22.918  20.764  34.698  1.00  0.00     0.012 C 
ENDBRANCH  15  43
TORSDOF 6
ENDMDL
MODEL 12
REMARK VINA RESULT:    -6.767      2.401      6.649
REMARK INTER + INTRA:          -7.834
REMARK INTER:                  -9.340
REMARK INTRA:                   1.506
REMARK UNBOUND:                 1.306
REMARK  6 active torsions:
REMARK  status: ('A' for Active; 'I' for Inactive)
REMARK    1  A    between atoms: C_13  and  C_16 
REMARK    2  A    between atoms: C_14  and  C_17 
REMARK    3  A    between atoms: C_15  and  C_18 
REMARK    4  A    between atoms: C_19  and  C_22 
REMARK    5  A    between atoms: C_20  and  C_23 
REMARK    6  A    between atoms: C_21  and  C_24 
ROOT
HETATM    1  O   UNL     1      25.772  24.469  30.528  1.00  0.00    -0.304 OA
HETATM    2  O   UNL     1      28.657  20.295  31.547  1.00  0.00    -0.304 OA
HETATM    3  O   UNL     1      26.282  22.158  35.187  1.00  0.00    -0.304 OA
HETATM    4  O   UNL     1      25.472  21.929  30.954  1.00  0.00    -0.270 OA
HETATM    5  O   UNL     1      23.994  23.147  33.192  1.00  0.00    -0.270 OA
HETATM    6  O   UNL     1      28.628  18.873  34.460  1.00  0.00    -0.270 OA
HETATM    7  O   UNL     1      27.567  24.679  31.961  1.00  0.00    -0.263 OA
HETATM    8  O   UNL     1      27.532  18.298  31.767  1.00  0.00    -0.263 OA
HETATM    9  O   UNL     1      26.521  21.996  37.465  1.00  0.00    -0.263 OA
HETATM   10  N   UNL     1      27.170  21.188  29.570  1.00  0.00    -0.340 N 
HETATM   11  N   UNL     1      25.493  24.769  33.903  1.00  0.00    -0.340 N 
HETATM   12  N   UNL     1      28.723  21.191  34.634  1.00  0.00    -0.340 N 
HETATM   13  C   UNL     1      26.915  19.789  29.974  1.00  0.00     0.190 C 
HETATM   14  C   UNL     1      25.367  25.487  32.618  1.00  0.00     0.190 C 
HETATM   15  C   UNL     1      28.305  21.183  36.051  1.00  0.00     0.190 C 
HETATM   16  C   UNL     1      26.526  23.623  29.633  1.00  0.00     0.227 C 
HETATM   17  C   UNL     1      29.604  20.030  32.596  1.00  0.00     0.227 C 
HETATM   18  C   UNL     1      24.987  22.770  35.335  1.00  0.00     0.227 C 
HETATM   19  C   UNL     1      26.344  22.181  30.114  1.00  0.00     0.250 C 
HETATM   20  C   UNL     1      24.773  23.570  34.052  1.00  0.00     0.250 C 
HETATM   21  C   UNL     1      28.932  19.967  33.975  1.00  0.00     0.250 C 
HETATM   22  C   UNL     1      26.386  24.851  31.687  1.00  0.00     0.283 C 
HETATM   23  C   UNL     1      27.716  19.373  31.206  1.00  0.00     0.283 C 
HETATM   24  C   UNL     1      26.951  21.833  36.328  1.00  0.00     0.283 C 
HETATM   25  C   UNL     1      28.290  21.444  28.660  1.00  0.00     0.153 C 
HETATM   26  C   UNL     1      26.386  25.334  34.918  1.00  0.00     0.153 C 
HETATM   27  C   UNL     1      29.071  22.483  34.039  1.00  0.00     0.153 C 
ENDROOT
BRANCH  16  28
HETATM   28  C   UNL     1      25.928  23.806  28.246  1.00  0.00     0.016 C 
HETATM   29  C   UNL     1      24.415  23.596  28.278  1.00  0.00     0.012 C 
HETATM   30  C   UNL     1      26.264  25.190  27.691  1.00  0.00     0.012 C 
ENDBRANCH  16  28
BRANCH  14  31
HETATM   31  C   UNL     1      25.574  26.995  32.672  1.00  0.00     0.010 C 
HETATM   32  C   UNL     1      25.962  27.535  31.297  1.00  0.00     0.012 C 
HETATM   33  C   UNL     1      24.316  27.692  33.185  1.00  0.00     0.012 C 
ENDBRANCH  14  31
BRANCH  13  34
HETATM   34  C   UNL     1      27.131  18.774  28.852  1.00  0.00     0.010 C 
HETATM   35  C   UNL     1      25.972  17.780  28.793  1.00  0.00     0.012 C 
HETATM   36  C   UNL     1      28.457  18.039  29.036  1.00  0.00     0.012 C 
ENDBRANCH  13  34
BRANCH  18  37
HETATM   37  C   UNL     1      23.941  21.670  35.494  1.00  0.00     0.016 C 
HETATM   38  C   UNL     1      22.534  22.265  35.527  1.00  0.00     0.012 C 
HETATM   39  C   UNL     1      24.062  20.642  34.371  1.00  0.00     0.012 C 
ENDBRANCH  18  37
BRANCH  17  40
HETATM   40  C   UNL     1      30.453  18.794  32.296  1.00  0.00     0.016 C 
HETATM   41  C   UNL     1      31.404  18.501  33.454  1.00  0.00     0.012 C 
HETATM   42  C   UNL     1      31.232  18.981  30.996  1.00  0.00     0.012 C 
ENDBRANCH  17  40
BRANCH  15  43
HETATM   43  C   UNL     1      29.382  21.788  36.952  1.00  0.00     0.010 C 
HETATM   44  C   UNL     1      30.631  20.910  36.953  1.00  0.00     0.012 C 
HETATM   45  C   UNL     1      29.720  23.206  36.503  1.00  0.00     0.012 C 
ENDBRANCH  15  43
TORSDOF 6
ENDMDL
MODEL 13
REMARK VINA RESULT:    -6.681      2.424      5.381
REMARK INTER + INTRA:          -7.719
REMARK INTER:                  -8.660
REMARK INTRA:                   0.942
REMARK UNBOUND:                 1.306
REMARK  6 active torsions:
REMARK  status: ('A' for Active; 'I' for Inactive)
REMARK    1  A    between atoms: C_13  and  C_16 
REMARK    2  A    between atoms: C_14  and  C_17 
REMARK    3  A    between atoms: C_15  and  C_18 
REMARK    4  A    between atoms: C_19  and  C_22 
REMARK    5  A    between atoms: C_20  and  C_23 
REMARK    6  A    between atoms: C_21  and  C_24 
ROOT
HETATM    1  O   UNL     1      26.385  24.720  34.343  1.00  0.00    -0.304 OA
HETATM    2  O   UNL     1      28.059  19.831  34.070  1.00  0.00    -0.304 OA
HETATM    3  O   UNL     1      28.190  22.333  30.060  1.00  0.00    -0.304 OA
HETATM    4  O   UNL     1      28.620  23.413  34.216  1.00  0.00    -0.270 OA
HETATM    5  O   UNL     1      28.653  25.008  31.740  1.00  0.00    -0.270 OA
HETATM    6  O   UNL     1      29.377  18.629  31.363  1.00  0.00    -0.270 OA
HETATM    7  O   UNL     1      25.225  23.218  33.033  1.00  0.00    -0.263 OA
HETATM    8  O   UNL     1      30.342  19.529  34.018  1.00  0.00    -0.263 OA
HETATM    9  O   UNL     1      28.304  21.741  27.844  1.00  0.00    -0.263 OA
HETATM   10  N   UNL     1      28.122  21.807  35.804  1.00  0.00    -0.340 N 
HETATM   11  N   UNL     1      26.500  24.667  30.946  1.00  0.00    -0.340 N 
HETATM   12  N   UNL     1      27.475  19.890  30.909  1.00  0.00    -0.340 N 
HETATM   13  C   UNL     1      29.417  21.137  35.560  1.00  0.00     0.190 C 
HETATM   14  C   UNL     1      25.928  25.361  32.119  1.00  0.00     0.190 C 
HETATM   15  C   UNL     1      27.811  20.030  29.477  1.00  0.00     0.190 C 
HETATM   16  C   UNL     1      26.562  23.741  35.390  1.00  0.00     0.227 C 
HETATM   17  C   UNL     1      27.764  18.778  33.136  1.00  0.00     0.227 C 
HETATM   18  C   UNL     1      28.481  23.707  29.741  1.00  0.00     0.227 C 
HETATM   19  C   UNL     1      27.851  22.977  35.080  1.00  0.00     0.250 C 
HETATM   20  C   UNL     1      27.897  24.519  30.894  1.00  0.00     0.250 C 
HETATM   21  C   UNL     1      28.293  19.093  31.729  1.00  0.00     0.250 C 
HETATM   22  C   UNL     1      25.777  24.298  33.194  1.00  0.00     0.283 C 
HETATM   23  C   UNL     1      29.340  20.087  34.453  1.00  0.00     0.283 C 
HETATM   24  C   UNL     1      28.115  21.455  29.021  1.00  0.00     0.283 C 
HETATM   25  C   UNL     1      27.198  21.185  36.756  1.00  0.00     0.153 C 
HETATM   26  C   UNL     1      25.571  24.149  29.937  1.00  0.00     0.153 C 
HETATM   27  C   UNL     1      26.200  20.449  31.363  1.00  0.00     0.153 C 
ENDROOT
BRANCH  16  28
HETATM   28  C   UNL     1      26.694  24.512  36.695  1.00  0.00     0.016 C 
HETATM   29  C   UNL     1      27.402  25.847  36.464  1.00  0.00     0.012 C 
HETATM   30  C   UNL     1      25.323  24.738  37.331  1.00  0.00     0.012 C 
ENDBRANCH  16  28
BRANCH  14  31
HETATM   31  C   UNL     1      24.601  26.073  31.892  1.00  0.00     0.010 C 
HETATM   32  C   UNL     1      23.999  26.524  33.221  1.00  0.00     0.012 C 
HETATM   33  C   UNL     1      24.784  27.265  30.955  1.00  0.00     0.012 C 
ENDBRANCH  14  31
BRANCH  13  34
HETATM   34  C   UNL     1      30.037  20.519  36.813  1.00  0.00     0.010 C 
HETATM   35  C   UNL     1      31.506  20.918  36.940  1.00  0.00     0.012 C 
HETATM   36  C   UNL     1      29.896  18.998  36.793  1.00  0.00     0.012 C 
ENDBRANCH  13  34
BRANCH  18  37
HETATM   37  C   UNL     1      29.995  23.875  29.642  1.00  0.00     0.016 C 
HETATM   38  C   UNL     1      30.711  22.634  30.176  1.00  0.00     0.012 C 
HETATM   39  C   UNL     1      30.415  24.156  28.201  1.00  0.00     0.012 C 
ENDBRANCH  18  37
BRANCH  17  40
HETATM   40  C   UNL     1      28.229  17.416  33.650  1.00  0.00     0.016 C 
HETATM   41  C   UNL     1      27.943  16.326  32.619  1.00  0.00     0.012 C 
HETATM   42  C   UNL     1      27.557  17.086  34.981  1.00  0.00     0.012 C 
ENDBRANCH  17  40
BRANCH  15  43
HETATM   43  C   UNL     1      26.734  19.403  28.590  1.00  0.00     0.010 C 
HETATM   44  C   UNL     1      27.365  18.756  27.360  1.00  0.00     0.012 C 
HETATM   45  C   UNL     1      25.921  18.381  29.379  1.00  0.00     0.012 C 
ENDBRANCH  15  43
TORSDOF 6
ENDMDL
MODEL 14
REMARK VINA RESULT:    -6.101      1.846      2.288
REMARK INTER + INTRA:          -6.935
REMARK INTER:                  -8.675
REMARK INTRA:                   1.740
REMARK UNBOUND:                 1.306
REMARK  6 active torsions:
REMARK  status: ('A' for Active; 'I' for Inactive)
REMARK    1  A    between atoms: C_13  and  C_16 
REMARK    2  A    between atoms: C_14  and  C_17 
REMARK    3  A    between atoms: C_15  and  C_18 
REMARK    4  A    between atoms: C_19  and  C_22 
REMARK    5  A    between atoms: C_20  and  C_23 
REMARK    6  A    between atoms: C_21  and  C_24 
ROOT
HETATM    1  O   UNL     1      26.580  21.042  34.577  1.00  0.00    -0.304 OA
HETATM    2  O   UNL     1      30.004  21.254  30.702  1.00  0.00    -0.304 OA
HETATM    3  O   UNL     1      27.360  25.112  31.395  1.00  0.00    -0.304 OA
HETATM    4  O   UNL     1      28.896  22.083  34.057  1.00  0.00    -0.270 OA
HETATM    5  O   UNL     1      27.203  24.449  34.514  1.00  0.00    -0.270 OA
HETATM    6  O   UNL     1      30.499  23.976  29.013  1.00  0.00    -0.270 OA
HETATM    7  O   UNL     1      25.803  21.246  32.415  1.00  0.00    -0.263 OA
HETATM    8  O   UNL     1      31.935  22.442  31.104  1.00  0.00    -0.263 OA
HETATM    9  O   UNL     1      26.821  26.906  30.065  1.00  0.00    -0.263 OA
HETATM   10  N   UNL     1      29.865  20.208  33.111  1.00  0.00    -0.340 N 
HETATM   11  N   UNL     1      25.322  23.915  33.266  1.00  0.00    -0.340 N 
HETATM   12  N   UNL     1      28.234  23.585  29.370  1.00  0.00    -0.340 N 
HETATM   13  C   UNL     1      31.099  20.969  32.820  1.00  0.00     0.190 C 
HETATM   14  C   UNL     1      25.028  22.767  34.149  1.00  0.00     0.190 C 
HETATM   15  C   UNL     1      27.859  24.976  29.045  1.00  0.00     0.190 C 
HETATM   16  C   UNL     1      27.584  20.086  34.175  1.00  0.00     0.227 C 
HETATM   17  C   UNL     1      29.865  21.683  29.337  1.00  0.00     0.227 C 
HETATM   18  C   UNL     1      26.844  25.782  32.561  1.00  0.00     0.227 C 
HETATM   19  C   UNL     1      28.830  20.881  33.775  1.00  0.00     0.250 C 
HETATM   20  C   UNL     1      26.480  24.665  33.537  1.00  0.00     0.250 C 
HETATM   21  C   UNL     1      29.575  23.187  29.233  1.00  0.00     0.250 C 
HETATM   22  C   UNL     1      25.821  21.600  33.587  1.00  0.00     0.283 C 
HETATM   23  C   UNL     1      31.062  21.656  31.457  1.00  0.00     0.283 C 
HETATM   24  C   UNL     1      27.275  25.775  30.208  1.00  0.00     0.283 C 
HETATM   25  C   UNL     1      29.794  18.818  32.654  1.00  0.00     0.153 C 
HETATM   26  C   UNL     1      24.407  24.170  32.149  1.00  0.00     0.153 C 
HETATM   27  C   UNL     1      27.151  22.640  29.650  1.00  0.00     0.153 C 
ENDROOT
BRANCH  16  28
HETATM   28  C   UNL     1      27.870  19.212  35.387  1.00  0.00     0.016 C 
HETATM   29  C   UNL     1      27.833  20.041  36.671  1.00  0.00     0.012 C 
HETATM   30  C   UNL     1      26.873  18.057  35.469  1.00  0.00     0.012 C 
ENDBRANCH  16  28
BRANCH  14  31
HETATM   31  C   UNL     1      23.559  22.389  34.286  1.00  0.00     0.010 C 
HETATM   32  C   UNL     1      23.416  20.909  34.636  1.00  0.00     0.012 C 
HETATM   33  C   UNL     1      22.877  23.257  35.341  1.00  0.00     0.012 C 
ENDBRANCH  14  31
BRANCH  13  34
HETATM   34  C   UNL     1      32.377  20.140  32.945  1.00  0.00     0.010 C 
HETATM   35  C   UNL     1      32.450  19.091  31.837  1.00  0.00     0.012 C 
HETATM   36  C   UNL     1      32.458  19.474  34.317  1.00  0.00     0.012 C 
ENDBRANCH  13  34
BRANCH  18  37
HETATM   37  C   UNL     1      27.933  26.690  33.125  1.00  0.00     0.016 C 
HETATM   38  C   UNL     1      27.432  27.426  34.368  1.00  0.00     0.012 C 
HETATM   39  C   UNL     1      29.192  25.888  33.449  1.00  0.00     0.012 C 
ENDBRANCH  18  37
BRANCH  17  40
HETATM   40  C   UNL     1      31.057  21.251  28.482  1.00  0.00     0.016 C 
HETATM   41  C   UNL     1      30.881  21.718  27.039  1.00  0.00     0.012 C 
HETATM   42  C   UNL     1      31.237  19.735  28.538  1.00  0.00     0.012 C 
ENDBRANCH  17  40
BRANCH  15  43
HETATM   43  C   UNL     1      26.926  25.033  27.835  1.00  0.00     0.010 C 
HETATM   44  C   UNL     1      25.500  25.353  28.276  1.00  0.00     0.012 C 
HETATM   45  C   UNL     1      27.422  26.063  26.825  1.00  0.00     0.012 C 
ENDBRANCH  15  43
TORSDOF 6
ENDMDL
MODEL 15
REMARK VINA RESULT:    -5.858      2.890      5.751
REMARK INTER + INTRA:          -6.606
REMARK INTER:                  -7.462
REMARK INTRA:                   0.856
REMARK UNBOUND:                 1.306
REMARK  6 active torsions:
REMARK  status: ('A' for Active; 'I' for Inactive)
REMARK    1  A    between atoms: C_13  and  C_16 
REMARK    2  A    between atoms: C_14  and  C_17 
REMARK    3  A    between atoms: C_15  and  C_18 
REMARK    4  A    between atoms: C_19  and  C_22 
REMARK    5  A    between atoms: C_20  and  C_23 
REMARK    6  A    between atoms: C_21  and  C_24 
ROOT
HETATM    1  O   UNL     1      28.756  23.024  33.890  1.00  0.00    -0.304 OA
HETATM    2  O   UNL     1      31.953  19.455  31.936  1.00  0.00    -0.304 OA
HETATM    3  O   UNL     1      30.042  22.490  28.854  1.00  0.00    -0.304 OA
HETATM    4  O   UNL     1      31.184  22.837  33.001  1.00  0.00    -0.270 OA
HETATM    5  O   UNL     1      29.943  24.735  31.122  1.00  0.00    -0.270 OA
HETATM    6  O   UNL     1      32.811  19.464  28.810  1.00  0.00    -0.270 OA
HETATM    7  O   UNL     1      27.910  21.452  32.431  1.00  0.00    -0.263 OA
HETATM    8  O   UNL     1      34.077  20.164  31.398  1.00  0.00    -0.263 OA
HETATM    9  O   UNL     1      29.744  22.436  26.578  1.00  0.00    -0.263 OA
HETATM   10  N   UNL     1      31.769  20.902  34.124  1.00  0.00    -0.340 N 
HETATM   11  N   UNL     1      27.934  23.672  30.656  1.00  0.00    -0.340 N 
HETATM   12  N   UNL     1      30.535  19.862  29.079  1.00  0.00    -0.340 N 
HETATM   13  C   UNL     1      33.096  20.902  33.474  1.00  0.00     0.190 C 
HETATM   14  C   UNL     1      27.499  23.822  32.060  1.00  0.00     0.190 C 
HETATM   15  C   UNL     1      30.384  20.400  27.711  1.00  0.00     0.190 C 
HETATM   16  C   UNL     1      29.561  22.033  34.565  1.00  0.00     0.227 C 
HETATM   17  C   UNL     1      31.816  18.576  30.806  1.00  0.00     0.227 C 
HETATM   18  C   UNL     1      29.711  23.891  28.897  1.00  0.00     0.227 C 
HETATM   19  C   UNL     1      30.900  21.961  33.826  1.00  0.00     0.250 C 
HETATM   20  C   UNL     1      29.216  24.143  30.319  1.00  0.00     0.250 C 
HETATM   21  C   UNL     1      31.780  19.346  29.479  1.00  0.00     0.250 C 
HETATM   22  C   UNL     1      28.050  22.612  32.795  1.00  0.00     0.283 C 
HETATM   23  C   UNL     1      33.103  20.151  32.144  1.00  0.00     0.283 C 
HETATM   24  C   UNL     1      30.007  21.878  27.638  1.00  0.00     0.283 C 
HETATM   25  C   UNL     1      31.438  19.778  35.005  1.00  0.00     0.153 C 
HETATM   26  C   UNL     1      27.017  23.012  29.721  1.00  0.00     0.153 C 
HETATM   27  C   UNL     1      29.324  19.731  29.892  1.00  0.00     0.153 C 
ENDROOT
BRANCH  16  28
HETATM   28  C   UNL     1      29.759  22.523  35.991  1.00  0.00     0.016 C 
HETATM   29  C   UNL     1      29.792  24.050  36.037  1.00  0.00     0.012 C 
HETATM   30  C   UNL     1      28.660  21.984  36.906  1.00  0.00     0.012 C 
ENDBRANCH  16  28
BRANCH  14  31
HETATM   31  C   UNL     1      25.996  23.934  32.285  1.00  0.00     0.010 C 
HETATM   32  C   UNL     1      25.645  23.613  33.736  1.00  0.00     0.012 C 
HETATM   33  C   UNL     1      25.499  25.327  31.908  1.00  0.00     0.012 C 
ENDBRANCH  14  31
BRANCH  13  34
HETATM   34  C   UNL     1      34.220  20.379  34.367  1.00  0.00     0.010 C 
HETATM   35  C   UNL     1      35.410  21.339  34.355  1.00  0.00     0.012 C 
HETATM   36  C   UNL     1      34.656  18.983  33.927  1.00  0.00     0.012 C 
ENDBRANCH  13  34
BRANCH  18  37
HETATM   37  C   UNL     1      30.967  24.699  28.585  1.00  0.00     0.016 C 
HETATM   38  C   UNL     1      32.181  23.780  28.456  1.00  0.00     0.012 C 
HETATM   39  C   UNL     1      30.780  25.520  27.311  1.00  0.00     0.012 C 
ENDBRANCH  18  37
BRANCH  17  40
HETATM   40  C   UNL     1      32.869  17.468  30.818  1.00  0.00     0.016 C 
HETATM   41  C   UNL     1      32.712  16.564  29.597  1.00  0.00     0.012 C 
HETATM   42  C   UNL     1      32.778  16.652  32.106  1.00  0.00     0.012 C 
ENDBRANCH  17  40
BRANCH  15  43
HETATM   43  C   UNL     1      29.410  19.558  26.887  1.00  0.00     0.010 C 
HETATM   44  C   UNL     1      29.694  19.720  25.396  1.00  0.00     0.012 C 
HETATM   45  C   UNL     1      29.495  18.090  27.295  1.00  0.00     0.012 C 
ENDBRANCH  15  43
TORSDOF 6
ENDMDL
MODEL 16
REMARK VINA RESULT:    -5.476      2.490      8.596
REMARK INTER + INTRA:          -6.090
REMARK INTER:                  -7.476
REMARK INTRA:                   1.386
REMARK UNBOUND:                 1.306
REMARK  6 active torsions:
REMARK  status: ('A' for Active; 'I' for Inactive)
REMARK    1  A    between atoms: C_13  and  C_16 
REMARK    2  A    between atoms: C_14  and  C_17 
REMARK    3  A    between atoms: C_15  and  C_18 
REMARK    4  A    between atoms: C_19  and  C_22 
REMARK    5  A    between atoms: C_20  and  C_23 
REMARK    6  A    between atoms: C_21  and  C_24 
ROOT
HETATM    1  O   UNL     1      30.725  22.654  29.340  1.00  0.00    -0.304 OA
HETATM    2  O   UNL     1      27.067  22.681  33.000  1.00  0.00    -0.304 OA
HETATM    3  O   UNL     1      30.691  19.718  33.662  1.00  0.00    -0.304 OA
HETATM    4  O   UNL     1      30.352  23.566  31.737  1.00  0.00    -0.270 OA
HETATM    5  O   UNL     1      32.618  21.718  32.086  1.00  0.00    -0.270 OA
HETATM    6  O   UNL     1      27.374  20.960  35.729  1.00  0.00    -0.270 OA
HETATM    7  O   UNL     1      29.474  20.746  29.678  1.00  0.00    -0.263 OA
HETATM    8  O   UNL     1      27.567  23.812  34.943  1.00  0.00    -0.263 OA
HETATM    9  O   UNL     1      30.972  17.847  34.964  1.00  0.00    -0.263 OA
HETATM   10  N   UNL     1      28.229  24.423  31.408  1.00  0.00    -0.340 N 
HETATM   11  N   UNL     1      31.885  19.864  30.898  1.00  0.00    -0.340 N 
HETATM   12  N   UNL     1      28.016  19.733  33.860  1.00  0.00    -0.340 N 
HETATM   13  C   UNL     1      28.148  24.819  32.830  1.00  0.00     0.190 C 
HETATM   14  C   UNL     1      31.905  20.632  29.635  1.00  0.00     0.190 C 
HETATM   15  C   UNL     1      28.742  18.730  34.667  1.00  0.00     0.190 C 
HETATM   16  C   UNL     1      29.561  23.498  29.480  1.00  0.00     0.227 C 
HETATM   17  C   UNL     1      26.366  21.606  33.648  1.00  0.00     0.227 C 
HETATM   18  C   UNL     1      32.105  19.784  33.397  1.00  0.00     0.227 C 
HETATM   19  C   UNL     1      29.419  23.824  30.969  1.00  0.00     0.250 C 
HETATM   20  C   UNL     1      32.231  20.545  32.079  1.00  0.00     0.250 C 
HETATM   21  C   UNL     1      27.300  20.750  34.515  1.00  0.00     0.250 C 
HETATM   22  C   UNL     1      30.550  21.314  29.546  1.00  0.00     0.283 C 
HETATM   23  C   UNL     1      27.580  23.715  33.720  1.00  0.00     0.283 C 
HETATM   24  C   UNL     1      30.252  18.695  34.446  1.00  0.00     0.283 C 
HETATM   25  C   UNL     1      27.051  24.647  30.566  1.00  0.00     0.153 C 
HETATM   26  C   UNL     1      31.472  18.459  30.837  1.00  0.00     0.153 C 
HETATM   27  C   UNL     1      27.933  19.507  32.416  1.00  0.00     0.153 C 
ENDROOT
BRANCH  16  28
HETATM   28  C   UNL     1      29.834  24.761  28.676  1.00  0.00     0.016 C 
HETATM   29  C   UNL     1      31.314  24.857  28.308  1.00  0.00     0.012 C 
HETATM   30  C   UNL     1      28.966  24.799  27.419  1.00  0.00     0.012 C 
ENDBRANCH  16  28
BRANCH  14  31
HETATM   31  C   UNL     1      32.174  19.829  28.369  1.00  0.00     0.010 C 
HETATM   32  C   UNL     1      31.848  20.657  27.128  1.00  0.00     0.012 C 
HETATM   33  C   UNL     1      33.626  19.357  28.331  1.00  0.00     0.012 C 
ENDBRANCH  14  31
BRANCH  13  34
HETATM   34  C   UNL     1      27.376  26.117  33.064  1.00  0.00     0.010 C 
HETATM   35  C   UNL     1      28.231  27.121  33.838  1.00  0.00     0.012 C 
HETATM   36  C   UNL     1      26.070  25.844  33.807  1.00  0.00     0.012 C 
ENDBRANCH  13  34
BRANCH  18  37
HETATM   37  C   UNL     1      32.784  20.527  34.544  1.00  0.00     0.016 C 
HETATM   38  C   UNL     1      34.186  20.980  34.138  1.00  0.00     0.012 C 
HETATM   39  C   UNL     1      31.942  21.723  34.986  1.00  0.00     0.012 C 
ENDBRANCH  18  37
BRANCH  17  40
HETATM   40  C   UNL     1      25.142  22.107  34.416  1.00  0.00     0.016 C 
HETATM   41  C   UNL     1      24.402  20.941  35.068  1.00  0.00     0.012 C 
HETATM   42  C   UNL     1      24.209  22.886  33.491  1.00  0.00     0.012 C 
ENDBRANCH  17  40
BRANCH  15  43
HETATM   43  C   UNL     1      28.142  17.334  34.490  1.00  0.00     0.010 C 
HETATM   44  C   UNL     1      28.689  16.380  35.548  1.00  0.00     0.012 C 
HETATM   45  C   UNL     1      26.619  17.395  34.554  1.00  0.00     0.012 C 
ENDBRANCH  15  43
TORSDOF 6
ENDMDL
MODEL 17
REMARK VINA RESULT:    -5.439      2.474      7.173
REMARK INTER + INTRA:          -6.041
REMARK INTER:                  -7.195
REMARK INTRA:                   1.154
REMARK UNBOUND:                 1.306
REMARK  6 active torsions:
REMARK  status: ('A' for Active; 'I' for Inactive)
REMARK    1  A    between atoms: C_13  and  C_16 
REMARK    2  A    between atoms: C_14  and  C_17 
REMARK    3  A    between atoms: C_15  and  C_18 
REMARK    4  A    between atoms: C_19  and  C_22 
REMARK    5  A    between atoms: C_20  and  C_23 
REMARK    6  A    between atoms: C_21  and  C_24 
ROOT
HETATM    1  O   UNL     1      26.770  23.446  33.093  1.00  0.00    -0.304 OA
HETATM    2  O   UNL     1      31.227  21.577  31.244  1.00  0.00    -0.304 OA
HETATM    3  O   UNL     1      29.577  19.574  35.196  1.00  0.00    -0.304 OA
HETATM    4  O   UNL     1      27.645  21.384  31.789  1.00  0.00    -0.270 OA
HETATM    5  O   UNL     1      26.587  20.191  34.264  1.00  0.00    -0.270 OA
HETATM    6  O   UNL     1      32.674  18.997  32.569  1.00  0.00    -0.270 OA
HETATM    7  O   UNL     1      28.685  23.686  34.354  1.00  0.00    -0.263 OA
HETATM    8  O   UNL     1      31.111  19.573  30.116  1.00  0.00    -0.263 OA
HETATM    9  O   UNL     1      30.560  18.313  36.845  1.00  0.00    -0.263 OA
HETATM   10  N   UNL     1      28.972  22.524  30.276  1.00  0.00    -0.340 N 
HETATM   11  N   UNL     1      27.465  21.616  35.872  1.00  0.00    -0.340 N 
HETATM   12  N   UNL     1      31.895  20.474  34.189  1.00  0.00    -0.340 N 
HETATM   13  C   UNL     1      29.430  21.248  29.686  1.00  0.00     0.190 C 
HETATM   14  C   UNL     1      26.671  22.744  35.343  1.00  0.00     0.190 C 
HETATM   15  C   UNL     1      31.980  19.465  35.265  1.00  0.00     0.190 C 
HETATM   16  C   UNL     1      27.475  23.769  31.875  1.00  0.00     0.227 C 
HETATM   17  C   UNL     1      32.478  21.293  31.893  1.00  0.00     0.227 C 
HETATM   18  C   UNL     1      28.263  19.243  35.683  1.00  0.00     0.227 C 
HETATM   19  C   UNL     1      28.037  22.458  31.318  1.00  0.00     0.250 C 
HETATM   20  C   UNL     1      27.361  20.380  35.207  1.00  0.00     0.250 C 
HETATM   21  C   UNL     1      32.353  20.142  32.902  1.00  0.00     0.250 C 
HETATM   22  C   UNL     1      27.512  23.359  34.237  1.00  0.00     0.283 C 
HETATM   23  C   UNL     1      30.671  20.688  30.377  1.00  0.00     0.283 C 
HETATM   24  C   UNL     1      30.640  19.058  35.874  1.00  0.00     0.283 C 
HETATM   25  C   UNL     1      29.555  23.765  29.759  1.00  0.00     0.153 C 
HETATM   26  C   UNL     1      28.331  21.869  37.027  1.00  0.00     0.153 C 
HETATM   27  C   UNL     1      31.501  21.833  34.565  1.00  0.00     0.153 C 
ENDROOT
BRANCH  16  28
HETATM   28  C   UNL     1      26.453  24.366  30.919  1.00  0.00     0.016 C 
HETATM   29  C   UNL     1      25.033  24.004  31.353  1.00  0.00     0.012 C 
HETATM   30  C   UNL     1      26.615  25.883  30.832  1.00  0.00     0.012 C 
ENDBRANCH  16  28
BRANCH  14  31
HETATM   31  C   UNL     1      26.272  23.811  36.355  1.00  0.00     0.010 C 
HETATM   32  C   UNL     1      25.902  25.112  35.646  1.00  0.00     0.012 C 
HETATM   33  C   UNL     1      25.112  23.324  37.220  1.00  0.00     0.012 C 
ENDBRANCH  14  31
BRANCH  13  34
HETATM   34  C   UNL     1      29.667  21.316  28.178  1.00  0.00     0.010 C 
HETATM   35  C   UNL     1      28.921  20.190  27.463  1.00  0.00     0.012 C 
HETATM   36  C   UNL     1      31.159  21.255  27.861  1.00  0.00     0.012 C 
ENDBRANCH  13  34
BRANCH  18  37
HETATM   37  C   UNL     1      27.843  17.903  35.085  1.00  0.00     0.016 C 
HETATM   38  C   UNL     1      26.388  17.589  35.434  1.00  0.00     0.012 C 
HETATM   39  C   UNL     1      28.043  17.900  33.571  1.00  0.00     0.012 C 
ENDBRANCH  18  37
BRANCH  17  40
HETATM   40  C   UNL     1      33.605  21.074  30.884  1.00  0.00     0.016 C 
HETATM   41  C   UNL     1      34.924  20.796  31.603  1.00  0.00     0.012 C 
HETATM   42  C   UNL     1      33.741  22.282  29.960  1.00  0.00     0.012 C 
ENDBRANCH  17  40
BRANCH  15  43
HETATM   43  C   UNL     1      32.954  19.901  36.360  1.00  0.00     0.010 C 
HETATM   44  C   UNL     1      32.192  20.358  37.602  1.00  0.00     0.012 C 
HETATM   45  C   UNL     1      33.914  18.766  36.704  1.00  0.00     0.012 C 
ENDBRANCH  15  43
TORSDOF 6
ENDMDL
MODEL 18
REMARK VINA RESULT:    -5.245      2.480      7.503
REMARK INTER + INTRA:          -5.778
REMARK INTER:                  -7.651
REMARK INTRA:                   1.873
REMARK UNBOUND:                 1.306
REMARK  6 active torsions:
REMARK  status: ('A' for Active; 'I' for Inactive)
REMARK    1  A    between atoms: C_13  and  C_16 
REMARK    2  A    between atoms: C_14  and  C_17 
REMARK    3  A    between atoms: C_15  and  C_18 
REMARK    4  A    between atoms: C_19  and  C_22 
REMARK    5  A    between atoms: C_20  and  C_23 
REMARK    6  A    between atoms: C_21  and  C_24 
ROOT
HETATM    1  O   UNL     1      28.684  18.846  30.559  1.00  0.00    -0.304 OA
HETATM    2  O   UNL     1      27.843  23.773  31.901  1.00  0.00    -0.304 OA
HETATM    3  O   UNL     1      30.310  21.144  34.961  1.00  0.00    -0.304 OA
HETATM    4  O   UNL     1      29.960  21.100  30.660  1.00  0.00    -0.270 OA
HETATM    5  O   UNL     1      31.468  19.410  32.543  1.00  0.00    -0.270 OA
HETATM    6  O   UNL     1      29.163  25.062  34.566  1.00  0.00    -0.270 OA
HETATM    7  O   UNL     1      27.394  19.288  32.419  1.00  0.00    -0.263 OA
HETATM    8  O   UNL     1      29.612  25.224  31.640  1.00  0.00    -0.263 OA
HETATM    9  O   UNL     1      30.775  21.362  37.199  1.00  0.00    -0.263 OA
HETATM   10  N   UNL     1      28.322  22.418  29.698  1.00  0.00    -0.340 N 
HETATM   11  N   UNL     1      29.750  18.436  33.761  1.00  0.00    -0.340 N 
HETATM   12  N   UNL     1      28.312  22.935  34.969  1.00  0.00    -0.340 N 
HETATM   13  C   UNL     1      29.152  23.626  29.893  1.00  0.00     0.190 C 
HETATM   14  C   UNL     1      29.260  17.732  32.558  1.00  0.00     0.190 C 
HETATM   15  C   UNL     1      29.076  22.778  36.224  1.00  0.00     0.190 C 
HETATM   16  C   UNL     1      28.061  19.915  29.815  1.00  0.00     0.227 C 
HETATM   17  C   UNL     1      27.374  24.354  33.130  1.00  0.00     0.227 C 
HETATM   18  C   UNL     1      31.295  20.102  34.826  1.00  0.00     0.227 C 
HETATM   19  C   UNL     1      28.862  21.189  30.100  1.00  0.00     0.250 C 
HETATM   20  C   UNL     1      30.856  19.290  33.609  1.00  0.00     0.250 C 
HETATM   21  C   UNL     1      28.374  24.157  34.278  1.00  0.00     0.250 C 
HETATM   22  C   UNL     1      28.316  18.702  31.867  1.00  0.00     0.283 C 
HETATM   23  C   UNL     1      28.916  24.294  31.246  1.00  0.00     0.283 C 
HETATM   24  C   UNL     1      30.137  21.680  36.201  1.00  0.00     0.283 C 
HETATM   25  C   UNL     1      26.980  22.593  29.134  1.00  0.00     0.153 C 
HETATM   26  C   UNL     1      29.028  18.224  35.020  1.00  0.00     0.153 C 
HETATM   27  C   UNL     1      27.384  21.862  34.604  1.00  0.00     0.153 C 
ENDROOT
BRANCH  16  28
HETATM   28  C   UNL     1      28.153  19.539  28.343  1.00  0.00     0.016 C 
HETATM   29  C   UNL     1      29.426  18.739  28.070  1.00  0.00     0.012 C 
HETATM   30  C   UNL     1      26.920  18.748  27.909  1.00  0.00     0.012 C 
ENDBRANCH  16  28
BRANCH  14  31
HETATM   31  C   UNL     1      28.560  16.401  32.801  1.00  0.00     0.010 C 
HETATM   32  C   UNL     1      27.650  16.049  31.627  1.00  0.00     0.012 C 
HETATM   33  C   UNL     1      29.583  15.292  33.037  1.00  0.00     0.012 C 
ENDBRANCH  14  31
BRANCH  13  34
HETATM   34  C   UNL     1      29.008  24.660  28.777  1.00  0.00     0.010 C 
HETATM   35  C   UNL     1      27.592  25.236  28.755  1.00  0.00     0.012 C 
HETATM   36  C   UNL     1      29.356  24.046  27.423  1.00  0.00     0.012 C 
ENDBRANCH  13  34
BRANCH  18  37
HETATM   37  C   UNL     1      32.662  20.748  34.610  1.00  0.00     0.016 C 
HETATM   38  C   UNL     1      33.748  19.680  34.485  1.00  0.00     0.012 C 
HETATM   39  C   UNL     1      32.647  21.643  33.373  1.00  0.00     0.012 C 
ENDBRANCH  18  37
BRANCH  17  40
HETATM   40  C   UNL     1      26.965  25.816  32.947  1.00  0.00     0.016 C 
HETATM   41  C   UNL     1      26.456  26.400  34.263  1.00  0.00     0.012 C 
HETATM   42  C   UNL     1      25.904  25.944  31.855  1.00  0.00     0.012 C 
ENDBRANCH  17  40
BRANCH  15  43
HETATM   43  C   UNL     1      28.145  22.598  37.424  1.00  0.00     0.010 C 
HETATM   44  C   UNL     1      27.127  23.734  37.485  1.00  0.00     0.012 C 
HETATM   45  C   UNL     1      27.440  21.247  37.354  1.00  0.00     0.012 C 
ENDBRANCH  15  43
TORSDOF 6
ENDMDL
MODEL 19
REMARK VINA RESULT:    -5.167      3.903      8.801
REMARK INTER + INTRA:          -5.673
REMARK INTER:                  -7.000
REMARK INTRA:                   1.327
REMARK UNBOUND:                 1.306
REMARK  6 active torsions:
REMARK  status: ('A' for Active; 'I' for Inactive)
REMARK    1  A    between atoms: C_13  and  C_16 
REMARK    2  A    between atoms: C_14  and  C_17 
REMARK    3  A    between atoms: C_15  and  C_18 
REMARK    4  A    between atoms: C_19  and  C_22 
REMARK    5  A    between atoms: C_20  and  C_23 
REMARK    6  A    between atoms: C_21  and  C_24 
ROOT
HETATM    1  O   UNL     1      28.548  18.096  29.147  1.00  0.00    -0.304 OA
HETATM    2  O   UNL     1      28.943  20.374  33.778  1.00  0.00    -0.304 OA
HETATM    3  O   UNL     1      32.363  21.332  30.656  1.00  0.00    -0.304 OA
HETATM    4  O   UNL     1      28.167  20.418  30.233  1.00  0.00    -0.270 OA
HETATM    5  O   UNL     1      30.286  20.959  28.261  1.00  0.00    -0.270 OA
HETATM    6  O   UNL     1      31.261  22.549  34.415  1.00  0.00    -0.270 OA
HETATM    7  O   UNL     1      30.332  17.555  30.505  1.00  0.00    -0.263 OA
HETATM    8  O   UNL     1      28.344  22.594  33.883  1.00  0.00    -0.263 OA
HETATM    9  O   UNL     1      34.499  22.147  30.869  1.00  0.00    -0.263 OA
HETATM   10  N   UNL     1      27.027  19.692  32.110  1.00  0.00    -0.340 N 
HETATM   11  N   UNL     1      31.729  19.182  28.640  1.00  0.00    -0.340 N 
HETATM   12  N   UNL     1      32.097  20.714  33.253  1.00  0.00    -0.340 N 
HETATM   13  C   UNL     1      26.956  21.075  32.626  1.00  0.00     0.190 C 
HETATM   14  C   UNL     1      30.703  18.218  28.193  1.00  0.00     0.190 C 
HETATM   15  C   UNL     1      33.330  21.425  32.857  1.00  0.00     0.190 C 
HETATM   16  C   UNL     1      27.634  18.086  30.266  1.00  0.00     0.227 C 
HETATM   17  C   UNL     1      30.052  20.491  34.685  1.00  0.00     0.227 C 
HETATM   18  C   UNL     1      32.396  21.529  29.230  1.00  0.00     0.227 C 
HETATM   19  C   UNL     1      27.639  19.495  30.864  1.00  0.00     0.250 C 
HETATM   20  C   UNL     1      31.376  20.543  28.665  1.00  0.00     0.250 C 
HETATM   21  C   UNL     1      31.181  21.356  34.105  1.00  0.00     0.250 C 
HETATM   22  C   UNL     1      29.872  17.898  29.425  1.00  0.00     0.283 C 
HETATM   23  C   UNL     1      28.162  21.449  33.485  1.00  0.00     0.283 C 
HETATM   24  C   UNL     1      33.482  21.666  31.357  1.00  0.00     0.283 C 
HETATM   25  C   UNL     1      26.489  18.618  32.950  1.00  0.00     0.153 C 
HETATM   26  C   UNL     1      33.030  18.652  29.060  1.00  0.00     0.153 C 
HETATM   27  C   UNL     1      31.979  19.303  32.879  1.00  0.00     0.153 C 
ENDROOT
BRANCH  16  28
HETATM   28  C   UNL     1      26.260  17.743  29.708  1.00  0.00     0.016 C 
HETATM   29  C   UNL     1      26.263  17.821  28.182  1.00  0.00     0.012 C 
HETATM   30  C   UNL     1      25.820  16.355  30.172  1.00  0.00     0.012 C 
ENDBRANCH  16  28
BRANCH  14  31
HETATM   31  C   UNL     1      31.223  16.932  27.562  1.00  0.00     0.010 C 
HETATM   32  C   UNL     1      30.153  15.844  27.600  1.00  0.00     0.012 C 
HETATM   33  C   UNL     1      31.680  17.185  26.127  1.00  0.00     0.012 C 
ENDBRANCH  14  31
BRANCH  13  34
HETATM   34  C   UNL     1      25.667  21.383  33.387  1.00  0.00     0.010 C 
HETATM   35  C   UNL     1      24.933  22.563  32.750  1.00  0.00     0.012 C 
HETATM   36  C   UNL     1      25.962  21.669  34.858  1.00  0.00     0.012 C 
ENDBRANCH  13  34
BRANCH  18  37
HETATM   37  C   UNL     1      32.011  22.974  28.927  1.00  0.00     0.016 C 
HETATM   38  C   UNL     1      31.879  23.192  27.420  1.00  0.00     0.012 C 
HETATM   39  C   UNL     1      30.713  23.348  29.638  1.00  0.00     0.012 C 
ENDBRANCH  18  37
BRANCH  17  40
HETATM   40  C   UNL     1      29.606  20.956  36.071  1.00  0.00     0.016 C 
HETATM   41  C   UNL     1      30.802  21.064  37.014  1.00  0.00     0.012 C 
HETATM   42  C   UNL     1      28.555  20.006  36.643  1.00  0.00     0.012 C 
ENDBRANCH  17  40
BRANCH  15  43
HETATM   43  C   UNL     1      34.574  20.733  33.416  1.00  0.00     0.010 C 
HETATM   44  C   UNL     1      34.405  20.454  34.907  1.00  0.00     0.012 C 
HETATM   45  C   UNL     1      34.854  19.441  32.654  1.00  0.00     0.012 C 
ENDBRANCH  15  43
TORSDOF 6
ENDMDL
