MODEL 1
REMARK VINA RESULT:    -5.467      0.000      0.000
REMARK INTER + INTRA:          -5.908
REMARK INTER:                  -7.385
REMARK INTRA:                   1.477
REMARK UNBOUND:                 1.477
REMARK  6 active torsions:
REMARK  status: ('A' for Active; 'I' for Inactive)
REMARK    1  A    between atoms: C_13  and  C_16 
REMARK    2  A    between atoms: C_14  and  C_17 
REMARK    3  A    between atoms: C_15  and  C_18 
REMARK    4  A    between atoms: C_19  and  C_22 
REMARK    5  A    between atoms: C_20  and  C_23 
REMARK    6  A    between atoms: C_21  and  C_24 
ROOT
HETATM    1  O   UNL     1      40.543   9.922  41.240  1.00  0.00    -0.304 OA
HETATM    2  O   UNL     1      40.964   7.334  36.778  1.00  0.00    -0.304 OA
HETATM    3  O   UNL     1      44.164  10.726  37.560  1.00  0.00    -0.304 OA
HETATM    4  O   UNL     1      42.003   8.062  40.178  1.00  0.00    -0.270 OA
HETATM    5  O   UNL     1      43.954  10.205  40.703  1.00  0.00    -0.270 OA
HETATM    6  O   UNL     1      43.444   7.826  34.750  1.00  0.00    -0.270 OA
HETATM    7  O   UNL     1      40.238  11.063  39.259  1.00  0.00    -0.263 OA
HETATM    8  O   UNL     1      42.612   5.730  36.674  1.00  0.00    -0.263 OA
HETATM    9  O   UNL     1      45.566  11.910  36.179  1.00  0.00    -0.263 OA
HETATM   10  N   UNL     1      40.284   6.813  39.265  1.00  0.00    -0.340 N 
HETATM   11  N   UNL     1      42.819  12.064  39.903  1.00  0.00    -0.340 N 
HETATM   12  N   UNL     1      42.597   9.829  35.576  1.00  0.00    -0.340 N 
HETATM   13  C   UNL     1      41.257   5.877  38.664  1.00  0.00     0.190 C 
HETATM   14  C   UNL     1      41.779  11.910  40.941  1.00  0.00     0.190 C 
HETATM   15  C   UNL     1      43.800  10.593  35.185  1.00  0.00     0.190 C 
HETATM   16  C   UNL     1      39.796   8.786  40.754  1.00  0.00     0.227 C 
HETATM   17  C   UNL     1      41.141   7.795  35.428  1.00  0.00     0.227 C 
HETATM   18  C   UNL     1      44.862  11.201  38.727  1.00  0.00     0.227 C 
HETATM   19  C   UNL     1      40.790   7.864  40.042  1.00  0.00     0.250 C 
HETATM   20  C   UNL     1      43.849  11.107  39.866  1.00  0.00     0.250 C 
HETATM   21  C   UNL     1      42.505   8.471  35.225  1.00  0.00     0.250 C 
HETATM   22  C   UNL     1      40.756  10.947  40.362  1.00  0.00     0.283 C 
HETATM   23  C   UNL     1      41.707   6.306  37.269  1.00  0.00     0.283 C 
HETATM   24  C   UNL     1      44.606  11.166  36.349  1.00  0.00     0.283 C 
HETATM   25  C   UNL     1      38.862   6.601  38.977  1.00  0.00     0.153 C 
HETATM   26  C   UNL     1      42.687  13.181  38.962  1.00  0.00     0.153 C 
HETATM   27  C   UNL     1      41.479  10.577  36.156  1.00  0.00     0.153 C 
ENDROOT
BRANCH  16  28
HETATM   28  C   UNL     1      39.203   8.096  41.974  1.00  0.00     0.016 C 
HETATM   29  C   UNL     1      39.830   8.635  43.258  1.00  0.00     0.012 C 
HETATM   30  C   UNL     1      37.684   8.269  42.007  1.00  0.00     0.012 C 
ENDBRANCH  16  28
BRANCH  14  31
HETATM   31  C   UNL     1      41.096  13.192  41.397  1.00  0.00     0.010 C 
HETATM   32  C   UNL     1      39.754  12.880  42.056  1.00  0.00     0.012 C 
HETATM   33  C   UNL     1      41.995  13.969  42.355  1.00  0.00     0.012 C 
ENDBRANCH  14  31
BRANCH  13  34
HETATM   34  C   UNL     1      40.776   4.427  38.627  1.00  0.00     0.010 C 
HETATM   35  C   UNL     1      39.737   4.175  39.720  1.00  0.00     0.012 C 
HETATM   36  C   UNL     1      41.950   3.462  38.774  1.00  0.00     0.012 C 
ENDBRANCH  13  34
BRANCH  18  37
HETATM   37  C   UNL     1      46.071  10.302  38.972  1.00  0.00     0.016 C 
HETATM   38  C   UNL     1      45.926   8.984  38.212  1.00  0.00     0.012 C 
HETATM   39  C   UNL     1      47.363  11.012  38.572  1.00  0.00     0.012 C 
ENDBRANCH  18  37
BRANCH  17  40
HETATM   40  C   UNL     1      40.874   6.686  34.410  1.00  0.00     0.016 C 
HETATM   41  C   UNL     1      40.771   7.264  33.000  1.00  0.00     0.012 C 
HETATM   42  C   UNL     1      39.604   5.919  34.771  1.00  0.00     0.012 C 
ENDBRANCH  17  40
BRANCH  15  43
HETATM   43  C   UNL     1      43.458  11.692  34.178  1.00  0.00     0.010 C 
HETATM   44  C   UNL     1      42.680  11.113  33.000  1.00  0.00     0.012 C 
HETATM   45  C   UNL     1      42.664  12.806  34.853  1.00  0.00     0.012 C 
ENDBRANCH  15  43
TORSDOF 6
ENDMDL
MODEL 2
REMARK VINA RESULT:    -5.253     15.716     19.017
REMARK INTER + INTRA:          -5.619
REMARK INTER:                  -6.424
REMARK INTRA:                   0.805
REMARK UNBOUND:                 1.477
REMARK  6 active torsions:
REMARK  status: ('A' for Active; 'I' for Inactive)
REMARK    1  A    between atoms: C_13  and  C_16 
REMARK    2  A    between atoms: C_14  and  C_17 
REMARK    3  A    between atoms: C_15  and  C_18 
REMARK    4  A    between atoms: C_19  and  C_22 
REMARK    5  A    between atoms: C_20  and  C_23 
REMARK    6  A    between atoms: C_21  and  C_24 
ROOT
HETATM    1  O   UNL     1      20.804  10.315  37.034  1.00  0.00    -0.304 OA
HETATM    2  O   UNL     1      25.766  11.502  36.164  1.00  0.00    -0.304 OA
HETATM    3  O   UNL     1      24.294  11.744  40.651  1.00  0.00    -0.304 OA
HETATM    4  O   UNL     1      23.155   9.258  37.312  1.00  0.00    -0.270 OA
HETATM    5  O   UNL     1      22.178   9.420  40.086  1.00  0.00    -0.270 OA
HETATM    6  O   UNL     1      27.823  12.116  38.593  1.00  0.00    -0.270 OA
HETATM    7  O   UNL     1      21.525  12.466  37.454  1.00  0.00    -0.263 OA
HETATM    8  O   UNL     1      27.317   9.888  36.704  1.00  0.00    -0.263 OA
HETATM    9  O   UNL     1      25.110  12.808  42.515  1.00  0.00    -0.263 OA
HETATM   10  N   UNL     1      23.983   9.811  35.225  1.00  0.00    -0.340 N 
HETATM   11  N   UNL     1      21.327  11.578  40.147  1.00  0.00    -0.340 N 
HETATM   12  N   UNL     1      25.770  13.162  38.917  1.00  0.00    -0.340 N 
HETATM   13  C   UNL     1      25.295   9.223  35.569  1.00  0.00     0.190 C 
HETATM   14  C   UNL     1      20.294  11.227  39.150  1.00  0.00     0.190 C 
HETATM   15  C   UNL     1      26.022  13.392  40.354  1.00  0.00     0.190 C 
HETATM   16  C   UNL     1      21.573  10.246  35.813  1.00  0.00     0.227 C 
HETATM   17  C   UNL     1      26.567  12.610  36.606  1.00  0.00     0.227 C 
HETATM   18  C   UNL     1      23.382  10.970  41.453  1.00  0.00     0.227 C 
HETATM   19  C   UNL     1      22.966   9.734  36.187  1.00  0.00     0.250 C 
HETATM   20  C   UNL     1      22.249  10.579  40.508  1.00  0.00     0.250 C 
HETATM   21  C   UNL     1      26.784  12.593  38.126  1.00  0.00     0.250 C 
HETATM   22  C   UNL     1      20.940  11.444  37.792  1.00  0.00     0.283 C 
HETATM   23  C   UNL     1      26.240  10.228  36.226  1.00  0.00     0.283 C 
HETATM   24  C   UNL     1      25.092  12.636  41.300  1.00  0.00     0.283 C 
HETATM   25  C   UNL     1      23.847  10.465  33.920  1.00  0.00     0.153 C 
HETATM   26  C   UNL     1      21.342  12.950  40.664  1.00  0.00     0.153 C 
HETATM   27  C   UNL     1      24.534  13.708  38.351  1.00  0.00     0.153 C 
ENDROOT
BRANCH  16  28
HETATM   28  C   UNL     1      20.862   9.257  34.901  1.00  0.00     0.016 C 
HETATM   29  C   UNL     1      19.764   8.515  35.662  1.00  0.00     0.012 C 
HETATM   30  C   UNL     1      20.279   9.969  33.681  1.00  0.00     0.012 C 
ENDBRANCH  16  28
BRANCH  14  31
HETATM   31  C   UNL     1      18.987  12.004  39.240  1.00  0.00     0.010 C 
HETATM   32  C   UNL     1      18.073  11.657  38.067  1.00  0.00     0.012 C 
HETATM   33  C   UNL     1      18.286  11.723  40.567  1.00  0.00     0.012 C 
ENDBRANCH  14  31
BRANCH  13  34
HETATM   34  C   UNL     1      25.998   8.552  34.389  1.00  0.00     0.010 C 
HETATM   35  C   UNL     1      26.364   7.108  34.730  1.00  0.00     0.012 C 
HETATM   36  C   UNL     1      27.243   9.337  33.983  1.00  0.00     0.012 C 
ENDBRANCH  13  34
BRANCH  18  37
HETATM   37  C   UNL     1      24.119   9.745  41.987  1.00  0.00     0.016 C 
HETATM   38  C   UNL     1      25.485   9.602  41.315  1.00  0.00     0.012 C 
HETATM   39  C   UNL     1      24.276   9.826  43.504  1.00  0.00     0.012 C 
ENDBRANCH  18  37
BRANCH  17  40
HETATM   40  C   UNL     1      27.877  12.712  35.824  1.00  0.00     0.016 C 
HETATM   41  C   UNL     1      28.712  13.889  36.324  1.00  0.00     0.012 C 
HETATM   42  C   UNL     1      27.601  12.846  34.328  1.00  0.00     0.012 C 
ENDBRANCH  17  40
BRANCH  15  43
HETATM   43  C   UNL     1      26.027  14.884  40.687  1.00  0.00     0.010 C 
HETATM   44  C   UNL     1      24.718  15.284  41.364  1.00  0.00     0.012 C 
HETATM   45  C   UNL     1      27.219  15.230  41.573  1.00  0.00     0.012 C 
ENDBRANCH  15  43
TORSDOF 6
ENDMDL
MODEL 3
REMARK VINA RESULT:    -5.158      3.925      8.588
REMARK INTER + INTRA:          -5.490
REMARK INTER:                  -6.301
REMARK INTRA:                   0.811
REMARK UNBOUND:                 1.477
REMARK  6 active torsions:
REMARK  status: ('A' for Active; 'I' for Inactive)
REMARK    1  A    between atoms: C_13  and  C_16 
REMARK    2  A    between atoms: C_14  and  C_17 
REMARK    3  A    between atoms: C_15  and  C_18 
REMARK    4  A    between atoms: C_19  and  C_22 
REMARK    5  A    between atoms: C_20  and  C_23 
REMARK    6  A    between atoms: C_21  and  C_24 
ROOT
HETATM    1  O   UNL     1      45.107  16.502  43.362  1.00  0.00    -0.304 OA
HETATM    2  O   UNL     1      45.256  12.899  39.650  1.00  0.00    -0.304 OA
HETATM    3  O   UNL     1      40.973  14.107  41.246  1.00  0.00    -0.304 OA
HETATM    4  O   UNL     1      44.673  16.286  40.816  1.00  0.00    -0.270 OA
HETATM    5  O   UNL     1      42.032  17.055  41.866  1.00  0.00    -0.270 OA
HETATM    6  O   UNL     1      42.551  11.728  38.302  1.00  0.00    -0.270 OA
HETATM    7  O   UNL     1      44.374  14.371  43.850  1.00  0.00    -0.263 OA
HETATM    8  O   UNL     1      44.718  13.595  37.522  1.00  0.00    -0.263 OA
HETATM    9  O   UNL     1      38.921  13.079  41.168  1.00  0.00    -0.263 OA
HETATM   10  N   UNL     1      46.576  15.084  40.285  1.00  0.00    -0.340 N 
HETATM   11  N   UNL     1      41.836  15.641  43.694  1.00  0.00    -0.340 N 
HETATM   12  N   UNL     1      42.357  11.898  40.614  1.00  0.00    -0.340 N 
HETATM   13  C   UNL     1      46.148  14.990  38.874  1.00  0.00     0.190 C 
HETATM   14  C   UNL     1      42.979  16.298  44.360  1.00  0.00     0.190 C 
HETATM   15  C   UNL     1      40.884  11.797  40.579  1.00  0.00     0.190 C 
HETATM   16  C   UNL     1      46.230  15.994  42.609  1.00  0.00     0.227 C 
HETATM   17  C   UNL     1      44.605  11.622  39.542  1.00  0.00     0.227 C 
HETATM   18  C   UNL     1      40.372  15.343  41.677  1.00  0.00     0.227 C 
HETATM   19  C   UNL     1      45.754  15.800  41.167  1.00  0.00     0.250 C 
HETATM   20  C   UNL     1      41.481  16.094  42.411  1.00  0.00     0.250 C 
HETATM   21  C   UNL     1      43.081  11.762  39.417  1.00  0.00     0.250 C 
HETATM   22  C   UNL     1      44.220  15.585  43.851  1.00  0.00     0.283 C 
HETATM   23  C   UNL     1      45.279  13.764  38.600  1.00  0.00     0.283 C 
HETATM   24  C   UNL     1      40.141  13.049  41.042  1.00  0.00     0.283 C 
HETATM   25  C   UNL     1      47.809  14.392  40.674  1.00  0.00     0.153 C 
HETATM   26  C   UNL     1      41.174  14.539  44.400  1.00  0.00     0.153 C 
HETATM   27  C   UNL     1      43.001  11.956  41.928  1.00  0.00     0.153 C 
ENDROOT
BRANCH  16  28
HETATM   28  C   UNL     1      47.321  17.052  42.678  1.00  0.00     0.016 C 
HETATM   29  C   UNL     1      46.907  18.305  41.908  1.00  0.00     0.012 C 
HETATM   30  C   UNL     1      47.646  17.399  44.130  1.00  0.00     0.012 C 
ENDBRANCH  16  28
BRANCH  14  31
HETATM   31  C   UNL     1      42.957  16.294  45.883  1.00  0.00     0.010 C 
HETATM   32  C   UNL     1      44.373  16.423  46.441  1.00  0.00     0.012 C 
HETATM   33  C   UNL     1      42.070  17.419  46.411  1.00  0.00     0.012 C 
ENDBRANCH  14  31
BRANCH  13  34
HETATM   34  C   UNL     1      47.303  15.035  37.875  1.00  0.00     0.010 C 
HETATM   35  C   UNL     1      47.077  16.137  36.839  1.00  0.00     0.012 C 
HETATM   36  C   UNL     1      47.478  13.683  37.187  1.00  0.00     0.012 C 
ENDBRANCH  13  34
BRANCH  18  37
HETATM   37  C   UNL     1      39.893  16.108  40.446  1.00  0.00     0.016 C 
HETATM   38  C   UNL     1      40.418  15.456  39.168  1.00  0.00     0.012 C 
HETATM   39  C   UNL     1      38.368  16.188  40.419  1.00  0.00     0.012 C 
ENDBRANCH  18  37
BRANCH  17  40
HETATM   40  C   UNL     1      45.212  10.767  38.429  1.00  0.00     0.016 C 
HETATM   41  C   UNL     1      44.490   9.426  38.327  1.00  0.00     0.012 C 
HETATM   42  C   UNL     1      46.706  10.556  38.668  1.00  0.00     0.012 C 
ENDBRANCH  17  40
BRANCH  15  43
HETATM   43  C   UNL     1      40.392  10.569  41.346  1.00  0.00     0.010 C 
HETATM   44  C   UNL     1      39.835  10.978  42.708  1.00  0.00     0.012 C 
HETATM   45  C   UNL     1      39.338   9.820  40.536  1.00  0.00     0.012 C 
ENDBRANCH  15  43
TORSDOF 6
ENDMDL
MODEL 4
REMARK VINA RESULT:    -5.122     10.747     13.883
REMARK INTER + INTRA:          -5.442
REMARK INTER:                  -6.263
REMARK INTRA:                   0.821
REMARK UNBOUND:                 1.477
REMARK  6 active torsions:
REMARK  status: ('A' for Active; 'I' for Inactive)
REMARK    1  A    between atoms: C_13  and  C_16 
REMARK    2  A    between atoms: C_14  and  C_17 
REMARK    3  A    between atoms: C_15  and  C_18 
REMARK    4  A    between atoms: C_19  and  C_22 
REMARK    5  A    between atoms: C_20  and  C_23 
REMARK    6  A    between atoms: C_21  and  C_24 
ROOT
HETATM    1  O   UNL     1      32.618  20.348  35.506  1.00  0.00    -0.304 OA
HETATM    2  O   UNL     1      30.377  16.051  37.321  1.00  0.00    -0.304 OA
HETATM    3  O   UNL     1      34.520  17.250  39.258  1.00  0.00    -0.304 OA
HETATM    4  O   UNL     1      31.282  19.556  37.581  1.00  0.00    -0.270 OA
HETATM    5  O   UNL     1      33.878  20.333  38.733  1.00  0.00    -0.270 OA
HETATM    6  O   UNL     1      31.611  14.416  39.834  1.00  0.00    -0.270 OA
HETATM    7  O   UNL     1      33.675  18.323  35.191  1.00  0.00    -0.263 OA
HETATM    8  O   UNL     1      29.314  16.229  39.356  1.00  0.00    -0.263 OA
HETATM    9  O   UNL     1      36.092  16.077  40.454  1.00  0.00    -0.263 OA
HETATM   10  N   UNL     1      29.618  18.414  36.451  1.00  0.00    -0.340 N 
HETATM   11  N   UNL     1      35.356  19.335  37.248  1.00  0.00    -0.340 N 
HETATM   12  N   UNL     1      33.265  15.066  38.333  1.00  0.00    -0.340 N 
HETATM   13  C   UNL     1      29.015  17.986  37.731  1.00  0.00     0.190 C 
HETATM   14  C   UNL     1      34.883  20.205  36.151  1.00  0.00     0.190 C 
HETATM   15  C   UNL     1      34.352  14.850  39.311  1.00  0.00     0.190 C 
HETATM   16  C   UNL     1      31.328  19.776  35.199  1.00  0.00     0.227 C 
HETATM   17  C   UNL     1      30.905  14.735  37.561  1.00  0.00     0.227 C 
HETATM   18  C   UNL     1      35.144  18.501  39.606  1.00  0.00     0.227 C 
HETATM   19  C   UNL     1      30.749  19.240  36.511  1.00  0.00     0.250 C 
HETATM   20  C   UNL     1      34.734  19.473  38.502  1.00  0.00     0.250 C 
HETATM   21  C   UNL     1      31.947  14.730  38.688  1.00  0.00     0.250 C 
HETATM   22  C   UNL     1      33.684  19.494  35.547  1.00  0.00     0.283 C 
HETATM   23  C   UNL     1      29.591  16.668  38.245  1.00  0.00     0.283 C 
HETATM   24  C   UNL     1      35.100  16.112  39.733  1.00  0.00     0.283 C 
HETATM   25  C   UNL     1      29.015  17.917  35.211  1.00  0.00     0.153 C 
HETATM   26  C   UNL     1      36.412  18.365  36.945  1.00  0.00     0.153 C 
HETATM   27  C   UNL     1      33.647  15.455  36.974  1.00  0.00     0.153 C 
ENDROOT
BRANCH  16  28
HETATM   28  C   UNL     1      30.465  20.902  34.651  1.00  0.00     0.016 C 
HETATM   29  C   UNL     1      30.815  22.227  35.327  1.00  0.00     0.012 C 
HETATM   30  C   UNL     1      30.625  21.018  33.135  1.00  0.00     0.012 C 
ENDBRANCH  16  28
BRANCH  14  31
HETATM   31  C   UNL     1      35.904  20.528  35.068  1.00  0.00     0.010 C 
HETATM   32  C   UNL     1      35.226  21.196  33.873  1.00  0.00     0.012 C 
HETATM   33  C   UNL     1      37.012  21.420  35.623  1.00  0.00     0.012 C 
ENDBRANCH  14  31
BRANCH  13  34
HETATM   34  C   UNL     1      27.489  17.902  37.697  1.00  0.00     0.010 C 
HETATM   35  C   UNL     1      26.883  18.596  38.916  1.00  0.00     0.012 C 
HETATM   36  C   UNL     1      27.029  16.448  37.626  1.00  0.00     0.012 C 
ENDBRANCH  13  34
BRANCH  18  37
HETATM   37  C   UNL     1      34.622  18.944  40.970  1.00  0.00     0.016 C 
HETATM   38  C   UNL     1      33.582  17.956  41.496  1.00  0.00     0.012 C 
HETATM   39  C   UNL     1      35.771  19.092  41.966  1.00  0.00     0.012 C 
ENDBRANCH  18  37
BRANCH  17  40
HETATM   40  C   UNL     1      29.793  13.709  37.781  1.00  0.00     0.016 C 
HETATM   41  C   UNL     1      30.384  12.335  38.090  1.00  0.00     0.012 C 
HETATM   42  C   UNL     1      28.878  13.638  36.560  1.00  0.00     0.012 C 
ENDBRANCH  17  40
BRANCH  15  43
HETATM   43  C   UNL     1      35.333  13.783  38.825  1.00  0.00     0.010 C 
HETATM   44  C   UNL     1      36.612  14.432  38.303  1.00  0.00     0.012 C 
HETATM   45  C   UNL     1      35.648  12.797  39.946  1.00  0.00     0.012 C 
ENDBRANCH  15  43
TORSDOF 6
ENDMDL
MODEL 5
REMARK VINA RESULT:    -5.092      1.852      2.611
REMARK INTER + INTRA:          -5.401
REMARK INTER:                  -6.226
REMARK INTRA:                   0.826
REMARK UNBOUND:                 1.477
REMARK  6 active torsions:
REMARK  status: ('A' for Active; 'I' for Inactive)
REMARK    1  A    between atoms: C_13  and  C_16 
REMARK    2  A    between atoms: C_14  and  C_17 
REMARK    3  A    between atoms: C_15  and  C_18 
REMARK    4  A    between atoms: C_19  and  C_22 
REMARK    5  A    between atoms: C_20  and  C_23 
REMARK    6  A    between atoms: C_21  and  C_24 
ROOT
HETATM    1  O   UNL     1      39.203  11.155  41.322  1.00  0.00    -0.304 OA
HETATM    2  O   UNL     1      41.181   8.650  37.248  1.00  0.00    -0.304 OA
HETATM    3  O   UNL     1      44.273  10.789  40.115  1.00  0.00    -0.304 OA
HETATM    4  O   UNL     1      40.434   8.938  40.787  1.00  0.00    -0.270 OA
HETATM    5  O   UNL     1      42.314  10.311  42.590  1.00  0.00    -0.270 OA
HETATM    6  O   UNL     1      44.380   8.335  36.830  1.00  0.00    -0.270 OA
HETATM    7  O   UNL     1      40.305  12.367  39.698  1.00  0.00    -0.263 OA
HETATM    8  O   UNL     1      42.131   6.596  37.669  1.00  0.00    -0.263 OA
HETATM    9  O   UNL     1      46.450  11.470  39.848  1.00  0.00    -0.263 OA
HETATM   10  N   UNL     1      39.187   8.338  38.934  1.00  0.00    -0.340 N 
HETATM   11  N   UNL     1      42.322  12.453  41.699  1.00  0.00    -0.340 N 
HETATM   12  N   UNL     1      43.806  10.491  37.490  1.00  0.00    -0.340 N 
HETATM   13  C   UNL     1      40.034   7.145  38.726  1.00  0.00     0.190 C 
HETATM   14  C   UNL     1      40.896  12.631  42.044  1.00  0.00     0.190 C 
HETATM   15  C   UNL     1      45.189  10.824  37.891  1.00  0.00     0.190 C 
HETATM   16  C   UNL     1      38.547  10.335  40.330  1.00  0.00     0.227 C 
HETATM   17  C   UNL     1      42.157   9.051  36.271  1.00  0.00     0.227 C 
HETATM   18  C   UNL     1      44.353  10.987  41.540  1.00  0.00     0.227 C 
HETATM   19  C   UNL     1      39.473   9.151  40.040  1.00  0.00     0.250 C 
HETATM   20  C   UNL     1      42.913  11.212  41.995  1.00  0.00     0.250 C 
HETATM   21  C   UNL     1      43.548   9.245  36.893  1.00  0.00     0.250 C 
HETATM   22  C   UNL     1      40.113  12.068  40.869  1.00  0.00     0.283 C 
HETATM   23  C   UNL     1      41.245   7.426  37.839  1.00  0.00     0.283 C 
HETATM   24  C   UNL     1      45.384  11.080  39.383  1.00  0.00     0.283 C 
HETATM   25  C   UNL     1      38.133   8.610  37.952  1.00  0.00     0.153 C 
HETATM   26  C   UNL     1      43.011  13.568  41.042  1.00  0.00     0.153 C 
HETATM   27  C   UNL     1      42.803  11.554  37.575  1.00  0.00     0.153 C 
ENDROOT
BRANCH  16  28
HETATM   28  C   UNL     1      37.241   9.858  40.948  1.00  0.00     0.016 C 
HETATM   29  C   UNL     1      37.397   9.664  42.456  1.00  0.00     0.012 C 
HETATM   30  C   UNL     1      36.110  10.841  40.650  1.00  0.00     0.012 C 
ENDBRANCH  16  28
BRANCH  14  31
HETATM   31  C   UNL     1      40.453  14.059  42.336  1.00  0.00     0.010 C 
HETATM   32  C   UNL     1      38.979  14.247  41.980  1.00  0.00     0.012 C 
HETATM   33  C   UNL     1      40.699  14.409  43.801  1.00  0.00     0.012 C 
ENDBRANCH  14  31
BRANCH  13  34
HETATM   34  C   UNL     1      39.272   5.934  38.187  1.00  0.00     0.010 C 
HETATM   35  C   UNL     1      39.587   4.688  39.013  1.00  0.00     0.012 C 
HETATM   36  C   UNL     1      39.602   5.698  36.715  1.00  0.00     0.012 C 
ENDBRANCH  13  34
BRANCH  18  37
HETATM   37  C   UNL     1      44.957   9.737  42.174  1.00  0.00     0.016 C 
HETATM   38  C   UNL     1      45.036   8.601  41.155  1.00  0.00     0.012 C 
HETATM   39  C   UNL     1      46.339  10.037  42.750  1.00  0.00     0.012 C 
ENDBRANCH  18  37
BRANCH  17  40
HETATM   40  C   UNL     1      42.176   8.109  35.067  1.00  0.00     0.016 C 
HETATM   41  C   UNL     1      43.238   8.544  34.060  1.00  0.00     0.012 C 
HETATM   42  C   UNL     1      40.800   8.055  34.406  1.00  0.00     0.012 C 
ENDBRANCH  17  40
BRANCH  15  43
HETATM   43  C   UNL     1      45.739  11.992  37.071  1.00  0.00     0.010 C 
HETATM   44  C   UNL     1      47.264  12.018  37.136  1.00  0.00     0.012 C 
HETATM   45  C   UNL     1      45.263  11.899  35.624  1.00  0.00     0.012 C 
ENDBRANCH  15  43
TORSDOF 6
ENDMDL
MODEL 6
REMARK VINA RESULT:    -4.924     14.954     18.535
REMARK INTER + INTRA:          -5.174
REMARK INTER:                  -6.339
REMARK INTRA:                   1.164
REMARK UNBOUND:                 1.477
REMARK  6 active torsions:
REMARK  status: ('A' for Active; 'I' for Inactive)
REMARK    1  A    between atoms: C_13  and  C_16 
REMARK    2  A    between atoms: C_14  and  C_17 
REMARK    3  A    between atoms: C_15  and  C_18 
REMARK    4  A    between atoms: C_19  and  C_22 
REMARK    5  A    between atoms: C_20  and  C_23 
REMARK    6  A    between atoms: C_21  and  C_24 
ROOT
HETATM    1  O   UNL     1      24.872  10.276  42.462  1.00  0.00    -0.304 OA
HETATM    2  O   UNL     1      26.761  11.039  37.705  1.00  0.00    -0.304 OA
HETATM    3  O   UNL     1      22.118  11.733  38.267  1.00  0.00    -0.304 OA
HETATM    4  O   UNL     1      25.506  12.238  40.892  1.00  0.00    -0.270 OA
HETATM    5  O   UNL     1      22.615  12.629  41.291  1.00  0.00    -0.270 OA
HETATM    6  O   UNL     1      24.915  12.190  35.302  1.00  0.00    -0.270 OA
HETATM    7  O   UNL     1      24.169   8.898  40.751  1.00  0.00    -0.263 OA
HETATM    8  O   UNL     1      27.064  13.229  37.061  1.00  0.00    -0.263 OA
HETATM    9  O   UNL     1      20.352  11.799  36.801  1.00  0.00    -0.263 OA
HETATM   10  N   UNL     1      27.548  11.413  40.187  1.00  0.00    -0.340 N 
HETATM   11  N   UNL     1      21.815  10.472  40.989  1.00  0.00    -0.340 N 
HETATM   12  N   UNL     1      23.804  10.563  36.539  1.00  0.00    -0.340 N 
HETATM   13  C   UNL     1      27.726  12.570  39.284  1.00  0.00     0.190 C 
HETATM   14  C   UNL     1      22.544  10.004  42.185  1.00  0.00     0.190 C 
HETATM   15  C   UNL     1      22.478  10.957  36.018  1.00  0.00     0.190 C 
HETATM   16  C   UNL     1      26.237  10.242  41.991  1.00  0.00     0.227 C 
HETATM   17  C   UNL     1      26.307  10.583  36.420  1.00  0.00     0.227 C 
HETATM   18  C   UNL     1      21.303  12.278  39.322  1.00  0.00     0.227 C 
HETATM   19  C   UNL     1      26.391  11.380  40.978  1.00  0.00     0.250 C 
HETATM   20  C   UNL     1      21.967  11.820  40.619  1.00  0.00     0.250 C 
HETATM   21  C   UNL     1      24.953  11.199  36.038  1.00  0.00     0.250 C 
HETATM   22  C   UNL     1      23.936   9.632  41.702  1.00  0.00     0.283 C 
HETATM   23  C   UNL     1      27.135  12.334  37.896  1.00  0.00     0.283 C 
HETATM   24  C   UNL     1      21.520  11.528  37.061  1.00  0.00     0.283 C 
HETATM   25  C   UNL     1      28.573  10.365  40.166  1.00  0.00     0.153 C 
HETATM   26  C   UNL     1      21.013   9.492  40.250  1.00  0.00     0.153 C 
HETATM   27  C   UNL     1      23.864   9.399  37.425  1.00  0.00     0.153 C 
ENDROOT
BRANCH  16  28
HETATM   28  C   UNL     1      27.126  10.477  43.203  1.00  0.00     0.016 C 
HETATM   29  C   UNL     1      26.294  10.920  44.406  1.00  0.00     0.012 C 
HETATM   30  C   UNL     1      27.924   9.218  43.541  1.00  0.00     0.012 C 
ENDBRANCH  16  28
BRANCH  14  31
HETATM   31  C   UNL     1      21.918   8.836  42.935  1.00  0.00     0.010 C 
HETATM   32  C   UNL     1      22.946   8.170  43.847  1.00  0.00     0.012 C 
HETATM   33  C   UNL     1      20.708   9.301  43.742  1.00  0.00     0.012 C 
ENDBRANCH  14  31
BRANCH  13  34
HETATM   34  C   UNL     1      29.177  13.033  39.154  1.00  0.00     0.010 C 
HETATM   35  C   UNL     1      29.292  14.531  39.429  1.00  0.00     0.012 C 
HETATM   36  C   UNL     1      29.728  12.700  37.769  1.00  0.00     0.012 C 
ENDBRANCH  13  34
BRANCH  18  37
HETATM   37  C   UNL     1      21.297  13.799  39.198  1.00  0.00     0.016 C 
HETATM   38  C   UNL     1      20.587  14.434  40.394  1.00  0.00     0.012 C 
HETATM   39  C   UNL     1      22.721  14.337  39.075  1.00  0.00     0.012 C 
ENDBRANCH  18  37
BRANCH  17  40
HETATM   40  C   UNL     1      27.370  10.778  35.339  1.00  0.00     0.016 C 
HETATM   41  C   UNL     1      26.847  10.318  33.981  1.00  0.00     0.012 C 
HETATM   42  C   UNL     1      28.650  10.029  35.703  1.00  0.00     0.012 C 
ENDBRANCH  17  40
BRANCH  15  43
HETATM   43  C   UNL     1      21.817   9.809  35.255  1.00  0.00     0.010 C 
HETATM   44  C   UNL     1      20.729   9.159  36.107  1.00  0.00     0.012 C 
HETATM   45  C   UNL     1      21.240  10.309  33.934  1.00  0.00     0.012 C 
ENDBRANCH  15  43
TORSDOF 6
ENDMDL
MODEL 7
REMARK VINA RESULT:    -4.882     15.971     19.598
REMARK INTER + INTRA:          -5.117
REMARK INTER:                  -5.855
REMARK INTRA:                   0.738
REMARK UNBOUND:                 1.477
REMARK  6 active torsions:
REMARK  status: ('A' for Active; 'I' for Inactive)
REMARK    1  A    between atoms: C_13  and  C_16 
REMARK    2  A    between atoms: C_14  and  C_17 
REMARK    3  A    between atoms: C_15  and  C_18 
REMARK    4  A    between atoms: C_19  and  C_22 
REMARK    5  A    between atoms: C_20  and  C_23 
REMARK    6  A    between atoms: C_21  and  C_24 
ROOT
HETATM    1  O   UNL     1      20.757  11.895  39.551  1.00  0.00    -0.304 OA
HETATM    2  O   UNL     1      25.053  14.537  40.713  1.00  0.00    -0.304 OA
HETATM    3  O   UNL     1      24.934  12.465  36.465  1.00  0.00    -0.304 OA
HETATM    4  O   UNL     1      21.879  14.165  38.994  1.00  0.00    -0.270 OA
HETATM    5  O   UNL     1      21.764  12.831  36.371  1.00  0.00    -0.270 OA
HETATM    6  O   UNL     1      27.423  14.975  38.546  1.00  0.00    -0.270 OA
HETATM    7  O   UNL     1      22.751  10.752  39.737  1.00  0.00    -0.263 OA
HETATM    8  O   UNL     1      25.270  16.618  39.751  1.00  0.00    -0.263 OA
HETATM    9  O   UNL     1      26.567  11.868  34.964  1.00  0.00    -0.263 OA
HETATM   10  N   UNL     1      22.468  14.749  41.153  1.00  0.00    -0.340 N 
HETATM   11  N   UNL     1      22.527  10.705  36.904  1.00  0.00    -0.340 N 
HETATM   12  N   UNL     1      26.626  12.789  38.522  1.00  0.00    -0.340 N 
HETATM   13  C   UNL     1      23.130  15.976  40.661  1.00  0.00     0.190 C 
HETATM   14  C   UNL     1      21.350  10.470  37.767  1.00  0.00     0.190 C 
HETATM   15  C   UNL     1      27.225  12.500  37.202  1.00  0.00     0.190 C 
HETATM   16  C   UNL     1      21.061  12.707  40.706  1.00  0.00     0.227 C 
HETATM   17  C   UNL     1      26.442  14.188  40.592  1.00  0.00     0.227 C 
HETATM   18  C   UNL     1      23.906  12.246  35.481  1.00  0.00     0.227 C 
HETATM   19  C   UNL     1      21.838  13.929  40.207  1.00  0.00     0.250 C 
HETATM   20  C   UNL     1      22.638  11.962  36.283  1.00  0.00     0.250 C 
HETATM   21  C   UNL     1      26.871  14.035  39.126  1.00  0.00     0.250 C 
HETATM   22  C   UNL     1      21.722  11.024  39.132  1.00  0.00     0.283 C 
HETATM   23  C   UNL     1      24.599  15.753  40.304  1.00  0.00     0.283 C 
HETATM   24  C   UNL     1      26.220  12.226  36.085  1.00  0.00     0.283 C 
HETATM   25  C   UNL     1      22.547  14.456  42.587  1.00  0.00     0.153 C 
HETATM   26  C   UNL     1      23.513   9.628  36.783  1.00  0.00     0.153 C 
HETATM   27  C   UNL     1      25.953  11.689  39.215  1.00  0.00     0.153 C 
ENDROOT
BRANCH  16  28
HETATM   28  C   UNL     1      19.730  13.127  41.312  1.00  0.00     0.016 C 
HETATM   29  C   UNL     1      18.578  12.799  40.363  1.00  0.00     0.012 C 
HETATM   30  C   UNL     1      19.515  12.452  42.666  1.00  0.00     0.012 C 
ENDBRANCH  16  28
BRANCH  14  31
HETATM   31  C   UNL     1      20.893   9.023  37.892  1.00  0.00     0.010 C 
HETATM   32  C   UNL     1      20.184   8.797  39.226  1.00  0.00     0.012 C 
HETATM   33  C   UNL     1      19.978   8.645  36.730  1.00  0.00     0.012 C 
ENDBRANCH  14  31
BRANCH  13  34
HETATM   34  C   UNL     1      23.006  17.166  41.611  1.00  0.00     0.010 C 
HETATM   35  C   UNL     1      22.442  18.384  40.879  1.00  0.00     0.012 C 
HETATM   36  C   UNL     1      24.357  17.499  42.241  1.00  0.00     0.012 C 
ENDBRANCH  13  34
BRANCH  18  37
HETATM   37  C   UNL     1      23.765  13.507  34.632  1.00  0.00     0.016 C 
HETATM   38  C   UNL     1      24.600  14.646  35.217  1.00  0.00     0.012 C 
HETATM   39  C   UNL     1      24.174  13.232  33.186  1.00  0.00     0.012 C 
ENDBRANCH  18  37
BRANCH  17  40
HETATM   40  C   UNL     1      27.339  15.150  41.372  1.00  0.00     0.016 C 
HETATM   41  C   UNL     1      28.806  14.746  41.237  1.00  0.00     0.012 C 
HETATM   42  C   UNL     1      26.928  15.196  42.842  1.00  0.00     0.012 C 
ENDBRANCH  17  40
BRANCH  15  43
HETATM   43  C   UNL     1      28.247  11.366  37.292  1.00  0.00     0.010 C 
HETATM   44  C   UNL     1      27.685  10.090  36.671  1.00  0.00     0.012 C 
HETATM   45  C   UNL     1      29.551  11.769  36.609  1.00  0.00     0.012 C 
ENDBRANCH  15  43
TORSDOF 6
ENDMDL
MODEL 8
REMARK VINA RESULT:    -4.834     19.360     23.085
REMARK INTER + INTRA:          -5.052
REMARK INTER:                  -5.920
REMARK INTRA:                   0.868
REMARK UNBOUND:                 1.477
REMARK  6 active torsions:
REMARK  status: ('A' for Active; 'I' for Inactive)
REMARK    1  A    between atoms: C_13  and  C_16 
REMARK    2  A    between atoms: C_14  and  C_17 
REMARK    3  A    between atoms: C_15  and  C_18 
REMARK    4  A    between atoms: C_19  and  C_22 
REMARK    5  A    between atoms: C_20  and  C_23 
REMARK    6  A    between atoms: C_21  and  C_24 
ROOT
HETATM    1  O   UNL     1      29.415  22.730  55.296  1.00  0.00    -0.304 OA
HETATM    2  O   UNL     1      34.018  20.366  55.266  1.00  0.00    -0.304 OA
HETATM    3  O   UNL     1      30.499  18.160  53.007  1.00  0.00    -0.304 OA
HETATM    4  O   UNL     1      31.404  22.324  53.685  1.00  0.00    -0.270 OA
HETATM    5  O   UNL     1      29.170  20.980  52.317  1.00  0.00    -0.270 OA
HETATM    6  O   UNL     1      34.530  17.654  53.565  1.00  0.00    -0.270 OA
HETATM    7  O   UNL     1      29.627  20.694  56.359  1.00  0.00    -0.263 OA
HETATM    8  O   UNL     1      35.240  20.523  53.320  1.00  0.00    -0.263 OA
HETATM    9  O   UNL     1      30.178  15.984  52.346  1.00  0.00    -0.263 OA
HETATM   10  N   UNL     1      33.104  22.830  55.170  1.00  0.00    -0.340 N 
HETATM   11  N   UNL     1      28.203  19.802  54.066  1.00  0.00    -0.340 N 
HETATM   12  N   UNL     1      32.500  17.589  54.700  1.00  0.00    -0.340 N 
HETATM   13  C   UNL     1      34.121  22.491  54.152  1.00  0.00     0.190 C 
HETATM   14  C   UNL     1      27.840  21.061  54.749  1.00  0.00     0.190 C 
HETATM   15  C   UNL     1      31.983  16.477  53.875  1.00  0.00     0.190 C 
HETATM   16  C   UNL     1      30.691  23.180  55.802  1.00  0.00     0.227 C 
HETATM   17  C   UNL     1      34.387  19.005  55.546  1.00  0.00     0.227 C 
HETATM   18  C   UNL     1      29.385  18.601  52.207  1.00  0.00     0.227 C 
HETATM   19  C   UNL     1      31.756  22.737  54.796  1.00  0.00     0.250 C 
HETATM   20  C   UNL     1      28.913  19.899  52.856  1.00  0.00     0.250 C 
HETATM   21  C   UNL     1      33.821  18.030  54.503  1.00  0.00     0.250 C 
HETATM   22  C   UNL     1      29.051  21.444  55.582  1.00  0.00     0.283 C 
HETATM   23  C   UNL     1      34.515  21.015  54.179  1.00  0.00     0.283 C 
HETATM   24  C   UNL     1      30.781  16.828  53.002  1.00  0.00     0.283 C 
HETATM   25  C   UNL     1      33.573  23.203  56.507  1.00  0.00     0.153 C 
HETATM   26  C   UNL     1      27.831  18.540  54.714  1.00  0.00     0.153 C 
HETATM   27  C   UNL     1      31.664  18.057  55.807  1.00  0.00     0.153 C 
ENDROOT
BRANCH  16  28
HETATM   28  C   UNL     1      30.623  24.698  55.881  1.00  0.00     0.016 C 
HETATM   29  C   UNL     1      30.834  25.320  54.501  1.00  0.00     0.012 C 
HETATM   30  C   UNL     1      29.287  25.150  56.471  1.00  0.00     0.012 C 
ENDBRANCH  16  28
BRANCH  14  31
HETATM   31  C   UNL     1      26.594  21.011  55.624  1.00  0.00     0.010 C 
HETATM   32  C   UNL     1      26.587  22.172  56.616  1.00  0.00     0.012 C 
HETATM   33  C   UNL     1      25.332  21.033  54.765  1.00  0.00     0.012 C 
ENDBRANCH  14  31
BRANCH  13  34
HETATM   34  C   UNL     1      35.375  23.361  54.220  1.00  0.00     0.010 C 
HETATM   35  C   UNL     1      35.636  24.038  52.875  1.00  0.00     0.012 C 
HETATM   36  C   UNL     1      36.586  22.532  54.644  1.00  0.00     0.012 C 
ENDBRANCH  13  34
BRANCH  18  37
HETATM   37  C   UNL     1      29.871  18.829  50.778  1.00  0.00     0.016 C 
HETATM   38  C   UNL     1      31.398  18.778  50.713  1.00  0.00     0.012 C 
HETATM   39  C   UNL     1      29.261  17.800  49.828  1.00  0.00     0.012 C 
ENDBRANCH  18  37
BRANCH  17  40
HETATM   40  C   UNL     1      35.896  18.853  55.738  1.00  0.00     0.016 C 
HETATM   41  C   UNL     1      36.259  17.395  56.013  1.00  0.00     0.012 C 
HETATM   42  C   UNL     1      36.387  19.751  56.871  1.00  0.00     0.012 C 
ENDBRANCH  17  40
BRANCH  15  43
HETATM   43  C   UNL     1      31.682  15.245  54.730  1.00  0.00     0.010 C 
HETATM   44  C   UNL     1      30.179  15.103  54.951  1.00  0.00     0.012 C 
HETATM   45  C   UNL     1      32.251  13.990  54.075  1.00  0.00     0.012 C 
ENDBRANCH  15  43
TORSDOF 6
ENDMDL
MODEL 9
REMARK VINA RESULT:    -4.820     17.080     20.722
REMARK INTER + INTRA:          -5.033
REMARK INTER:                  -5.761
REMARK INTRA:                   0.727
REMARK UNBOUND:                 1.477
REMARK  6 active torsions:
REMARK  status: ('A' for Active; 'I' for Inactive)
REMARK    1  A    between atoms: C_13  and  C_16 
REMARK    2  A    between atoms: C_14  and  C_17 
REMARK    3  A    between atoms: C_15  and  C_18 
REMARK    4  A    between atoms: C_19  and  C_22 
REMARK    5  A    between atoms: C_20  and  C_23 
REMARK    6  A    between atoms: C_21  and  C_24 
ROOT
HETATM    1  O   UNL     1      24.715  12.052  35.721  1.00  0.00    -0.304 OA
HETATM    2  O   UNL     1      20.573   9.706  37.751  1.00  0.00    -0.304 OA
HETATM    3  O   UNL     1      22.810  12.812  40.527  1.00  0.00    -0.304 OA
HETATM    4  O   UNL     1      22.232  12.567  36.257  1.00  0.00    -0.270 OA
HETATM    5  O   UNL     1      23.680  14.490  37.954  1.00  0.00    -0.270 OA
HETATM    6  O   UNL     1      19.414  10.517  40.668  1.00  0.00    -0.270 OA
HETATM    7  O   UNL     1      25.003  10.656  37.534  1.00  0.00    -0.263 OA
HETATM    8  O   UNL     1      18.633  10.944  37.840  1.00  0.00    -0.263 OA
HETATM    9  O   UNL     1      22.842  13.148  42.798  1.00  0.00    -0.263 OA
HETATM   10  N   UNL     1      21.327  10.618  35.402  1.00  0.00    -0.340 N 
HETATM   11  N   UNL     1      25.318  13.137  38.886  1.00  0.00    -0.340 N 
HETATM   12  N   UNL     1      21.735  10.358  40.677  1.00  0.00    -0.340 N 
HETATM   13  C   UNL     1      19.976  11.030  35.838  1.00  0.00     0.190 C 
HETATM   14  C   UNL     1      25.924  12.909  37.557  1.00  0.00     0.190 C 
HETATM   15  C   UNL     1      21.862  11.112  41.941  1.00  0.00     0.190 C 
HETATM   16  C   UNL     1      23.774  11.141  35.111  1.00  0.00     0.227 C 
HETATM   17  C   UNL     1      20.376   9.059  39.020  1.00  0.00     0.227 C 
HETATM   18  C   UNL     1      23.467  14.073  40.299  1.00  0.00     0.227 C 
HETATM   19  C   UNL     1      22.386  11.505  35.644  1.00  0.00     0.250 C 
HETATM   20  C   UNL     1      24.157  13.927  38.944  1.00  0.00     0.250 C 
HETATM   21  C   UNL     1      20.452  10.052  40.189  1.00  0.00     0.250 C 
HETATM   22  C   UNL     1      25.182  11.723  36.963  1.00  0.00     0.283 C 
HETATM   23  C   UNL     1      19.649  10.576  37.260  1.00  0.00     0.283 C 
HETATM   24  C   UNL     1      22.569  12.460  41.820  1.00  0.00     0.283 C 
HETATM   25  C   UNL     1      21.473   9.298  34.782  1.00  0.00     0.153 C 
HETATM   26  C   UNL     1      25.947  12.495  40.044  1.00  0.00     0.153 C 
HETATM   27  C   UNL     1      22.959   9.814  40.087  1.00  0.00     0.153 C 
ENDROOT
BRANCH  16  28
HETATM   28  C   UNL     1      23.851  11.370  33.609  1.00  0.00     0.016 C 
HETATM   29  C   UNL     1      23.993  12.860  33.297  1.00  0.00     0.012 C 
HETATM   30  C   UNL     1      25.012  10.584  33.000  1.00  0.00     0.012 C 
ENDBRANCH  16  28
BRANCH  14  31
HETATM   31  C   UNL     1      27.425  12.651  37.543  1.00  0.00     0.010 C 
HETATM   32  C   UNL     1      27.834  11.931  36.260  1.00  0.00     0.012 C 
HETATM   33  C   UNL     1      28.196  13.960  37.693  1.00  0.00     0.012 C 
ENDBRANCH  14  31
BRANCH  13  34
HETATM   34  C   UNL     1      18.862  10.593  34.889  1.00  0.00     0.010 C 
HETATM   35  C   UNL     1      18.000  11.788  34.481  1.00  0.00     0.012 C 
HETATM   36  C   UNL     1      18.000   9.507  35.530  1.00  0.00     0.012 C 
ENDBRANCH  13  34
BRANCH  18  37
HETATM   37  C   UNL     1      22.413  15.176  40.280  1.00  0.00     0.016 C 
HETATM   38  C   UNL     1      21.007  14.578  40.220  1.00  0.00     0.012 C 
HETATM   39  C   UNL     1      22.557  16.083  41.500  1.00  0.00     0.012 C 
ENDBRANCH  18  37
BRANCH  17  40
HETATM   40  C   UNL     1      19.097   8.222  39.039  1.00  0.00     0.016 C 
HETATM   41  C   UNL     1      18.953   7.490  40.371  1.00  0.00     0.012 C 
HETATM   42  C   UNL     1      19.087   7.230  37.877  1.00  0.00     0.012 C 
ENDBRANCH  17  40
BRANCH  15  43
HETATM   43  C   UNL     1      22.515  10.261  43.032  1.00  0.00     0.010 C 
HETATM   44  C   UNL     1      23.986  10.636  43.191  1.00  0.00     0.012 C 
HETATM   45  C   UNL     1      21.771  10.426  44.354  1.00  0.00     0.012 C 
ENDBRANCH  15  43
TORSDOF 6
ENDMDL
MODEL 10
REMARK VINA RESULT:    -4.791      9.813     11.766
REMARK INTER + INTRA:          -4.995
REMARK INTER:                  -5.885
REMARK INTRA:                   0.890
REMARK UNBOUND:                 1.477
REMARK  6 active torsions:
REMARK  status: ('A' for Active; 'I' for Inactive)
REMARK    1  A    between atoms: C_13  and  C_16 
REMARK    2  A    between atoms: C_14  and  C_17 
REMARK    3  A    between atoms: C_15  and  C_18 
REMARK    4  A    between atoms: C_19  and  C_22 
REMARK    5  A    between atoms: C_20  and  C_23 
REMARK    6  A    between atoms: C_21  and  C_24 
ROOT
HETATM    1  O   UNL     1      34.199  16.477  40.574  1.00  0.00    -0.304 OA
HETATM    2  O   UNL     1      31.790  15.798  36.044  1.00  0.00    -0.304 OA
HETATM    3  O   UNL     1      35.263  19.005  36.127  1.00  0.00    -0.304 OA
HETATM    4  O   UNL     1      34.604  15.327  38.286  1.00  0.00    -0.270 OA
HETATM    5  O   UNL     1      36.757  17.333  38.400  1.00  0.00    -0.270 OA
HETATM    6  O   UNL     1      32.782  17.293  33.345  1.00  0.00    -0.270 OA
HETATM    7  O   UNL     1      32.991  18.227  39.683  1.00  0.00    -0.263 OA
HETATM    8  O   UNL     1      32.907  14.551  34.464  1.00  0.00    -0.263 OA
HETATM    9  O   UNL     1      35.801  20.771  34.762  1.00  0.00    -0.263 OA
HETATM   10  N   UNL     1      32.534  14.316  38.085  1.00  0.00    -0.340 N 
HETATM   11  N   UNL     1      35.597  19.211  39.116  1.00  0.00    -0.340 N 
HETATM   12  N   UNL     1      32.771  18.733  35.172  1.00  0.00    -0.340 N 
HETATM   13  C   UNL     1      32.899  13.790  36.753  1.00  0.00     0.190 C 
HETATM   14  C   UNL     1      35.290  18.562  40.407  1.00  0.00     0.190 C 
HETATM   15  C   UNL     1      33.640  19.722  34.502  1.00  0.00     0.190 C 
HETATM   16  C   UNL     1      33.181  15.523  40.200  1.00  0.00     0.227 C 
HETATM   17  C   UNL     1      31.247  16.745  35.108  1.00  0.00     0.227 C 
HETATM   18  C   UNL     1      36.538  19.090  36.792  1.00  0.00     0.227 C 
HETATM   19  C   UNL     1      33.503  15.055  38.778  1.00  0.00     0.250 C 
HETATM   20  C   UNL     1      36.316  18.463  38.167  1.00  0.00     0.250 C 
HETATM   21  C   UNL     1      32.342  17.602  34.457  1.00  0.00     0.250 C 
HETATM   22  C   UNL     1      34.013  17.772  40.180  1.00  0.00     0.283 C 
HETATM   23  C   UNL     1      32.553  14.755  35.621  1.00  0.00     0.283 C 
HETATM   24  C   UNL     1      35.014  19.911  35.142  1.00  0.00     0.283 C 
HETATM   25  C   UNL     1      31.176  14.061  38.574  1.00  0.00     0.153 C 
HETATM   26  C   UNL     1      35.101  20.574  38.899  1.00  0.00     0.153 C 
HETATM   27  C   UNL     1      32.253  19.076  36.499  1.00  0.00     0.153 C 
ENDROOT
BRANCH  16  28
HETATM   28  C   UNL     1      33.280  14.365  41.182  1.00  0.00     0.016 C 
HETATM   29  C   UNL     1      34.611  14.407  41.933  1.00  0.00     0.012 C 
HETATM   30  C   UNL     1      32.111  14.390  42.166  1.00  0.00     0.012 C 
ENDBRANCH  16  28
BRANCH  14  31
HETATM   31  C   UNL     1      35.126  19.495  41.601  1.00  0.00     0.010 C 
HETATM   32  C   UNL     1      34.434  18.773  42.755  1.00  0.00     0.012 C 
HETATM   33  C   UNL     1      36.480  20.042  42.046  1.00  0.00     0.012 C 
ENDBRANCH  14  31
BRANCH  13  34
HETATM   34  C   UNL     1      32.310  12.412  36.452  1.00  0.00     0.010 C 
HETATM   35  C   UNL     1      33.408  11.437  36.026  1.00  0.00     0.012 C 
HETATM   36  C   UNL     1      31.233  12.507  35.374  1.00  0.00     0.012 C 
ENDBRANCH  13  34
BRANCH  18  37
HETATM   37  C   UNL     1      37.567  18.312  35.977  1.00  0.00     0.016 C 
HETATM   38  C   UNL     1      36.880  17.485  34.890  1.00  0.00     0.012 C 
HETATM   39  C   UNL     1      38.595  19.258  35.360  1.00  0.00     0.012 C 
ENDBRANCH  18  37
BRANCH  17  40
HETATM   40  C   UNL     1      30.337  16.070  34.082  1.00  0.00     0.016 C 
HETATM   41  C   UNL     1      29.785  17.097  33.095  1.00  0.00     0.012 C 
HETATM   42  C   UNL     1      29.197  15.330  34.779  1.00  0.00     0.012 C 
ENDBRANCH  17  40
BRANCH  15  43
HETATM   43  C   UNL     1      32.932  21.069  34.345  1.00  0.00     0.010 C 
HETATM   44  C   UNL     1      33.328  21.729  33.026  1.00  0.00     0.012 C 
HETATM   45  C   UNL     1      31.420  20.889  34.424  1.00  0.00     0.012 C 
ENDBRANCH  15  43
TORSDOF 6
ENDMDL
MODEL 11
REMARK VINA RESULT:    -4.781     15.762     19.400
REMARK INTER + INTRA:          -4.982
REMARK INTER:                  -5.812
REMARK INTRA:                   0.830
REMARK UNBOUND:                 1.477
REMARK  6 active torsions:
REMARK  status: ('A' for Active; 'I' for Inactive)
REMARK    1  A    between atoms: C_13  and  C_16 
REMARK    2  A    between atoms: C_14  and  C_17 
REMARK    3  A    between atoms: C_15  and  C_18 
REMARK    4  A    between atoms: C_19  and  C_22 
REMARK    5  A    between atoms: C_20  and  C_23 
REMARK    6  A    between atoms: C_21  and  C_24 
ROOT
HETATM    1  O   UNL     1      26.841  11.948  40.438  1.00  0.00    -0.304 OA
HETATM    2  O   UNL     1      24.212  12.079  35.983  1.00  0.00    -0.304 OA
HETATM    3  O   UNL     1      21.641  11.825  39.943  1.00  0.00    -0.304 OA
HETATM    4  O   UNL     1      25.456  13.620  39.023  1.00  0.00    -0.270 OA
HETATM    5  O   UNL     1      23.904  13.434  41.519  1.00  0.00    -0.270 OA
HETATM    6  O   UNL     1      20.976  12.249  35.918  1.00  0.00    -0.270 OA
HETATM    7  O   UNL     1      25.576  10.115  39.839  1.00  0.00    -0.263 OA
HETATM    8  O   UNL     1      23.245  14.091  35.421  1.00  0.00    -0.263 OA
HETATM    9  O   UNL     1      19.479  11.181  40.372  1.00  0.00    -0.263 OA
HETATM   10  N   UNL     1      26.407  13.140  36.970  1.00  0.00    -0.340 N 
HETATM   11  N   UNL     1      23.862  11.139  41.862  1.00  0.00    -0.340 N 
HETATM   12  N   UNL     1      21.726  10.718  37.500  1.00  0.00    -0.340 N 
HETATM   13  C   UNL     1      25.490  14.087  36.302  1.00  0.00     0.190 C 
HETATM   14  C   UNL     1      25.328  11.113  42.045  1.00  0.00     0.190 C 
HETATM   15  C   UNL     1      20.428  10.687  38.205  1.00  0.00     0.190 C 
HETATM   16  C   UNL     1      27.318  12.119  39.086  1.00  0.00     0.227 C 
HETATM   17  C   UNL     1      23.128  11.269  35.498  1.00  0.00     0.227 C 
HETATM   18  C   UNL     1      21.769  12.387  41.262  1.00  0.00     0.227 C 
HETATM   19  C   UNL     1      26.312  13.019  38.364  1.00  0.00     0.250 C 
HETATM   20  C   UNL     1      23.267  12.377  41.560  1.00  0.00     0.250 C 
HETATM   21  C   UNL     1      21.847  11.471  36.320  1.00  0.00     0.250 C 
HETATM   22  C   UNL     1      25.916  10.965  40.651  1.00  0.00     0.283 C 
HETATM   23  C   UNL     1      24.180  13.434  35.865  1.00  0.00     0.283 C 
HETATM   24  C   UNL     1      20.453  11.239  39.628  1.00  0.00     0.283 C 
HETATM   25  C   UNL     1      27.325  12.366  36.129  1.00  0.00     0.153 C 
HETATM   26  C   UNL     1      23.136   9.871  41.973  1.00  0.00     0.153 C 
HETATM   27  C   UNL     1      22.775   9.813  37.975  1.00  0.00     0.153 C 
ENDROOT
BRANCH  16  28
HETATM   28  C   UNL     1      28.676  12.799  39.181  1.00  0.00     0.016 C 
HETATM   29  C   UNL     1      28.882  13.400  40.571  1.00  0.00     0.012 C 
HETATM   30  C   UNL     1      29.798  11.815  38.853  1.00  0.00     0.012 C 
ENDBRANCH  16  28
BRANCH  14  31
HETATM   31  C   UNL     1      25.868  10.022  42.961  1.00  0.00     0.010 C 
HETATM   32  C   UNL     1      27.336   9.738  42.652  1.00  0.00     0.012 C 
HETATM   33  C   UNL     1      25.694  10.416  44.426  1.00  0.00     0.012 C 
ENDBRANCH  14  31
BRANCH  13  34
HETATM   34  C   UNL     1      26.118  14.822  35.118  1.00  0.00     0.010 C 
HETATM   35  C   UNL     1      26.022  16.335  35.310  1.00  0.00     0.012 C 
HETATM   36  C   UNL     1      25.453  14.406  33.808  1.00  0.00     0.012 C 
ENDBRANCH  13  34
BRANCH  18  37
HETATM   37  C   UNL     1      21.208  13.807  41.245  1.00  0.00     0.016 C 
HETATM   38  C   UNL     1      21.008  14.289  39.808  1.00  0.00     0.012 C 
HETATM   39  C   UNL     1      19.894  13.878  42.021  1.00  0.00     0.012 C 
ENDBRANCH  18  37
BRANCH  17  40
HETATM   40  C   UNL     1      22.902  11.460  33.998  1.00  0.00     0.016 C 
HETATM   41  C   UNL     1      21.728  10.610  33.517  1.00  0.00     0.012 C 
HETATM   42  C   UNL     1      24.169  11.117  33.216  1.00  0.00     0.012 C 
ENDBRANCH  17  40
BRANCH  15  43
HETATM   43  C   UNL     1      19.818   9.284  38.186  1.00  0.00     0.010 C 
HETATM   44  C   UNL     1      19.822   8.720  36.767  1.00  0.00     0.012 C 
HETATM   45  C   UNL     1      20.575   8.360  39.135  1.00  0.00     0.012 C 
ENDBRANCH  15  43
TORSDOF 6
ENDMDL
MODEL 12
REMARK VINA RESULT:    -4.781     15.914     19.923
REMARK INTER + INTRA:          -4.981
REMARK INTER:                  -5.666
REMARK INTRA:                   0.685
REMARK UNBOUND:                 1.477
REMARK  6 active torsions:
REMARK  status: ('A' for Active; 'I' for Inactive)
REMARK    1  A    between atoms: C_13  and  C_16 
REMARK    2  A    between atoms: C_14  and  C_17 
REMARK    3  A    between atoms: C_15  and  C_18 
REMARK    4  A    between atoms: C_19  and  C_22 
REMARK    5  A    between atoms: C_20  and  C_23 
REMARK    6  A    between atoms: C_21  and  C_24 
ROOT
HETATM    1  O   UNL     1      22.385  10.896  35.667  1.00  0.00    -0.304 OA
HETATM    2  O   UNL     1      26.046  12.455  38.977  1.00  0.00    -0.304 OA
HETATM    3  O   UNL     1      22.142  10.583  40.877  1.00  0.00    -0.304 OA
HETATM    4  O   UNL     1      24.236   9.880  37.171  1.00  0.00    -0.270 OA
HETATM    5  O   UNL     1      21.772   8.732  38.303  1.00  0.00    -0.270 OA
HETATM    6  O   UNL     1      25.795  11.932  42.166  1.00  0.00    -0.270 OA
HETATM    7  O   UNL     1      21.914  12.630  37.113  1.00  0.00    -0.263 OA
HETATM    8  O   UNL     1      27.355  10.806  39.910  1.00  0.00    -0.263 OA
HETATM    9  O   UNL     1      21.209  10.693  42.973  1.00  0.00    -0.263 OA
HETATM   10  N   UNL     1      25.931  11.344  36.595  1.00  0.00    -0.340 N 
HETATM   11  N   UNL     1      20.404  10.603  38.414  1.00  0.00    -0.340 N 
HETATM   12  N   UNL     1      23.786  12.670  41.253  1.00  0.00    -0.340 N 
HETATM   13  C   UNL     1      26.847  10.692  37.555  1.00  0.00     0.190 C 
HETATM   14  C   UNL     1      20.407  10.727  36.942  1.00  0.00     0.190 C 
HETATM   15  C   UNL     1      22.997  12.221  42.419  1.00  0.00     0.190 C 
HETATM   16  C   UNL     1      23.710  11.410  35.409  1.00  0.00     0.227 C 
HETATM   17  C   UNL     1      25.968  13.255  40.169  1.00  0.00     0.227 C 
HETATM   18  C   UNL     1      21.258   9.509  40.506  1.00  0.00     0.227 C 
HETATM   19  C   UNL     1      24.640  10.813  36.468  1.00  0.00     0.250 C 
HETATM   20  C   UNL     1      21.171   9.570  38.982  1.00  0.00     0.250 C 
HETATM   21  C   UNL     1      25.186  12.548  41.285  1.00  0.00     0.250 C 
HETATM   22  C   UNL     1      21.633  11.555  36.599  1.00  0.00     0.283 C 
HETATM   23  C   UNL     1      26.772  11.304  38.953  1.00  0.00     0.283 C 
HETATM   24  C   UNL     1      22.005  11.096  42.132  1.00  0.00     0.283 C 
HETATM   25  C   UNL     1      26.422  12.520  35.871  1.00  0.00     0.153 C 
HETATM   26  C   UNL     1      19.633  11.586  39.182  1.00  0.00     0.153 C 
HETATM   27  C   UNL     1      23.076  13.387  40.192  1.00  0.00     0.153 C 
ENDROOT
BRANCH  16  28
HETATM   28  C   UNL     1      24.103  10.934  34.018  1.00  0.00     0.016 C 
HETATM   29  C   UNL     1      23.253   9.735  33.598  1.00  0.00     0.012 C 
HETATM   30  C   UNL     1      23.969  12.066  33.001  1.00  0.00     0.012 C 
ENDBRANCH  16  28
BRANCH  14  31
HETATM   31  C   UNL     1      19.162  11.348  36.321  1.00  0.00     0.010 C 
HETATM   32  C   UNL     1      19.447  11.811  34.894  1.00  0.00     0.012 C 
HETATM   33  C   UNL     1      18.000  10.357  36.341  1.00  0.00     0.012 C 
ENDBRANCH  14  31
BRANCH  13  34
HETATM   34  C   UNL     1      28.302  10.651  37.089  1.00  0.00     0.010 C 
HETATM   35  C   UNL     1      28.837   9.220  37.118  1.00  0.00     0.012 C 
HETATM   36  C   UNL     1      29.172  11.565  37.949  1.00  0.00     0.012 C 
ENDBRANCH  13  34
BRANCH  18  37
HETATM   37  C   UNL     1      21.862   8.191  40.983  1.00  0.00     0.016 C 
HETATM   38  C   UNL     1      23.315   8.391  41.416  1.00  0.00     0.012 C 
HETATM   39  C   UNL     1      21.039   7.602  42.127  1.00  0.00     0.012 C 
ENDBRANCH  18  37
BRANCH  17  40
HETATM   40  C   UNL     1      27.348  13.731  40.625  1.00  0.00     0.016 C 
HETATM   41  C   UNL     1      27.234  14.571  41.894  1.00  0.00     0.012 C 
HETATM   42  C   UNL     1      28.036  14.524  39.515  1.00  0.00     0.012 C 
ENDBRANCH  17  40
BRANCH  15  43
HETATM   43  C   UNL     1      22.293  13.395  43.100  1.00  0.00     0.010 C 
HETATM   44  C   UNL     1      20.806  13.397  42.756  1.00  0.00     0.012 C 
HETATM   45  C   UNL     1      22.497  13.336  44.611  1.00  0.00     0.012 C 
ENDBRANCH  15  43
TORSDOF 6
ENDMDL
MODEL 13
REMARK VINA RESULT:    -4.772     23.933     28.387
REMARK INTER + INTRA:          -4.969
REMARK INTER:                  -5.867
REMARK INTRA:                   0.898
REMARK UNBOUND:                 1.477
REMARK  6 active torsions:
REMARK  status: ('A' for Active; 'I' for Inactive)
REMARK    1  A    between atoms: C_13  and  C_16 
REMARK    2  A    between atoms: C_14  and  C_17 
REMARK    3  A    between atoms: C_15  and  C_18 
REMARK    4  A    between atoms: C_19  and  C_22 
REMARK    5  A    between atoms: C_20  and  C_23 
REMARK    6  A    between atoms: C_21  and  C_24 
ROOT
HETATM    1  O   UNL     1      32.318  25.742  56.027  1.00  0.00    -0.304 OA
HETATM    2  O   UNL     1      28.831  22.217  57.512  1.00  0.00    -0.304 OA
HETATM    3  O   UNL     1      27.507  26.747  57.800  1.00  0.00    -0.304 OA
HETATM    4  O   UNL     1      30.156  24.621  55.138  1.00  0.00    -0.270 OA
HETATM    5  O   UNL     1      29.392  27.459  55.324  1.00  0.00    -0.270 OA
HETATM    6  O   UNL     1      25.811  23.052  58.341  1.00  0.00    -0.270 OA
HETATM    7  O   UNL     1      31.646  25.701  58.232  1.00  0.00    -0.263 OA
HETATM    8  O   UNL     1      27.135  21.761  56.024  1.00  0.00    -0.263 OA
HETATM    9  O   UNL     1      25.857  27.828  58.976  1.00  0.00    -0.263 OA
HETATM   10  N   UNL     1      30.702  22.440  55.677  1.00  0.00    -0.340 N 
HETATM   11  N   UNL     1      30.214  28.019  57.421  1.00  0.00    -0.340 N 
HETATM   12  N   UNL     1      27.386  24.498  59.258  1.00  0.00    -0.340 N 
HETATM   13  C   UNL     1      29.388  21.969  55.189  1.00  0.00     0.190 C 
HETATM   14  C   UNL     1      31.601  27.782  56.971  1.00  0.00     0.190 C 
HETATM   15  C   UNL     1      26.379  25.539  59.550  1.00  0.00     0.190 C 
HETATM   16  C   UNL     1      32.376  24.300  55.970  1.00  0.00     0.227 C 
HETATM   17  C   UNL     1      28.004  22.138  58.686  1.00  0.00     0.227 C 
HETATM   18  C   UNL     1      27.742  27.917  56.994  1.00  0.00     0.227 C 
HETATM   19  C   UNL     1      30.984  23.808  55.564  1.00  0.00     0.250 C 
HETATM   20  C   UNL     1      29.180  27.779  56.498  1.00  0.00     0.250 C 
HETATM   21  C   UNL     1      26.962  23.265  58.732  1.00  0.00     0.250 C 
HETATM   22  C   UNL     1      31.858  26.300  57.186  1.00  0.00     0.283 C 
HETATM   23  C   UNL     1      28.314  21.984  56.275  1.00  0.00     0.283 C 
HETATM   24  C   UNL     1      26.550  26.838  58.765  1.00  0.00     0.283 C 
HETATM   25  C   UNL     1      31.603  21.452  56.278  1.00  0.00     0.153 C 
HETATM   26  C   UNL     1      30.008  28.451  58.807  1.00  0.00     0.153 C 
HETATM   27  C   UNL     1      28.760  24.742  59.701  1.00  0.00     0.153 C 
ENDROOT
BRANCH  16  28
HETATM   28  C   UNL     1      33.404  23.942  54.906  1.00  0.00     0.016 C 
HETATM   29  C   UNL     1      33.512  25.055  53.865  1.00  0.00     0.012 C 
HETATM   30  C   UNL     1      34.767  23.671  55.542  1.00  0.00     0.012 C 
ENDBRANCH  16  28
BRANCH  14  31
HETATM   31  C   UNL     1      32.678  28.609  57.661  1.00  0.00     0.010 C 
HETATM   32  C   UNL     1      34.028  27.899  57.590  1.00  0.00     0.012 C 
HETATM   33  C   UNL     1      32.770  29.999  57.038  1.00  0.00     0.012 C 
ENDBRANCH  14  31
BRANCH  13  34
HETATM   34  C   UNL     1      29.433  20.592  54.529  1.00  0.00     0.010 C 
HETATM   35  C   UNL     1      28.845  20.651  53.119  1.00  0.00     0.012 C 
HETATM   36  C   UNL     1      28.690  19.561  55.376  1.00  0.00     0.012 C 
ENDBRANCH  13  34
BRANCH  18  37
HETATM   37  C   UNL     1      26.745  27.923  55.839  1.00  0.00     0.016 C 
HETATM   38  C   UNL     1      25.858  26.679  55.887  1.00  0.00     0.012 C 
HETATM   39  C   UNL     1      25.893  29.190  55.866  1.00  0.00     0.012 C 
ENDBRANCH  18  37
BRANCH  17  40
HETATM   40  C   UNL     1      27.382  20.751  58.849  1.00  0.00     0.016 C 
HETATM   41  C   UNL     1      26.493  20.703  60.090  1.00  0.00     0.012 C 
HETATM   42  C   UNL     1      28.468  19.680  58.924  1.00  0.00     0.012 C 
ENDBRANCH  17  40
BRANCH  15  43
HETATM   43  C   UNL     1      26.296  25.827  61.049  1.00  0.00     0.010 C 
HETATM   44  C   UNL     1      25.002  26.566  61.380  1.00  0.00     0.012 C 
HETATM   45  C   UNL     1      26.396  24.531  61.848  1.00  0.00     0.012 C 
ENDBRANCH  15  43
TORSDOF 6
ENDMDL
MODEL 14
REMARK VINA RESULT:    -4.762     19.312     24.080
REMARK INTER + INTRA:          -4.955
REMARK INTER:                  -5.656
REMARK INTRA:                   0.701
REMARK UNBOUND:                 1.477
REMARK  6 active torsions:
REMARK  status: ('A' for Active; 'I' for Inactive)
REMARK    1  A    between atoms: C_13  and  C_16 
REMARK    2  A    between atoms: C_14  and  C_17 
REMARK    3  A    between atoms: C_15  and  C_18 
REMARK    4  A    between atoms: C_19  and  C_22 
REMARK    5  A    between atoms: C_20  and  C_23 
REMARK    6  A    between atoms: C_21  and  C_24 
ROOT
HETATM    1  O   UNL     1      35.785  22.054  55.918  1.00  0.00    -0.304 OA
HETATM    2  O   UNL     1      31.307  19.732  54.762  1.00  0.00    -0.304 OA
HETATM    3  O   UNL     1      31.140  24.404  55.471  1.00  0.00    -0.304 OA
HETATM    4  O   UNL     1      34.180  21.774  53.902  1.00  0.00    -0.270 OA
HETATM    5  O   UNL     1      34.128  24.679  54.381  1.00  0.00    -0.270 OA
HETATM    6  O   UNL     1      28.583  21.424  54.285  1.00  0.00    -0.270 OA
HETATM    7  O   UNL     1      34.098  22.043  57.491  1.00  0.00    -0.263 OA
HETATM    8  O   UNL     1      30.550  19.979  52.601  1.00  0.00    -0.263 OA
HETATM    9  O   UNL     1      29.433  25.855  55.977  1.00  0.00    -0.263 OA
HETATM   10  N   UNL     1      33.841  19.495  54.099  1.00  0.00    -0.340 N 
HETATM   11  N   UNL     1      33.876  24.759  56.686  1.00  0.00    -0.340 N 
HETATM   12  N   UNL     1      29.765  22.197  56.133  1.00  0.00    -0.340 N 
HETATM   13  C   UNL     1      32.889  19.519  52.968  1.00  0.00     0.190 C 
HETATM   14  C   UNL     1      35.196  24.126  56.880  1.00  0.00     0.190 C 
HETATM   15  C   UNL     1      29.031  23.479  56.168  1.00  0.00     0.190 C 
HETATM   16  C   UNL     1      35.520  20.681  55.556  1.00  0.00     0.227 C 
HETATM   17  C   UNL     1      30.007  19.823  55.370  1.00  0.00     0.227 C 
HETATM   18  C   UNL     1      32.022  25.500  55.164  1.00  0.00     0.227 C 
HETATM   19  C   UNL     1      34.457  20.703  54.454  1.00  0.00     0.250 C 
HETATM   20  C   UNL     1      33.432  24.948  55.365  1.00  0.00     0.250 C 
HETATM   21  C   UNL     1      29.388  21.218  55.198  1.00  0.00     0.250 C 
HETATM   22  C   UNL     1      34.948  22.628  56.833  1.00  0.00     0.283 C 
HETATM   23  C   UNL     1      31.452  19.787  53.410  1.00  0.00     0.283 C 
HETATM   24  C   UNL     1      29.879  24.716  55.880  1.00  0.00     0.283 C 
HETATM   25  C   UNL     1      34.046  18.221  54.794  1.00  0.00     0.153 C 
HETATM   26  C   UNL     1      33.104  25.113  57.881  1.00  0.00     0.153 C 
HETATM   27  C   UNL     1      30.735  21.945  57.200  1.00  0.00     0.153 C 
ENDROOT
BRANCH  16  28
HETATM   28  C   UNL     1      36.826  20.104  55.032  1.00  0.00     0.016 C 
HETATM   29  C   UNL     1      37.759  21.219  54.561  1.00  0.00     0.012 C 
HETATM   30  C   UNL     1      37.509  19.252  56.102  1.00  0.00     0.012 C 
ENDBRANCH  16  28
BRANCH  14  31
HETATM   31  C   UNL     1      35.934  24.498  58.160  1.00  0.00     0.010 C 
HETATM   32  C   UNL     1      37.018  23.469  58.473  1.00  0.00     0.012 C 
HETATM   33  C   UNL     1      36.538  25.895  58.046  1.00  0.00     0.012 C 
ENDBRANCH  14  31
BRANCH  13  34
HETATM   34  C   UNL     1      32.935  18.264  52.098  1.00  0.00     0.010 C 
HETATM   35  C   UNL     1      32.986  18.636  50.616  1.00  0.00     0.012 C 
HETATM   36  C   UNL     1      31.733  17.365  52.381  1.00  0.00     0.012 C 
ENDBRANCH  13  34
BRANCH  18  37
HETATM   37  C   UNL     1      31.785  25.928  53.718  1.00  0.00     0.016 C 
HETATM   38  C   UNL     1      30.999  24.857  52.961  1.00  0.00     0.012 C 
HETATM   39  C   UNL     1      31.054  27.267  53.663  1.00  0.00     0.012 C 
ENDBRANCH  18  37
BRANCH  17  40
HETATM   40  C   UNL     1      29.079  18.704  54.897  1.00  0.00     0.016 C 
HETATM   41  C   UNL     1      27.678  18.885  55.478  1.00  0.00     0.012 C 
HETATM   42  C   UNL     1      29.647  17.338  55.279  1.00  0.00     0.012 C 
ENDBRANCH  17  40
BRANCH  15  43
HETATM   43  C   UNL     1      28.268  23.648  57.483  1.00  0.00     0.010 C 
HETATM   44  C   UNL     1      29.024  24.585  58.422  1.00  0.00     0.012 C 
HETATM   45  C   UNL     1      26.859  24.171  57.219  1.00  0.00     0.012 C 
ENDBRANCH  15  43
TORSDOF 6
ENDMDL
MODEL 15
REMARK VINA RESULT:    -4.737     22.006     27.209
REMARK INTER + INTRA:          -4.922
REMARK INTER:                  -5.800
REMARK INTRA:                   0.878
REMARK UNBOUND:                 1.477
REMARK  6 active torsions:
REMARK  status: ('A' for Active; 'I' for Inactive)
REMARK    1  A    between atoms: C_13  and  C_16 
REMARK    2  A    between atoms: C_14  and  C_17 
REMARK    3  A    between atoms: C_15  and  C_18 
REMARK    4  A    between atoms: C_19  and  C_22 
REMARK    5  A    between atoms: C_20  and  C_23 
REMARK    6  A    between atoms: C_21  and  C_24 
ROOT
HETATM    1  O   UNL     1      31.713  21.998  54.374  1.00  0.00    -0.304 OA
HETATM    2  O   UNL     1      28.617  22.737  58.455  1.00  0.00    -0.304 OA
HETATM    3  O   UNL     1      31.042  26.501  56.937  1.00  0.00    -0.304 OA
HETATM    4  O   UNL     1      29.409  23.050  54.927  1.00  0.00    -0.270 OA
HETATM    5  O   UNL     1      30.964  25.355  53.958  1.00  0.00    -0.270 OA
HETATM    6  O   UNL     1      28.157  25.679  59.735  1.00  0.00    -0.270 OA
HETATM    7  O   UNL     1      32.658  22.563  56.401  1.00  0.00    -0.263 OA
HETATM    8  O   UNL     1      26.613  23.796  58.044  1.00  0.00    -0.263 OA
HETATM    9  O   UNL     1      31.618  28.496  57.918  1.00  0.00    -0.263 OA
HETATM   10  N   UNL     1      28.595  21.325  56.235  1.00  0.00    -0.340 N 
HETATM   11  N   UNL     1      32.963  25.074  55.104  1.00  0.00    -0.340 N 
HETATM   12  N   UNL     1      30.399  25.293  59.245  1.00  0.00    -0.340 N 
HETATM   13  C   UNL     1      27.361  22.090  56.512  1.00  0.00     0.190 C 
HETATM   14  C   UNL     1      33.226  23.808  54.389  1.00  0.00     0.190 C 
HETATM   15  C   UNL     1      30.745  26.728  59.314  1.00  0.00     0.190 C 
HETATM   16  C   UNL     1      30.783  21.092  55.007  1.00  0.00     0.227 C 
HETATM   17  C   UNL     1      28.851  23.380  59.719  1.00  0.00     0.227 C 
HETATM   18  C   UNL     1      31.432  26.990  55.640  1.00  0.00     0.227 C 
HETATM   19  C   UNL     1      29.545  21.910  55.386  1.00  0.00     0.250 C 
HETATM   20  C   UNL     1      31.757  25.742  54.823  1.00  0.00     0.250 C 
HETATM   21  C   UNL     1      29.090  24.889  59.561  1.00  0.00     0.250 C 
HETATM   22  C   UNL     1      32.529  22.725  55.194  1.00  0.00     0.283 C 
HETATM   23  C   UNL     1      27.484  22.986  57.743  1.00  0.00     0.283 C 
HETATM   24  C   UNL     1      31.199  27.346  57.994  1.00  0.00     0.283 C 
HETATM   25  C   UNL     1      28.759  20.027  56.897  1.00  0.00     0.153 C 
HETATM   26  C   UNL     1      33.956  25.527  56.083  1.00  0.00     0.153 C 
HETATM   27  C   UNL     1      31.491  24.344  59.022  1.00  0.00     0.153 C 
ENDROOT
BRANCH  16  28
HETATM   28  C   UNL     1      30.432  20.030  53.976  1.00  0.00     0.016 C 
HETATM   29  C   UNL     1      29.369  20.549  53.008  1.00  0.00     0.012 C 
HETATM   30  C   UNL     1      31.678  19.585  53.213  1.00  0.00     0.012 C 
ENDBRANCH  16  28
BRANCH  14  31
HETATM   31  C   UNL     1      34.692  23.450  54.183  1.00  0.00     0.010 C 
HETATM   32  C   UNL     1      34.851  21.949  53.950  1.00  0.00     0.012 C 
HETATM   33  C   UNL     1      35.280  24.239  53.015  1.00  0.00     0.012 C 
ENDBRANCH  14  31
BRANCH  13  34
HETATM   34  C   UNL     1      26.110  21.221  56.631  1.00  0.00     0.010 C 
HETATM   35  C   UNL     1      25.025  21.702  55.668  1.00  0.00     0.012 C 
HETATM   36  C   UNL     1      25.588  21.217  58.066  1.00  0.00     0.012 C 
ENDBRANCH  13  34
BRANCH  18  37
HETATM   37  C   UNL     1      30.265  27.769  55.040  1.00  0.00     0.016 C 
HETATM   38  C   UNL     1      29.007  27.597  55.891  1.00  0.00     0.012 C 
HETATM   39  C   UNL     1      30.618  29.249  54.900  1.00  0.00     0.012 C 
ENDBRANCH  18  37
BRANCH  17  40
HETATM   40  C   UNL     1      27.752  23.059  60.732  1.00  0.00     0.016 C 
HETATM   41  C   UNL     1      28.020  23.768  62.058  1.00  0.00     0.012 C 
HETATM   42  C   UNL     1      27.639  21.551  60.942  1.00  0.00     0.012 C 
ENDBRANCH  17  40
BRANCH  15  43
HETATM   43  C   UNL     1      31.773  27.000  60.414  1.00  0.00     0.010 C 
HETATM   44  C   UNL     1      33.158  27.212  59.808  1.00  0.00     0.012 C 
HETATM   45  C   UNL     1      31.357  28.209  61.246  1.00  0.00     0.012 C 
ENDBRANCH  15  43
TORSDOF 6
ENDMDL
MODEL 16
REMARK VINA RESULT:    -4.722     15.082     18.140
REMARK INTER + INTRA:          -4.901
REMARK INTER:                  -5.615
REMARK INTRA:                   0.714
REMARK UNBOUND:                 1.477
REMARK  6 active torsions:
REMARK  status: ('A' for Active; 'I' for Inactive)
REMARK    1  A    between atoms: C_13  and  C_16 
REMARK    2  A    between atoms: C_14  and  C_17 
REMARK    3  A    between atoms: C_15  and  C_18 
REMARK    4  A    between atoms: C_19  and  C_22 
REMARK    5  A    between atoms: C_20  and  C_23 
REMARK    6  A    between atoms: C_21  and  C_24 
ROOT
HETATM    1  O   UNL     1      25.417  16.357  40.125  1.00  0.00    -0.304 OA
HETATM    2  O   UNL     1      22.319  12.325  39.160  1.00  0.00    -0.304 OA
HETATM    3  O   UNL     1      26.918  11.717  38.248  1.00  0.00    -0.304 OA
HETATM    4  O   UNL     1      24.785  14.070  41.170  1.00  0.00    -0.270 OA
HETATM    5  O   UNL     1      27.656  13.754  40.593  1.00  0.00    -0.270 OA
HETATM    6  O   UNL     1      23.499   9.451  38.235  1.00  0.00    -0.270 OA
HETATM    7  O   UNL     1      25.182  15.630  37.950  1.00  0.00    -0.263 OA
HETATM    8  O   UNL     1      22.345  10.618  40.704  1.00  0.00    -0.263 OA
HETATM    9  O   UNL     1      28.076  10.226  36.940  1.00  0.00    -0.263 OA
HETATM   10  N   UNL     1      22.492  14.255  40.939  1.00  0.00    -0.340 N 
HETATM   11  N   UNL     1      27.786  14.598  38.436  1.00  0.00    -0.340 N 
HETATM   12  N   UNL     1      24.538  11.209  37.119  1.00  0.00    -0.340 N 
HETATM   13  C   UNL     1      22.307  12.897  41.492  1.00  0.00     0.190 C 
HETATM   14  C   UNL     1      27.396  15.943  38.909  1.00  0.00     0.190 C 
HETATM   15  C   UNL     1      25.676  10.370  36.689  1.00  0.00     0.190 C 
HETATM   16  C   UNL     1      24.006  16.190  40.383  1.00  0.00     0.227 C 
HETATM   17  C   UNL     1      22.211  11.466  38.012  1.00  0.00     0.227 C 
HETATM   18  C   UNL     1      28.136  12.153  38.883  1.00  0.00     0.227 C 
HETATM   19  C   UNL     1      23.801  14.750  40.859  1.00  0.00     0.250 C 
HETATM   20  C   UNL     1      27.842  13.564  39.387  1.00  0.00     0.250 C 
HETATM   21  C   UNL     1      23.472  10.611  37.813  1.00  0.00     0.250 C 
HETATM   22  C   UNL     1      25.877  15.960  38.901  1.00  0.00     0.283 C 
HETATM   23  C   UNL     1      22.342  11.811  40.419  1.00  0.00     0.283 C 
HETATM   24  C   UNL     1      27.027  10.761  37.285  1.00  0.00     0.283 C 
HETATM   25  C   UNL     1      21.301  14.974  40.477  1.00  0.00     0.153 C 
HETATM   26  C   UNL     1      28.051  14.427  37.004  1.00  0.00     0.153 C 
HETATM   27  C   UNL     1      24.499  12.592  36.641  1.00  0.00     0.153 C 
ENDROOT
BRANCH  16  28
HETATM   28  C   UNL     1      23.639  17.177  41.481  1.00  0.00     0.016 C 
HETATM   29  C   UNL     1      24.888  17.634  42.235  1.00  0.00     0.012 C 
HETATM   30  C   UNL     1      22.896  18.380  40.901  1.00  0.00     0.012 C 
ENDBRANCH  16  28
BRANCH  14  31
HETATM   31  C   UNL     1      27.940  17.117  38.106  1.00  0.00     0.010 C 
HETATM   32  C   UNL     1      27.224  18.409  38.492  1.00  0.00     0.012 C 
HETATM   33  C   UNL     1      29.446  17.258  38.312  1.00  0.00     0.012 C 
ENDBRANCH  14  31
BRANCH  13  34
HETATM   34  C   UNL     1      21.043  12.743  42.338  1.00  0.00     0.010 C 
HETATM   35  C   UNL     1      21.374  12.115  43.692  1.00  0.00     0.012 C 
HETATM   36  C   UNL     1      19.997  11.908  41.603  1.00  0.00     0.012 C 
ENDBRANCH  13  34
BRANCH  18  37
HETATM   37  C   UNL     1      28.457  11.200  40.030  1.00  0.00     0.016 C 
HETATM   38  C   UNL     1      27.272  10.276  40.311  1.00  0.00     0.012 C 
HETATM   39  C   UNL     1      29.710  10.383  39.720  1.00  0.00     0.012 C 
ENDBRANCH  18  37
BRANCH  17  40
HETATM   40  C   UNL     1      20.931  10.630  38.046  1.00  0.00     0.016 C 
HETATM   41  C   UNL     1      20.897   9.652  36.874  1.00  0.00     0.012 C 
HETATM   42  C   UNL     1      19.700  11.533  38.029  1.00  0.00     0.012 C 
ENDBRANCH  17  40
BRANCH  15  43
HETATM   43  C   UNL     1      25.766  10.293  35.164  1.00  0.00     0.010 C 
HETATM   44  C   UNL     1      26.896  11.181  34.651  1.00  0.00     0.012 C 
HETATM   45  C   UNL     1      25.967   8.850  34.713  1.00  0.00     0.012 C 
ENDBRANCH  15  43
TORSDOF 6
ENDMDL
MODEL 17
REMARK VINA RESULT:    -4.720     14.876     17.821
REMARK INTER + INTRA:          -4.899
REMARK INTER:                  -5.665
REMARK INTRA:                   0.766
REMARK UNBOUND:                 1.477
REMARK  6 active torsions:
REMARK  status: ('A' for Active; 'I' for Inactive)
REMARK    1  A    between atoms: C_13  and  C_16 
REMARK    2  A    between atoms: C_14  and  C_17 
REMARK    3  A    between atoms: C_15  and  C_18 
REMARK    4  A    between atoms: C_19  and  C_22 
REMARK    5  A    between atoms: C_20  and  C_23 
REMARK    6  A    between atoms: C_21  and  C_24 
ROOT
HETATM    1  O   UNL     1      26.116  15.520  40.926  1.00  0.00    -0.304 OA
HETATM    2  O   UNL     1      23.135  11.373  40.091  1.00  0.00    -0.304 OA
HETATM    3  O   UNL     1      26.091  12.583  36.605  1.00  0.00    -0.304 OA
HETATM    4  O   UNL     1      26.309  12.936  40.900  1.00  0.00    -0.270 OA
HETATM    5  O   UNL     1      28.149  13.749  38.750  1.00  0.00    -0.270 OA
HETATM    6  O   UNL     1      23.465   9.544  37.435  1.00  0.00    -0.270 OA
HETATM    7  O   UNL     1      24.547  15.599  39.237  1.00  0.00    -0.263 OA
HETATM    8  O   UNL     1      24.150   9.319  40.311  1.00  0.00    -0.263 OA
HETATM    9  O   UNL     1      26.151  12.102  34.360  1.00  0.00    -0.263 OA
HETATM   10  N   UNL     1      24.396  12.478  42.118  1.00  0.00    -0.340 N 
HETATM   11  N   UNL     1      26.865  15.315  37.617  1.00  0.00    -0.340 N 
HETATM   12  N   UNL     1      23.542  11.814  36.933  1.00  0.00    -0.340 N 
HETATM   13  C   UNL     1      24.614  11.025  41.951  1.00  0.00     0.190 C 
HETATM   14  C   UNL     1      26.862  16.206  38.795  1.00  0.00     0.190 C 
HETATM   15  C   UNL     1      24.146  11.582  35.604  1.00  0.00     0.190 C 
HETATM   16  C   UNL     1      25.196  14.847  41.813  1.00  0.00     0.227 C 
HETATM   17  C   UNL     1      22.322  11.001  38.965  1.00  0.00     0.227 C 
HETATM   18  C   UNL     1      27.431  13.110  36.560  1.00  0.00     0.227 C 
HETATM   19  C   UNL     1      25.350  13.344  41.565  1.00  0.00     0.250 C 
HETATM   20  C   UNL     1      27.521  14.077  37.738  1.00  0.00     0.250 C 
HETATM   21  C   UNL     1      23.168  10.709  37.717  1.00  0.00     0.250 C 
HETATM   22  C   UNL     1      25.689  15.757  39.650  1.00  0.00     0.283 C 
HETATM   23  C   UNL     1      23.960  10.471  40.686  1.00  0.00     0.283 C 
HETATM   24  C   UNL     1      25.563  12.125  35.436  1.00  0.00     0.283 C 
HETATM   25  C   UNL     1      23.182  12.912  42.815  1.00  0.00     0.153 C 
HETATM   26  C   UNL     1      26.154  15.766  36.416  1.00  0.00     0.153 C 
HETATM   27  C   UNL     1      23.199  13.193  37.289  1.00  0.00     0.153 C 
ENDROOT
BRANCH  16  28
HETATM   28  C   UNL     1      25.612  15.204  43.232  1.00  0.00     0.016 C 
HETATM   29  C   UNL     1      27.131  15.341  43.331  1.00  0.00     0.012 C 
HETATM   30  C   UNL     1      24.929  16.492  43.689  1.00  0.00     0.012 C 
ENDBRANCH  16  28
BRANCH  14  31
HETATM   31  C   UNL     1      26.761  17.698  38.505  1.00  0.00     0.010 C 
HETATM   32  C   UNL     1      26.219  18.447  39.721  1.00  0.00     0.012 C 
HETATM   33  C   UNL     1      28.120  18.258  38.092  1.00  0.00     0.012 C 
ENDBRANCH  14  31
BRANCH  13  34
HETATM   34  C   UNL     1      24.184  10.195  43.159  1.00  0.00     0.010 C 
HETATM   35  C   UNL     1      25.395   9.531  43.816  1.00  0.00     0.012 C 
HETATM   36  C   UNL     1      23.153   9.143  42.755  1.00  0.00     0.012 C 
ENDBRANCH  13  34
BRANCH  18  37
HETATM   37  C   UNL     1      28.416  11.953  36.704  1.00  0.00     0.016 C 
HETATM   38  C   UNL     1      27.692  10.680  37.140  1.00  0.00     0.012 C 
HETATM   39  C   UNL     1      29.169  11.719  35.396  1.00  0.00     0.012 C 
ENDBRANCH  18  37
BRANCH  17  40
HETATM   40  C   UNL     1      21.364   9.861  39.308  1.00  0.00     0.016 C 
HETATM   41  C   UNL     1      20.496   9.506  38.103  1.00  0.00     0.012 C 
HETATM   42  C   UNL     1      20.493  10.233  40.506  1.00  0.00     0.012 C 
ENDBRANCH  17  40
BRANCH  15  43
HETATM   43  C   UNL     1      23.240  12.096  34.484  1.00  0.00     0.010 C 
HETATM   44  C   UNL     1      23.756  13.430  33.951  1.00  0.00     0.012 C 
HETATM   45  C   UNL     1      23.143  11.068  33.361  1.00  0.00     0.012 C 
ENDBRANCH  15  43
TORSDOF 6
ENDMDL
MODEL 18
REMARK VINA RESULT:    -4.695     13.605     16.197
REMARK INTER + INTRA:          -4.865
REMARK INTER:                  -6.181
REMARK INTRA:                   1.316
REMARK UNBOUND:                 1.477
REMARK  6 active torsions:
REMARK  status: ('A' for Active; 'I' for Inactive)
REMARK    1  A    between atoms: C_13  and  C_16 
REMARK    2  A    between atoms: C_14  and  C_17 
REMARK    3  A    between atoms: C_15  and  C_18 
REMARK    4  A    between atoms: C_19  and  C_22 
REMARK    5  A    between atoms: C_20  and  C_23 
REMARK    6  A    between atoms: C_21  and  C_24 
ROOT
HETATM    1  O   UNL     1      28.209  12.682  39.430  1.00  0.00    -0.304 OA
HETATM    2  O   UNL     1      27.415   9.288  35.604  1.00  0.00    -0.304 OA
HETATM    3  O   UNL     1      25.044  13.370  35.330  1.00  0.00    -0.304 OA
HETATM    4  O   UNL     1      28.897  12.311  36.958  1.00  0.00    -0.270 OA
HETATM    5  O   UNL     1      27.423  14.858  36.852  1.00  0.00    -0.270 OA
HETATM    6  O   UNL     1      25.599  10.025  33.022  1.00  0.00    -0.270 OA
HETATM    7  O   UNL     1      26.107  11.772  39.168  1.00  0.00    -0.263 OA
HETATM    8  O   UNL     1      28.488   9.717  33.613  1.00  0.00    -0.263 OA
HETATM    9  O   UNL     1      23.166  14.020  34.180  1.00  0.00    -0.263 OA
HETATM   10  N   UNL     1      29.417  10.064  37.123  1.00  0.00    -0.340 N 
HETATM   11  N   UNL     1      25.553  14.360  38.132  1.00  0.00    -0.340 N 
HETATM   12  N   UNL     1      24.611  10.742  35.003  1.00  0.00    -0.340 N 
HETATM   13  C   UNL     1      29.706  10.004  35.675  1.00  0.00     0.190 C 
HETATM   14  C   UNL     1      26.391  14.183  39.336  1.00  0.00     0.190 C 
HETATM   15  C   UNL     1      23.691  11.664  34.305  1.00  0.00     0.190 C 
HETATM   16  C   UNL     1      28.843  11.409  39.174  1.00  0.00     0.227 C 
HETATM   17  C   UNL     1      26.202   8.806  35.001  1.00  0.00     0.227 C 
HETATM   18  C   UNL     1      25.354  14.737  35.658  1.00  0.00     0.227 C 
HETATM   19  C   UNL     1      29.048  11.305  37.660  1.00  0.00     0.250 C 
HETATM   20  C   UNL     1      26.206  14.663  36.923  1.00  0.00     0.250 C 
HETATM   21  C   UNL     1      25.456   9.914  34.244  1.00  0.00     0.250 C 
HETATM   22  C   UNL     1      26.849  12.734  39.311  1.00  0.00     0.283 C 
HETATM   23  C   UNL     1      28.471   9.673  34.839  1.00  0.00     0.283 C 
HETATM   24  C   UNL     1      23.916  13.145  34.601  1.00  0.00     0.283 C 
HETATM   25  C   UNL     1      29.500   8.817  37.889  1.00  0.00     0.153 C 
HETATM   26  C   UNL     1      24.106  14.173  38.271  1.00  0.00     0.153 C 
HETATM   27  C   UNL     1      24.466  10.611  36.454  1.00  0.00     0.153 C 
ENDROOT
BRANCH  16  28
HETATM   28  C   UNL     1      30.181  11.430  39.898  1.00  0.00     0.016 C 
HETATM   29  C   UNL     1      30.576  12.861  40.261  1.00  0.00     0.012 C 
HETATM   30  C   UNL     1      30.131  10.556  41.151  1.00  0.00     0.012 C 
ENDBRANCH  16  28
BRANCH  14  31
HETATM   31  C   UNL     1      25.723  14.501  40.667  1.00  0.00     0.010 C 
HETATM   32  C   UNL     1      26.438  13.786  41.812  1.00  0.00     0.012 C 
HETATM   33  C   UNL     1      25.699  16.009  40.909  1.00  0.00     0.012 C 
ENDBRANCH  14  31
BRANCH  13  34
HETATM   34  C   UNL     1      30.845   9.051  35.312  1.00  0.00     0.010 C 
HETATM   35  C   UNL     1      31.911   9.774  34.489  1.00  0.00     0.012 C 
HETATM   36  C   UNL     1      30.313   7.838  34.551  1.00  0.00     0.012 C 
ENDBRANCH  13  34
BRANCH  18  37
HETATM   37  C   UNL     1      26.125  15.355  34.495  1.00  0.00     0.016 C 
HETATM   38  C   UNL     1      26.589  16.769  34.846  1.00  0.00     0.012 C 
HETATM   39  C   UNL     1      27.318  14.481  34.111  1.00  0.00     0.012 C 
ENDBRANCH  18  37
BRANCH  17  40
HETATM   40  C   UNL     1      26.449   7.566  34.142  1.00  0.00     0.016 C 
HETATM   41  C   UNL     1      25.168   7.146  33.424  1.00  0.00     0.012 C 
HETATM   42  C   UNL     1      26.988   6.419  34.994  1.00  0.00     0.012 C 
ENDBRANCH  17  40
BRANCH  15  43
HETATM   43  C   UNL     1      22.230  11.285  34.552  1.00  0.00     0.010 C 
HETATM   44  C   UNL     1      21.996   9.816  34.209  1.00  0.00     0.012 C 
HETATM   45  C   UNL     1      21.843  11.568  36.000  1.00  0.00     0.012 C 
ENDBRANCH  15  43
TORSDOF 6
ENDMDL
MODEL 19
REMARK VINA RESULT:    -4.678      4.857      8.072
REMARK INTER + INTRA:          -4.842
REMARK INTER:                  -5.667
REMARK INTRA:                   0.824
REMARK UNBOUND:                 1.477
REMARK  6 active torsions:
REMARK  status: ('A' for Active; 'I' for Inactive)
REMARK    1  A    between atoms: C_13  and  C_16 
REMARK    2  A    between atoms: C_14  and  C_17 
REMARK    3  A    between atoms: C_15  and  C_18 
REMARK    4  A    between atoms: C_19  and  C_22 
REMARK    5  A    between atoms: C_20  and  C_23 
REMARK    6  A    between atoms: C_21  and  C_24 
ROOT
HETATM    1  O   UNL     1      38.700   8.767  45.379  1.00  0.00    -0.304 OA
HETATM    2  O   UNL     1      43.858   8.496  45.708  1.00  0.00    -0.304 OA
HETATM    3  O   UNL     1      42.096  11.936  42.985  1.00  0.00    -0.304 OA
HETATM    4  O   UNL     1      40.661   9.987  46.557  1.00  0.00    -0.270 OA
HETATM    5  O   UNL     1      39.510  12.094  44.851  1.00  0.00    -0.270 OA
HETATM    6  O   UNL     1      45.773  10.725  44.340  1.00  0.00    -0.270 OA
HETATM    7  O   UNL     1      39.913   8.275  43.480  1.00  0.00    -0.263 OA
HETATM    8  O   UNL     1      44.881  10.034  47.082  1.00  0.00    -0.263 OA
HETATM    9  O   UNL     1      42.986  13.212  41.296  1.00  0.00    -0.263 OA
HETATM   10  N   UNL     1      41.792   8.106  47.288  1.00  0.00    -0.340 N 
HETATM   11  N   UNL     1      39.246  10.963  42.842  1.00  0.00    -0.340 N 
HETATM   12  N   UNL     1      44.041  10.089  42.922  1.00  0.00    -0.340 N 
HETATM   13  C   UNL     1      42.869   8.948  47.849  1.00  0.00     0.190 C 
HETATM   14  C   UNL     1      38.254  10.055  43.453  1.00  0.00     0.190 C 
HETATM   15  C   UNL     1      44.212  11.271  42.052  1.00  0.00     0.190 C 
HETATM   16  C   UNL     1      39.533   7.909  46.189  1.00  0.00     0.227 C 
HETATM   17  C   UNL     1      44.876   8.525  44.693  1.00  0.00     0.227 C 
HETATM   18  C   UNL     1      40.945  12.797  43.071  1.00  0.00     0.227 C 
HETATM   19  C   UNL     1      40.706   8.758  46.686  1.00  0.00     0.250 C 
HETATM   20  C   UNL     1      39.840  11.931  43.672  1.00  0.00     0.250 C 
HETATM   21  C   UNL     1      44.940   9.885  43.983  1.00  0.00     0.250 C 
HETATM   22  C   UNL     1      39.055   8.920  44.068  1.00  0.00     0.283 C 
HETATM   23  C   UNL     1      43.977   9.241  46.840  1.00  0.00     0.283 C 
HETATM   24  C   UNL     1      43.034  12.244  42.048  1.00  0.00     0.283 C 
HETATM   25  C   UNL     1      41.949   6.651  47.365  1.00  0.00     0.153 C 
HETATM   26  C   UNL     1      39.569  10.771  41.425  1.00  0.00     0.153 C 
HETATM   27  C   UNL     1      43.046   9.092  42.522  1.00  0.00     0.153 C 
ENDROOT
BRANCH  16  28
HETATM   28  C   UNL     1      38.677   7.438  47.355  1.00  0.00     0.016 C 
HETATM   29  C   UNL     1      37.465   8.351  47.538  1.00  0.00     0.012 C 
HETATM   30  C   UNL     1      38.229   5.991  47.148  1.00  0.00     0.012 C 
ENDBRANCH  16  28
BRANCH  14  31
HETATM   31  C   UNL     1      37.190   9.499  42.514  1.00  0.00     0.010 C 
HETATM   32  C   UNL     1      36.575   8.227  43.093  1.00  0.00     0.012 C 
HETATM   33  C   UNL     1      36.109  10.544  42.249  1.00  0.00     0.012 C 
ENDBRANCH  14  31
BRANCH  13  34
HETATM   34  C   UNL     1      43.478   8.393  49.136  1.00  0.00     0.010 C 
HETATM   35  C   UNL     1      43.489   9.459  50.231  1.00  0.00     0.012 C 
HETATM   36  C   UNL     1      44.891   7.871  48.885  1.00  0.00     0.012 C 
ENDBRANCH  13  34
BRANCH  18  37
HETATM   37  C   UNL     1      41.287  13.980  43.973  1.00  0.00     0.016 C 
HETATM   38  C   UNL     1      42.617  13.745  44.689  1.00  0.00     0.012 C 
HETATM   39  C   UNL     1      41.335  15.277  43.167  1.00  0.00     0.012 C 
ENDBRANCH  18  37
BRANCH  17  40
HETATM   40  C   UNL     1      46.233   8.078  45.236  1.00  0.00     0.016 C 
HETATM   41  C   UNL     1      47.288   8.101  44.132  1.00  0.00     0.012 C 
HETATM   42  C   UNL     1      46.132   6.685  45.854  1.00  0.00     0.012 C 
ENDBRANCH  17  40
BRANCH  15  43
HETATM   43  C   UNL     1      44.573  10.862  40.623  1.00  0.00     0.010 C 
HETATM   44  C   UNL     1      45.764   9.907  40.627  1.00  0.00     0.012 C 
HETATM   45  C   UNL     1      43.373  10.223  39.931  1.00  0.00     0.012 C 
ENDBRANCH  15  43
TORSDOF 6
ENDMDL
MODEL 20
REMARK VINA RESULT:    -4.663     16.918     20.967
REMARK INTER + INTRA:          -4.822
REMARK INTER:                  -5.762
REMARK INTRA:                   0.940
REMARK UNBOUND:                 1.477
REMARK  6 active torsions:
REMARK  status: ('A' for Active; 'I' for Inactive)
REMARK    1  A    between atoms: C_13  and  C_16 
REMARK    2  A    between atoms: C_14  and  C_17 
REMARK    3  A    between atoms: C_15  and  C_18 
REMARK    4  A    between atoms: C_19  and  C_22 
REMARK    5  A    between atoms: C_20  and  C_23 
REMARK    6  A    between atoms: C_21  and  C_24 
ROOT
HETATM    1  O   UNL     1      22.909  10.099  35.704  1.00  0.00    -0.304 OA
HETATM    2  O   UNL     1      24.655  13.216  39.448  1.00  0.00    -0.304 OA
HETATM    3  O   UNL     1      20.408  11.258  40.142  1.00  0.00    -0.304 OA
HETATM    4  O   UNL     1      23.953   9.933  38.070  1.00  0.00    -0.270 OA
HETATM    5  O   UNL     1      21.300   8.709  38.439  1.00  0.00    -0.270 OA
HETATM    6  O   UNL     1      23.048  13.595  42.237  1.00  0.00    -0.270 OA
HETATM    7  O   UNL     1      21.766  12.051  36.150  1.00  0.00    -0.263 OA
HETATM    8  O   UNL     1      25.495  12.189  41.330  1.00  0.00    -0.263 OA
HETATM    9  O   UNL     1      18.642  11.785  41.512  1.00  0.00    -0.263 OA
HETATM   10  N   UNL     1      25.656  11.466  37.758  1.00  0.00    -0.340 N 
HETATM   11  N   UNL     1      19.936  10.235  37.346  1.00  0.00    -0.340 N 
HETATM   12  N   UNL     1      21.616  13.640  40.404  1.00  0.00    -0.340 N 
HETATM   13  C   UNL     1      26.084  11.307  39.164  1.00  0.00     0.190 C 
HETATM   14  C   UNL     1      20.582   9.927  36.053  1.00  0.00     0.190 C 
HETATM   15  C   UNL     1      20.416  13.402  41.234  1.00  0.00     0.190 C 
HETATM   16  C   UNL     1      24.186  10.761  35.838  1.00  0.00     0.227 C 
HETATM   17  C   UNL     1      24.022  14.294  40.156  1.00  0.00     0.227 C 
HETATM   18  C   UNL     1      19.831   9.974  39.840  1.00  0.00     0.227 C 
HETATM   19  C   UNL     1      24.580  10.684  37.315  1.00  0.00     0.250 C 
HETATM   20  C   UNL     1      20.422   9.576  38.489  1.00  0.00     0.250 C 
HETATM   21  C   UNL     1      22.862  13.803  41.034  1.00  0.00     0.250 C 
HETATM   22  C   UNL     1      21.793  10.841  35.968  1.00  0.00     0.283 C 
HETATM   23  C   UNL     1      25.372  12.269  40.112  1.00  0.00     0.283 C 
HETATM   24  C   UNL     1      19.707  12.074  40.978  1.00  0.00     0.283 C 
HETATM   25  C   UNL     1      26.360  12.455  36.936  1.00  0.00     0.153 C 
HETATM   26  C   UNL     1      18.860  11.230  37.353  1.00  0.00     0.153 C 
HETATM   27  C   UNL     1      21.413  13.871  38.973  1.00  0.00     0.153 C 
ENDROOT
BRANCH  16  28
HETATM   28  C   UNL     1      25.175   9.989  34.976  1.00  0.00     0.016 C 
HETATM   29  C   UNL     1      25.478   8.625  35.594  1.00  0.00     0.012 C 
HETATM   30  C   UNL     1      24.639   9.824  33.555  1.00  0.00     0.012 C 
ENDBRANCH  16  28
BRANCH  14  31
HETATM   31  C   UNL     1      19.711  10.093  34.815  1.00  0.00     0.010 C 
HETATM   32  C   UNL     1      20.572  10.366  33.584  1.00  0.00     0.012 C 
HETATM   33  C   UNL     1      18.845   8.854  34.598  1.00  0.00     0.012 C 
ENDBRANCH  14  31
BRANCH  13  34
HETATM   34  C   UNL     1      27.596  11.412  39.364  1.00  0.00     0.010 C 
HETATM   35  C   UNL     1      28.122  10.211  40.149  1.00  0.00     0.012 C 
HETATM   36  C   UNL     1      27.958  12.715  40.074  1.00  0.00     0.012 C 
ENDBRANCH  13  34
BRANCH  18  37
HETATM   37  C   UNL     1      20.225   8.991  40.939  1.00  0.00     0.016 C 
HETATM   38  C   UNL     1      21.305   9.592  41.838  1.00  0.00     0.012 C 
HETATM   39  C   UNL     1      19.006   8.586  41.765  1.00  0.00     0.012 C 
ENDBRANCH  18  37
BRANCH  17  40
HETATM   40  C   UNL     1      25.034  15.137  40.932  1.00  0.00     0.016 C 
HETATM   41  C   UNL     1      24.327  16.241  41.716  1.00  0.00     0.012 C 
HETATM   42  C   UNL     1      26.075  15.732  39.987  1.00  0.00     0.012 C 
ENDBRANCH  17  40
BRANCH  15  43
HETATM   43  C   UNL     1      19.428  14.565  41.128  1.00  0.00     0.010 C 
HETATM   44  C   UNL     1      18.391  14.488  42.246  1.00  0.00     0.012 C 
HETATM   45  C   UNL     1      20.168  15.899  41.171  1.00  0.00     0.012 C 
ENDBRANCH  15  43
TORSDOF 6
ENDMDL
