MODEL 1
REMARK VINA RESULT:    -5.123      0.000      0.000
REMARK INTER + INTRA:          -6.056
REMARK INTER:                  -6.920
REMARK INTRA:                   0.863
REMARK UNBOUND:                 0.863
REMARK  6 active torsions:
REMARK  status: ('A' for Active; 'I' for Inactive)
REMARK    1  A    between atoms: C_13  and  C_16 
REMARK    2  A    between atoms: C_14  and  C_17 
REMARK    3  A    between atoms: C_15  and  C_18 
REMARK    4  A    between atoms: C_19  and  C_22 
REMARK    5  A    between atoms: C_20  and  C_23 
REMARK    6  A    between atoms: C_21  and  C_24 
ROOT
HETATM    1  O   UNL     1      46.186  15.530  42.927  1.00  0.00    -0.304 OA
HETATM    2  O   UNL     1      44.611  10.721  41.840  1.00  0.00    -0.304 OA
HETATM    3  O   UNL     1      47.637  12.691  38.787  1.00  0.00    -0.304 OA
HETATM    4  O   UNL     1      47.074  13.098  43.046  1.00  0.00    -0.270 OA
HETATM    5  O   UNL     1      48.938  14.382  41.162  1.00  0.00    -0.270 OA
HETATM    6  O   UNL     1      45.837   9.049  39.348  1.00  0.00    -0.270 OA
HETATM    7  O   UNL     1      44.940  15.171  41.020  1.00  0.00    -0.263 OA
HETATM    8  O   UNL     1      46.099   9.025  42.301  1.00  0.00    -0.263 OA
HETATM    9  O   UNL     1      48.176  12.242  36.600  1.00  0.00    -0.263 OA
HETATM   10  N   UNL     1      45.192  12.134  43.981  1.00  0.00    -0.340 N 
HETATM   11  N   UNL     1      47.471  15.533  39.780  1.00  0.00    -0.340 N 
HETATM   12  N   UNL     1      45.373  11.252  38.762  1.00  0.00    -0.340 N 
HETATM   13  C   UNL     1      45.819  10.797  43.914  1.00  0.00     0.190 C 
HETATM   14  C   UNL     1      47.042  16.391  40.904  1.00  0.00     0.190 C 
HETATM   15  C   UNL     1      46.218  11.192  37.551  1.00  0.00     0.190 C 
HETATM   16  C   UNL     1      45.356  14.631  43.694  1.00  0.00     0.227 C 
HETATM   17  C   UNL     1      44.117  10.138  40.622  1.00  0.00     0.227 C 
HETATM   18  C   UNL     1      48.773  13.566  38.920  1.00  0.00     0.227 C 
HETATM   19  C   UNL     1      45.949  13.228  43.540  1.00  0.00     0.250 C 
HETATM   20  C   UNL     1      48.412  14.523  40.054  1.00  0.00     0.250 C 
HETATM   21  C   UNL     1      45.195  10.088  39.530  1.00  0.00     0.250 C 
HETATM   22  C   UNL     1      45.916  15.638  41.591  1.00  0.00     0.283 C 
HETATM   23  C   UNL     1      45.547  10.081  42.592  1.00  0.00     0.283 C 
HETATM   24  C   UNL     1      47.443  12.104  37.574  1.00  0.00     0.283 C 
HETATM   25  C   UNL     1      43.812  12.219  44.468  1.00  0.00     0.153 C 
HETATM   26  C   UNL     1      46.862  15.769  38.467  1.00  0.00     0.153 C 
HETATM   27  C   UNL     1      44.618  12.483  39.000  1.00  0.00     0.153 C 
ENDROOT
BRANCH  16  28
HETATM   28  C   UNL     1      45.432  15.091  45.143  1.00  0.00     0.016 C 
HETATM   29  C   UNL     1      46.729  15.858  45.398  1.00  0.00     0.012 C 
HETATM   30  C   UNL     1      44.222  15.953  45.500  1.00  0.00     0.012 C 
ENDBRANCH  16  28
BRANCH  14  31
HETATM   31  C   UNL     1      46.587  17.797  40.534  1.00  0.00     0.010 C 
HETATM   32  C   UNL     1      45.560  18.311  41.541  1.00  0.00     0.012 C 
HETATM   33  C   UNL     1      47.781  18.745  40.456  1.00  0.00     0.012 C 
ENDBRANCH  14  31
BRANCH  13  34
HETATM   34  C   UNL     1      45.447   9.882  45.081  1.00  0.00     0.010 C 
HETATM   35  C   UNL     1      46.702   9.312  45.741  1.00  0.00     0.012 C 
HETATM   36  C   UNL     1      44.530   8.754  44.612  1.00  0.00     0.012 C 
ENDBRANCH  13  34
BRANCH  18  37
HETATM   37  C   UNL     1      50.000  12.725  39.262  1.00  0.00     0.016 C 
HETATM   38  C   UNL     1      49.596  11.284  39.572  1.00  0.00     0.012 C 
HETATM   39  C   UNL     1      51.015  12.762  38.121  1.00  0.00     0.012 C 
ENDBRANCH  18  37
BRANCH  17  40
HETATM   40  C   UNL     1      43.463   8.778  40.868  1.00  0.00     0.016 C 
HETATM   41  C   UNL     1      42.972   8.172  39.555  1.00  0.00     0.012 C 
HETATM   42  C   UNL     1      42.311   8.909  41.863  1.00  0.00     0.012 C 
ENDBRANCH  17  40
BRANCH  15  43
HETATM   43  C   UNL     1      45.393  11.435  36.286  1.00  0.00     0.010 C 
HETATM   44  C   UNL     1      44.232  10.448  36.208  1.00  0.00     0.012 C 
HETATM   45  C   UNL     1      44.882  12.872  36.250  1.00  0.00     0.012 C 
ENDBRANCH  15  43
TORSDOF 6
ENDMDL
MODEL 2
REMARK VINA RESULT:    -5.054      7.483     13.203
REMARK INTER + INTRA:          -5.963
REMARK INTER:                  -6.841
REMARK INTRA:                   0.878
REMARK UNBOUND:                 0.863
REMARK  6 active torsions:
REMARK  status: ('A' for Active; 'I' for Inactive)
REMARK    1  A    between atoms: C_13  and  C_16 
REMARK    2  A    between atoms: C_14  and  C_17 
REMARK    3  A    between atoms: C_15  and  C_18 
REMARK    4  A    between atoms: C_19  and  C_22 
REMARK    5  A    between atoms: C_20  and  C_23 
REMARK    6  A    between atoms: C_21  and  C_24 
ROOT
HETATM    1  O   UNL     1      44.413   5.908  49.923  1.00  0.00    -0.304 OA
HETATM    2  O   UNL     1      48.856   8.109  48.440  1.00  0.00    -0.304 OA
HETATM    3  O   UNL     1      49.161   3.752  50.250  1.00  0.00    -0.304 OA
HETATM    4  O   UNL     1      46.112   5.781  47.969  1.00  0.00    -0.270 OA
HETATM    5  O   UNL     1      46.248   3.078  49.130  1.00  0.00    -0.270 OA
HETATM    6  O   UNL     1      51.663   6.489  48.498  1.00  0.00    -0.270 OA
HETATM    7  O   UNL     1      46.011   6.375  51.519  1.00  0.00    -0.263 OA
HETATM    8  O   UNL     1      49.736   7.395  46.435  1.00  0.00    -0.263 OA
HETATM    9  O   UNL     1      50.892   2.549  51.162  1.00  0.00    -0.263 OA
HETATM   10  N   UNL     1      46.354   8.056  47.631  1.00  0.00    -0.340 N 
HETATM   11  N   UNL     1      46.380   3.559  51.396  1.00  0.00    -0.340 N 
HETATM   12  N   UNL     1      50.414   6.118  50.426  1.00  0.00    -0.340 N 
HETATM   13  C   UNL     1      47.365   7.812  46.580  1.00  0.00     0.190 C 
HETATM   14  C   UNL     1      45.027   4.154  51.376  1.00  0.00     0.190 C 
HETATM   15  C   UNL     1      51.193   4.918  50.797  1.00  0.00     0.190 C 
HETATM   16  C   UNL     1      44.645   7.167  49.255  1.00  0.00     0.227 C 
HETATM   17  C   UNL     1      50.124   8.229  49.107  1.00  0.00     0.227 C 
HETATM   18  C   UNL     1      48.339   2.572  50.176  1.00  0.00     0.227 C 
HETATM   19  C   UNL     1      45.766   6.937  48.237  1.00  0.00     0.250 C 
HETATM   20  C   UNL     1      46.900   3.085  50.179  1.00  0.00     0.250 C 
HETATM   21  C   UNL     1      50.803   6.865  49.300  1.00  0.00     0.250 C 
HETATM   22  C   UNL     1      45.221   5.608  50.984  1.00  0.00     0.283 C 
HETATM   23  C   UNL     1      48.786   7.729  47.135  1.00  0.00     0.283 C 
HETATM   24  C   UNL     1      50.409   3.608  50.776  1.00  0.00     0.283 C 
HETATM   25  C   UNL     1      46.063   9.447  47.992  1.00  0.00     0.153 C 
HETATM   26  C   UNL     1      47.099   3.537  52.674  1.00  0.00     0.153 C 
HETATM   27  C   UNL     1      49.379   6.568  51.358  1.00  0.00     0.153 C 
ENDROOT
BRANCH  16  28
HETATM   28  C   UNL     1      43.348   7.538  48.552  1.00  0.00     0.016 C 
HETATM   29  C   UNL     1      43.188   6.741  47.258  1.00  0.00     0.012 C 
HETATM   30  C   UNL     1      42.150   7.309  49.472  1.00  0.00     0.012 C 
ENDBRANCH  16  28
BRANCH  14  31
HETATM   31  C   UNL     1      44.237   4.060  52.675  1.00  0.00     0.010 C 
HETATM   32  C   UNL     1      43.109   5.089  52.693  1.00  0.00     0.012 C 
HETATM   33  C   UNL     1      43.680   2.651  52.865  1.00  0.00     0.012 C 
ENDBRANCH  14  31
BRANCH  13  34
HETATM   34  C   UNL     1      47.319   8.822  45.434  1.00  0.00     0.010 C 
HETATM   35  C   UNL     1      47.163   8.107  44.092  1.00  0.00     0.012 C 
HETATM   36  C   UNL     1      48.572   9.695  45.431  1.00  0.00     0.012 C 
ENDBRANCH  13  34
BRANCH  18  37
HETATM   37  C   UNL     1      48.669   1.826  48.886  1.00  0.00     0.016 C 
HETATM   38  C   UNL     1      49.621   2.649  48.017  1.00  0.00     0.012 C 
HETATM   39  C   UNL     1      49.272   0.457  49.192  1.00  0.00     0.012 C 
ENDBRANCH  18  37
BRANCH  17  40
HETATM   40  C   UNL     1      51.033   9.249  48.421  1.00  0.00     0.016 C 
HETATM   41  C   UNL     1      52.377   9.339  49.139  1.00  0.00     0.012 C 
HETATM   42  C   UNL     1      50.359  10.619  48.368  1.00  0.00     0.012 C 
ENDBRANCH  17  40
BRANCH  15  43
HETATM   43  C   UNL     1      51.890   5.104  52.146  1.00  0.00     0.010 C 
HETATM   44  C   UNL     1      51.151   4.335  53.238  1.00  0.00     0.012 C 
HETATM   45  C   UNL     1      53.346   4.654  52.061  1.00  0.00     0.012 C 
ENDBRANCH  15  43
TORSDOF 6
ENDMDL
MODEL 3
REMARK VINA RESULT:    -4.975      7.200     11.502
REMARK INTER + INTRA:          -5.857
REMARK INTER:                  -6.671
REMARK INTRA:                   0.815
REMARK UNBOUND:                 0.863
REMARK  6 active torsions:
REMARK  status: ('A' for Active; 'I' for Inactive)
REMARK    1  A    between atoms: C_13  and  C_16 
REMARK    2  A    between atoms: C_14  and  C_17 
REMARK    3  A    between atoms: C_15  and  C_18 
REMARK    4  A    between atoms: C_19  and  C_22 
REMARK    5  A    between atoms: C_20  and  C_23 
REMARK    6  A    between atoms: C_21  and  C_24 
ROOT
HETATM    1  O   UNL     1      43.531   8.272  48.106  1.00  0.00    -0.304 OA
HETATM    2  O   UNL     1      45.083   4.587  51.391  1.00  0.00    -0.304 OA
HETATM    3  O   UNL     1      48.428   6.542  48.681  1.00  0.00    -0.304 OA
HETATM    4  O   UNL     1      44.761   8.057  50.377  1.00  0.00    -0.270 OA
HETATM    5  O   UNL     1      46.799   9.288  48.645  1.00  0.00    -0.270 OA
HETATM    6  O   UNL     1      48.217   3.846  51.764  1.00  0.00    -0.270 OA
HETATM    7  O   UNL     1      44.389   6.308  47.252  1.00  0.00    -0.263 OA
HETATM    8  O   UNL     1      46.144   5.301  53.306  1.00  0.00    -0.263 OA
HETATM    9  O   UNL     1      50.533   5.869  48.055  1.00  0.00    -0.263 OA
HETATM   10  N   UNL     1      43.319   6.538  51.359  1.00  0.00    -0.340 N 
HETATM   11  N   UNL     1      46.629   7.980  46.736  1.00  0.00    -0.340 N 
HETATM   12  N   UNL     1      47.656   4.114  49.523  1.00  0.00    -0.340 N 
HETATM   13  C   UNL     1      44.174   6.475  52.564  1.00  0.00     0.190 C 
HETATM   14  C   UNL     1      45.250   8.456  46.500  1.00  0.00     0.190 C 
HETATM   15  C   UNL     1      49.066   4.261  49.104  1.00  0.00     0.190 C 
HETATM   16  C   UNL     1      42.787   7.561  49.119  1.00  0.00     0.227 C 
HETATM   17  C   UNL     1      45.920   3.434  51.197  1.00  0.00     0.227 C 
HETATM   18  C   UNL     1      48.673   7.873  48.188  1.00  0.00     0.227 C 
HETATM   19  C   UNL     1      43.710   7.407  50.331  1.00  0.00     0.250 C 
HETATM   20  C   UNL     1      47.292   8.449  47.884  1.00  0.00     0.250 C 
HETATM   21  C   UNL     1      47.369   3.824  50.868  1.00  0.00     0.250 C 
HETATM   22  C   UNL     1      44.350   7.531  47.301  1.00  0.00     0.283 C 
HETATM   23  C   UNL     1      45.258   5.405  52.465  1.00  0.00     0.283 C 
HETATM   24  C   UNL     1      49.432   5.632  48.540  1.00  0.00     0.283 C 
HETATM   25  C   UNL     1      42.146   5.661  51.306  1.00  0.00     0.153 C 
HETATM   26  C   UNL     1      47.196   7.026  45.778  1.00  0.00     0.153 C 
HETATM   27  C   UNL     1      46.636   4.103  48.472  1.00  0.00     0.153 C 
ENDROOT
BRANCH  16  28
HETATM   28  C   UNL     1      41.582   8.423  49.466  1.00  0.00     0.016 C 
HETATM   29  C   UNL     1      41.793   9.860  48.993  1.00  0.00     0.012 C 
HETATM   30  C   UNL     1      40.308   7.841  48.857  1.00  0.00     0.012 C 
ENDBRANCH  16  28
BRANCH  14  31
HETATM   31  C   UNL     1      44.799   8.501  45.046  1.00  0.00     0.010 C 
HETATM   32  C   UNL     1      43.284   8.674  44.959  1.00  0.00     0.012 C 
HETATM   33  C   UNL     1      45.510   9.625  44.296  1.00  0.00     0.012 C 
ENDBRANCH  14  31
BRANCH  13  34
HETATM   34  C   UNL     1      43.392   6.298  53.865  1.00  0.00     0.010 C 
HETATM   35  C   UNL     1      43.771   7.381  54.874  1.00  0.00     0.012 C 
HETATM   36  C   UNL     1      43.632   4.910  54.455  1.00  0.00     0.012 C 
ENDBRANCH  13  34
BRANCH  18  37
HETATM   37  C   UNL     1      49.390   8.671  49.274  1.00  0.00     0.016 C 
HETATM   38  C   UNL     1      49.370   7.913  50.602  1.00  0.00     0.012 C 
HETATM   39  C   UNL     1      50.825   8.983  48.857  1.00  0.00     0.012 C 
ENDBRANCH  18  37
BRANCH  17  40
HETATM   40  C   UNL     1      45.824   2.458  52.369  1.00  0.00     0.016 C 
HETATM   41  C   UNL     1      46.695   1.229  52.118  1.00  0.00     0.012 C 
HETATM   42  C   UNL     1      44.372   2.047  52.608  1.00  0.00     0.012 C 
ENDBRANCH  17  40
BRANCH  15  43
HETATM   43  C   UNL     1      49.474   3.155  48.129  1.00  0.00     0.010 C 
HETATM   44  C   UNL     1      50.992   2.996  48.108  1.00  0.00     0.012 C 
HETATM   45  C   UNL     1      48.799   1.839  48.502  1.00  0.00     0.012 C 
ENDBRANCH  15  43
TORSDOF 6
ENDMDL
MODEL 4
REMARK VINA RESULT:    -4.955      7.173     11.421
REMARK INTER + INTRA:          -5.829
REMARK INTER:                  -6.647
REMARK INTRA:                   0.818
REMARK UNBOUND:                 0.863
REMARK  6 active torsions:
REMARK  status: ('A' for Active; 'I' for Inactive)
REMARK    1  A    between atoms: C_13  and  C_16 
REMARK    2  A    between atoms: C_14  and  C_17 
REMARK    3  A    between atoms: C_15  and  C_18 
REMARK    4  A    between atoms: C_19  and  C_22 
REMARK    5  A    between atoms: C_20  and  C_23 
REMARK    6  A    between atoms: C_21  and  C_24 
ROOT
HETATM    1  O   UNL     1      53.106   7.029  48.874  1.00  0.00    -0.304 OA
HETATM    2  O   UNL     1      48.654   4.544  49.760  1.00  0.00    -0.304 OA
HETATM    3  O   UNL     1      48.367   8.575  47.307  1.00  0.00    -0.304 OA
HETATM    4  O   UNL     1      51.408   5.529  47.613  1.00  0.00    -0.270 OA
HETATM    5  O   UNL     1      51.283   8.061  46.114  1.00  0.00    -0.270 OA
HETATM    6  O   UNL     1      45.854   5.552  48.476  1.00  0.00    -0.270 OA
HETATM    7  O   UNL     1      51.505   8.047  50.185  1.00  0.00    -0.263 OA
HETATM    8  O   UNL     1      47.778   3.347  47.999  1.00  0.00    -0.263 OA
HETATM    9  O   UNL     1      46.641  10.025  46.866  1.00  0.00    -0.263 OA
HETATM   10  N   UNL     1      51.157   3.916  49.251  1.00  0.00    -0.340 N 
HETATM   11  N   UNL     1      51.149   9.608  47.837  1.00  0.00    -0.340 N 
HETATM   12  N   UNL     1      47.103   7.325  49.316  1.00  0.00    -0.340 N 
HETATM   13  C   UNL     1      50.147   3.213  48.431  1.00  0.00     0.190 C 
HETATM   14  C   UNL     1      52.498   9.239  48.311  1.00  0.00     0.190 C 
HETATM   15  C   UNL     1      46.329   8.334  48.563  1.00  0.00     0.190 C 
HETATM   16  C   UNL     1      52.868   5.748  49.496  1.00  0.00     0.227 C 
HETATM   17  C   UNL     1      47.385   5.015  50.246  1.00  0.00     0.227 C 
HETATM   18  C   UNL     1      49.195   9.209  46.313  1.00  0.00     0.227 C 
HETATM   19  C   UNL     1      51.749   5.064  48.707  1.00  0.00     0.250 C 
HETATM   20  C   UNL     1      50.631   8.906  46.735  1.00  0.00     0.250 C 
HETATM   21  C   UNL     1      46.712   5.976  49.255  1.00  0.00     0.250 C 
HETATM   22  C   UNL     1      52.299   8.064  49.254  1.00  0.00     0.283 C 
HETATM   23  C   UNL     1      48.726   3.714  48.685  1.00  0.00     0.283 C 
HETATM   24  C   UNL     1      47.119   9.087  47.496  1.00  0.00     0.283 C 
HETATM   25  C   UNL     1      51.441   3.387  50.588  1.00  0.00     0.153 C 
HETATM   26  C   UNL     1      50.429  10.655  48.570  1.00  0.00     0.153 C 
HETATM   27  C   UNL     1      48.136   7.811  50.234  1.00  0.00     0.153 C 
ENDROOT
BRANCH  16  28
HETATM   28  C   UNL     1      54.164   4.959  49.387  1.00  0.00     0.016 C 
HETATM   29  C   UNL     1      55.103   5.601  48.367  1.00  0.00     0.012 C 
HETATM   30  C   UNL     1      54.848   4.851  50.749  1.00  0.00     0.012 C 
ENDBRANCH  16  28
BRANCH  14  31
HETATM   31  C   UNL     1      53.288  10.342  49.004  1.00  0.00     0.010 C 
HETATM   32  C   UNL     1      54.390   9.745  49.878  1.00  0.00     0.012 C 
HETATM   33  C   UNL     1      53.881  11.304  47.978  1.00  0.00     0.012 C 
ENDBRANCH  14  31
BRANCH  13  34
HETATM   34  C   UNL     1      50.189   1.692  48.571  1.00  0.00     0.010 C 
HETATM   35  C   UNL     1      50.302   1.027  47.199  1.00  0.00     0.012 C 
HETATM   36  C   UNL     1      48.955   1.182  49.312  1.00  0.00     0.012 C 
ENDBRANCH  13  34
BRANCH  18  37
HETATM   37  C   UNL     1      48.868   8.607  44.949  1.00  0.00     0.016 C 
HETATM   38  C   UNL     1      47.924   7.414  45.099  1.00  0.00     0.012 C 
HETATM   39  C   UNL     1      48.258   9.659  44.026  1.00  0.00     0.012 C 
ENDBRANCH  18  37
BRANCH  17  40
HETATM   40  C   UNL     1      46.472   3.861  50.662  1.00  0.00     0.016 C 
HETATM   41  C   UNL     1      45.157   4.394  51.227  1.00  0.00     0.012 C 
HETATM   42  C   UNL     1      47.171   2.965  51.682  1.00  0.00     0.012 C 
ENDBRANCH  17  40
BRANCH  15  43
HETATM   43  C   UNL     1      45.631   9.315  49.506  1.00  0.00     0.010 C 
HETATM   44  C   UNL     1      44.480  10.016  48.788  1.00  0.00     0.012 C 
HETATM   45  C   UNL     1      45.129   8.593  50.752  1.00  0.00     0.012 C 
ENDBRANCH  15  43
TORSDOF 6
ENDMDL
MODEL 5
REMARK VINA RESULT:    -4.895      1.135      1.187
REMARK INTER + INTRA:          -5.749
REMARK INTER:                  -6.582
REMARK INTRA:                   0.833
REMARK UNBOUND:                 0.863
REMARK  6 active torsions:
REMARK  status: ('A' for Active; 'I' for Inactive)
REMARK    1  A    between atoms: C_13  and  C_16 
REMARK    2  A    between atoms: C_14  and  C_17 
REMARK    3  A    between atoms: C_15  and  C_18 
REMARK    4  A    between atoms: C_19  and  C_22 
REMARK    5  A    between atoms: C_20  and  C_23 
REMARK    6  A    between atoms: C_21  and  C_24 
ROOT
HETATM    1  O   UNL     1      46.714  15.309  42.305  1.00  0.00    -0.304 OA
HETATM    2  O   UNL     1      44.595  10.890  40.642  1.00  0.00    -0.304 OA
HETATM    3  O   UNL     1      47.715  12.953  37.750  1.00  0.00    -0.304 OA
HETATM    4  O   UNL     1      47.338  12.806  42.046  1.00  0.00    -0.270 OA
HETATM    5  O   UNL     1      49.267  14.147  40.272  1.00  0.00    -0.270 OA
HETATM    6  O   UNL     1      45.551   9.471  37.889  1.00  0.00    -0.270 OA
HETATM    7  O   UNL     1      45.375  15.354  40.428  1.00  0.00    -0.263 OA
HETATM    8  O   UNL     1      45.904   9.002  40.795  1.00  0.00    -0.263 OA
HETATM    9  O   UNL     1      48.132  12.765  35.500  1.00  0.00    -0.263 OA
HETATM   10  N   UNL     1      45.394  11.917  42.928  1.00  0.00    -0.340 N 
HETATM   11  N   UNL     1      47.890  15.627  39.132  1.00  0.00    -0.340 N 
HETATM   12  N   UNL     1      45.309  11.771  37.634  1.00  0.00    -0.340 N 
HETATM   13  C   UNL     1      45.870  10.546  42.648  1.00  0.00     0.190 C 
HETATM   14  C   UNL     1      47.593  16.355  40.382  1.00  0.00     0.190 C 
HETATM   15  C   UNL     1      46.103  11.798  36.388  1.00  0.00     0.190 C 
HETATM   16  C   UNL     1      45.818  14.400  42.980  1.00  0.00     0.227 C 
HETATM   17  C   UNL     1      44.001  10.539  39.380  1.00  0.00     0.227 C 
HETATM   18  C   UNL     1      48.943  13.679  37.949  1.00  0.00     0.227 C 
HETATM   19  C   UNL     1      46.250  12.979  42.606  1.00  0.00     0.250 C 
HETATM   20  C   UNL     1      48.724  14.497  39.219  1.00  0.00     0.250 C 
HETATM   21  C   UNL     1      45.032  10.534  38.242  1.00  0.00     0.250 C 
HETATM   22  C   UNL     1      46.415  15.632  41.012  1.00  0.00     0.283 C 
HETATM   23  C   UNL     1      45.479  10.057  41.254  1.00  0.00     0.283 C 
HETATM   24  C   UNL     1      47.419  12.567  36.478  1.00  0.00     0.283 C 
HETATM   25  C   UNL     1      44.047  12.073  43.487  1.00  0.00     0.153 C 
HETATM   26  C   UNL     1      47.268  16.107  37.894  1.00  0.00     0.153 C 
HETATM   27  C   UNL     1      44.700  13.027  38.075  1.00  0.00     0.153 C 
ENDROOT
BRANCH  16  28
HETATM   28  C   UNL     1      45.989  14.639  44.473  1.00  0.00     0.016 C 
HETATM   29  C   UNL     1      47.404  15.126  44.782  1.00  0.00     0.012 C 
HETATM   30  C   UNL     1      44.956  15.643  44.982  1.00  0.00     0.012 C 
ENDBRANCH  16  28
BRANCH  14  31
HETATM   31  C   UNL     1      47.281  17.839  40.232  1.00  0.00     0.010 C 
HETATM   32  C   UNL     1      46.461  18.338  41.420  1.00  0.00     0.012 C 
HETATM   33  C   UNL     1      48.568  18.648  40.092  1.00  0.00     0.012 C 
ENDBRANCH  14  31
BRANCH  13  34
HETATM   34  C   UNL     1      45.439   9.518  43.693  1.00  0.00     0.010 C 
HETATM   35  C   UNL     1      46.629   8.667  44.136  1.00  0.00     0.012 C 
HETATM   36  C   UNL     1      44.321   8.631  43.151  1.00  0.00     0.012 C 
ENDBRANCH  13  34
BRANCH  18  37
HETATM   37  C   UNL     1      50.082  12.677  38.113  1.00  0.00     0.016 C 
HETATM   38  C   UNL     1      49.533  11.260  38.283  1.00  0.00     0.012 C 
HETATM   39  C   UNL     1      51.035  12.742  36.921  1.00  0.00     0.012 C 
ENDBRANCH  18  37
BRANCH  17  40
HETATM   40  C   UNL     1      43.212   9.233  39.468  1.00  0.00     0.016 C 
HETATM   41  C   UNL     1      42.642   8.857  38.102  1.00  0.00     0.012 C 
HETATM   42  C   UNL     1      42.094   9.348  40.502  1.00  0.00     0.012 C 
ENDBRANCH  17  40
BRANCH  15  43
HETATM   43  C   UNL     1      45.269  12.302  35.209  1.00  0.00     0.010 C 
HETATM   44  C   UNL     1      43.979  11.495  35.084  1.00  0.00     0.012 C 
HETATM   45  C   UNL     1      44.962  13.788  35.368  1.00  0.00     0.012 C 
ENDBRANCH  15  43
TORSDOF 6
ENDMDL
MODEL 6
REMARK VINA RESULT:    -4.893      3.017      5.629
REMARK INTER + INTRA:          -5.746
REMARK INTER:                  -6.445
REMARK INTRA:                   0.699
REMARK UNBOUND:                 0.863
REMARK  6 active torsions:
REMARK  status: ('A' for Active; 'I' for Inactive)
REMARK    1  A    between atoms: C_13  and  C_16 
REMARK    2  A    between atoms: C_14  and  C_17 
REMARK    3  A    between atoms: C_15  and  C_18 
REMARK    4  A    between atoms: C_19  and  C_22 
REMARK    5  A    between atoms: C_20  and  C_23 
REMARK    6  A    between atoms: C_21  and  C_24 
ROOT
HETATM    1  O   UNL     1      50.037  12.577  41.955  1.00  0.00    -0.304 OA
HETATM    2  O   UNL     1      46.045  13.534  38.803  1.00  0.00    -0.304 OA
HETATM    3  O   UNL     1      50.323  14.791  37.231  1.00  0.00    -0.304 OA
HETATM    4  O   UNL     1      48.954  11.611  39.807  1.00  0.00    -0.270 OA
HETATM    5  O   UNL     1      51.638  12.400  38.888  1.00  0.00    -0.270 OA
HETATM    6  O   UNL     1      46.479  14.686  35.805  1.00  0.00    -0.270 OA
HETATM    7  O   UNL     1      49.520  14.766  41.446  1.00  0.00    -0.263 OA
HETATM    8  O   UNL     1      45.762  12.086  37.036  1.00  0.00    -0.263 OA
HETATM    9  O   UNL     1      51.031  16.252  35.607  1.00  0.00    -0.263 OA
HETATM   10  N   UNL     1      46.756  11.673  40.521  1.00  0.00    -0.340 N 
HETATM   11  N   UNL     1      51.839  14.515  39.822  1.00  0.00    -0.340 N 
HETATM   12  N   UNL     1      47.831  15.778  37.351  1.00  0.00    -0.340 N 
HETATM   13  C   UNL     1      46.294  11.180  39.207  1.00  0.00     0.190 C 
HETATM   14  C   UNL     1      51.797  13.947  41.185  1.00  0.00     0.190 C 
HETATM   15  C   UNL     1      48.719  16.329  36.307  1.00  0.00     0.190 C 
HETATM   16  C   UNL     1      48.642  12.231  42.096  1.00  0.00     0.227 C 
HETATM   17  C   UNL     1      45.679  14.714  38.069  1.00  0.00     0.227 C 
HETATM   18  C   UNL     1      51.641  14.221  37.337  1.00  0.00     0.227 C 
HETATM   19  C   UNL     1      48.137  11.818  40.711  1.00  0.00     0.250 C 
HETATM   20  C   UNL     1      51.708  13.625  38.741  1.00  0.00     0.250 C 
HETATM   21  C   UNL     1      46.695  15.044  36.966  1.00  0.00     0.250 C 
HETATM   22  C   UNL     1      50.324  13.849  41.546  1.00  0.00     0.283 C 
HETATM   23  C   UNL     1      46.019  12.308  38.215  1.00  0.00     0.283 C 
HETATM   24  C   UNL     1      50.155  15.808  36.341  1.00  0.00     0.283 C 
HETATM   25  C   UNL     1      45.739  12.013  41.521  1.00  0.00     0.153 C 
HETATM   26  C   UNL     1      51.978  15.969  39.690  1.00  0.00     0.153 C 
HETATM   27  C   UNL     1      48.085  16.180  38.736  1.00  0.00     0.153 C 
ENDROOT
BRANCH  16  28
HETATM   28  C   UNL     1      48.574  11.061  43.065  1.00  0.00     0.016 C 
HETATM   29  C   UNL     1      49.969  10.498  43.330  1.00  0.00     0.012 C 
HETATM   30  C   UNL     1      47.910  11.481  44.376  1.00  0.00     0.012 C 
ENDBRANCH  16  28
BRANCH  14  31
HETATM   31  C   UNL     1      52.551  14.724  42.256  1.00  0.00     0.010 C 
HETATM   32  C   UNL     1      52.003  14.396  43.643  1.00  0.00     0.012 C 
HETATM   33  C   UNL     1      54.046  14.422  42.186  1.00  0.00     0.012 C 
ENDBRANCH  14  31
BRANCH  13  34
HETATM   34  C   UNL     1      45.078  10.257  39.288  1.00  0.00     0.010 C 
HETATM   35  C   UNL     1      45.322   8.972  38.497  1.00  0.00     0.012 C 
HETATM   36  C   UNL     1      43.825  10.968  38.779  1.00  0.00     0.012 C 
ENDBRANCH  13  34
BRANCH  18  37
HETATM   37  C   UNL     1      51.797  13.149  36.261  1.00  0.00     0.016 C 
HETATM   38  C   UNL     1      50.451  12.846  35.603  1.00  0.00     0.012 C 
HETATM   39  C   UNL     1      52.821  13.581  35.213  1.00  0.00     0.012 C 
ENDBRANCH  18  37
BRANCH  17  40
HETATM   40  C   UNL     1      44.245  14.635  37.545  1.00  0.00     0.016 C 
HETATM   41  C   UNL     1      43.900  15.880  36.731  1.00  0.00     0.012 C 
HETATM   42  C   UNL     1      43.260  14.458  38.699  1.00  0.00     0.012 C 
ENDBRANCH  17  40
BRANCH  15  43
HETATM   43  C   UNL     1      48.704  17.858  36.313  1.00  0.00     0.010 C 
HETATM   44  C   UNL     1      49.984  18.402  36.943  1.00  0.00     0.012 C 
HETATM   45  C   UNL     1      48.529  18.396  34.896  1.00  0.00     0.012 C 
ENDBRANCH  15  43
TORSDOF 6
ENDMDL
MODEL 7
REMARK VINA RESULT:    -4.828      2.635      7.391
REMARK INTER + INTRA:          -5.659
REMARK INTER:                  -7.257
REMARK INTRA:                   1.598
REMARK UNBOUND:                 0.863
REMARK  6 active torsions:
REMARK  status: ('A' for Active; 'I' for Inactive)
REMARK    1  A    between atoms: C_13  and  C_16 
REMARK    2  A    between atoms: C_14  and  C_17 
REMARK    3  A    between atoms: C_15  and  C_18 
REMARK    4  A    between atoms: C_19  and  C_22 
REMARK    5  A    between atoms: C_20  and  C_23 
REMARK    6  A    between atoms: C_21  and  C_24 
ROOT
HETATM    1  O   UNL     1      45.075  16.260  38.555  1.00  0.00    -0.304 OA
HETATM    2  O   UNL     1      49.672  13.999  37.821  1.00  0.00    -0.304 OA
HETATM    3  O   UNL     1      46.829  12.007  41.032  1.00  0.00    -0.304 OA
HETATM    4  O   UNL     1      46.075  14.177  37.379  1.00  0.00    -0.270 OA
HETATM    5  O   UNL     1      44.276  12.994  39.388  1.00  0.00    -0.270 OA
HETATM    6  O   UNL     1      50.455  11.215  39.285  1.00  0.00    -0.270 OA
HETATM    7  O   UNL     1      46.590  16.227  40.294  1.00  0.00    -0.263 OA
HETATM    8  O   UNL     1      49.679  12.075  36.556  1.00  0.00    -0.263 OA
HETATM    9  O   UNL     1      47.204  10.569  42.782  1.00  0.00    -0.263 OA
HETATM   10  N   UNL     1      47.864  15.233  36.363  1.00  0.00    -0.340 N 
HETATM   11  N   UNL     1      44.814  14.236  41.273  1.00  0.00    -0.340 N 
HETATM   12  N   UNL     1      49.408  12.691  40.746  1.00  0.00    -0.340 N 
HETATM   13  C   UNL     1      48.343  13.943  35.822  1.00  0.00     0.190 C 
HETATM   14  C   UNL     1      44.303  15.469  40.639  1.00  0.00     0.190 C 
HETATM   15  C   UNL     1      49.101  11.630  41.728  1.00  0.00     0.190 C 
HETATM   16  C   UNL     1      46.112  16.560  37.596  1.00  0.00     0.227 C 
HETATM   17  C   UNL     1      50.667  13.547  38.756  1.00  0.00     0.227 C 
HETATM   18  C   UNL     1      45.407  11.801  41.126  1.00  0.00     0.227 C 
HETATM   19  C   UNL     1      46.678  15.222  37.111  1.00  0.00     0.250 C 
HETATM   20  C   UNL     1      44.779  13.052  40.515  1.00  0.00     0.250 C 
HETATM   21  C   UNL     1      50.165  12.371  39.606  1.00  0.00     0.250 C 
HETATM   22  C   UNL     1      45.467  16.038  39.845  1.00  0.00     0.283 C 
HETATM   23  C   UNL     1      49.292  13.218  36.774  1.00  0.00     0.283 C 
HETATM   24  C   UNL     1      47.614  11.345  41.926  1.00  0.00     0.283 C 
HETATM   25  C   UNL     1      48.679  16.425  36.113  1.00  0.00     0.153 C 
HETATM   26  C   UNL     1      45.353  14.338  42.633  1.00  0.00     0.153 C 
HETATM   27  C   UNL     1      49.056  14.067  41.105  1.00  0.00     0.153 C 
ENDROOT
BRANCH  16  28
HETATM   28  C   UNL     1      45.449  17.310  36.450  1.00  0.00     0.016 C 
HETATM   29  C   UNL     1      43.998  16.862  36.281  1.00  0.00     0.012 C 
HETATM   30  C   UNL     1      45.519  18.819  36.679  1.00  0.00     0.012 C 
ENDBRANCH  16  28
BRANCH  14  31
HETATM   31  C   UNL     1      43.746  16.525  41.586  1.00  0.00     0.010 C 
HETATM   32  C   UNL     1      44.521  17.834  41.446  1.00  0.00     0.012 C 
HETATM   33  C   UNL     1      42.259  16.751  41.322  1.00  0.00     0.012 C 
ENDBRANCH  14  31
BRANCH  13  34
HETATM   34  C   UNL     1      48.986  14.056  34.440  1.00  0.00     0.010 C 
HETATM   35  C   UNL     1      48.080  14.832  33.485  1.00  0.00     0.012 C 
HETATM   36  C   UNL     1      49.298  12.672  33.874  1.00  0.00     0.012 C 
ENDBRANCH  13  34
BRANCH  18  37
HETATM   37  C   UNL     1      45.042  10.545  40.339  1.00  0.00     0.016 C 
HETATM   38  C   UNL     1      46.179  10.151  39.397  1.00  0.00     0.012 C 
HETATM   39  C   UNL     1      44.707   9.394  41.285  1.00  0.00     0.012 C 
ENDBRANCH  18  37
BRANCH  17  40
HETATM   40  C   UNL     1      52.000  13.253  38.069  1.00  0.00     0.016 C 
HETATM   41  C   UNL     1      53.162  13.458  39.038  1.00  0.00     0.012 C 
HETATM   42  C   UNL     1      52.172  14.130  36.831  1.00  0.00     0.012 C 
ENDBRANCH  17  40
BRANCH  15  43
HETATM   43  C   UNL     1      49.778  11.904  43.072  1.00  0.00     0.010 C 
HETATM   44  C   UNL     1      48.774  12.481  44.067  1.00  0.00     0.012 C 
HETATM   45  C   UNL     1      50.409  10.629  43.621  1.00  0.00     0.012 C 
ENDBRANCH  15  43
TORSDOF 6
ENDMDL
MODEL 8
REMARK VINA RESULT:    -4.805      2.753      7.015
REMARK INTER + INTRA:          -5.628
REMARK INTER:                  -7.089
REMARK INTRA:                   1.461
REMARK UNBOUND:                 0.863
REMARK  6 active torsions:
REMARK  status: ('A' for Active; 'I' for Inactive)
REMARK    1  A    between atoms: C_13  and  C_16 
REMARK    2  A    between atoms: C_14  and  C_17 
REMARK    3  A    between atoms: C_15  and  C_18 
REMARK    4  A    between atoms: C_19  and  C_22 
REMARK    5  A    between atoms: C_20  and  C_23 
REMARK    6  A    between atoms: C_21  and  C_24 
ROOT
HETATM    1  O   UNL     1      46.756  12.262  38.055  1.00  0.00    -0.304 OA
HETATM    2  O   UNL     1      43.916  14.687  41.637  1.00  0.00    -0.304 OA
HETATM    3  O   UNL     1      47.476  17.154  39.742  1.00  0.00    -0.304 OA
HETATM    4  O   UNL     1      44.894  14.060  38.200  1.00  0.00    -0.270 OA
HETATM    5  O   UNL     1      47.142  15.541  37.007  1.00  0.00    -0.270 OA
HETATM    6  O   UNL     1      44.381  17.814  42.351  1.00  0.00    -0.270 OA
HETATM    7  O   UNL     1      47.758  12.883  40.037  1.00  0.00    -0.263 OA
HETATM    8  O   UNL     1      42.376  16.214  40.865  1.00  0.00    -0.263 OA
HETATM    9  O   UNL     1      48.627  19.022  40.420  1.00  0.00    -0.263 OA
HETATM   10  N   UNL     1      43.522  12.954  39.698  1.00  0.00    -0.340 N 
HETATM   11  N   UNL     1      48.901  14.880  38.368  1.00  0.00    -0.340 N 
HETATM   12  N   UNL     1      46.395  16.668  42.149  1.00  0.00    -0.340 N 
HETATM   13  C   UNL     1      42.591  14.102  39.722  1.00  0.00     0.190 C 
HETATM   14  C   UNL     1      48.769  13.483  37.906  1.00  0.00     0.190 C 
HETATM   15  C   UNL     1      47.181  17.911  42.007  1.00  0.00     0.190 C 
HETATM   16  C   UNL     1      45.562  11.827  38.741  1.00  0.00     0.227 C 
HETATM   17  C   UNL     1      44.299  15.455  42.791  1.00  0.00     0.227 C 
HETATM   18  C   UNL     1      48.050  17.241  38.424  1.00  0.00     0.227 C 
HETATM   19  C   UNL     1      44.639  13.043  38.856  1.00  0.00     0.250 C 
HETATM   20  C   UNL     1      47.986  15.822  37.864  1.00  0.00     0.250 C 
HETATM   21  C   UNL     1      45.015  16.757  42.403  1.00  0.00     0.250 C 
HETATM   22  C   UNL     1      47.732  12.843  38.814  1.00  0.00     0.283 C 
HETATM   23  C   UNL     1      42.950  15.134  40.789  1.00  0.00     0.283 C 
HETATM   24  C   UNL     1      47.858  18.095  40.650  1.00  0.00     0.283 C 
HETATM   25  C   UNL     1      43.235  11.821  40.582  1.00  0.00     0.153 C 
HETATM   26  C   UNL     1      49.951  15.182  39.346  1.00  0.00     0.153 C 
HETATM   27  C   UNL     1      47.132  15.403  42.195  1.00  0.00     0.153 C 
ENDROOT
BRANCH  16  28
HETATM   28  C   UNL     1      44.925  10.749  37.876  1.00  0.00     0.016 C 
HETATM   29  C   UNL     1      45.125  11.059  36.393  1.00  0.00     0.012 C 
HETATM   30  C   UNL     1      45.499   9.374  38.216  1.00  0.00     0.012 C 
ENDBRANCH  16  28
BRANCH  14  31
HETATM   31  C   UNL     1      50.049  12.657  37.905  1.00  0.00     0.010 C 
HETATM   32  C   UNL     1      49.747  11.199  38.246  1.00  0.00     0.012 C 
HETATM   33  C   UNL     1      50.752  12.757  36.553  1.00  0.00     0.012 C 
ENDBRANCH  14  31
BRANCH  13  34
HETATM   34  C   UNL     1      41.123  13.701  39.867  1.00  0.00     0.010 C 
HETATM   35  C   UNL     1      40.278  14.342  38.767  1.00  0.00     0.012 C 
HETATM   36  C   UNL     1      40.590  14.088  41.245  1.00  0.00     0.012 C 
ENDBRANCH  13  34
BRANCH  18  37
HETATM   37  C   UNL     1      47.218  18.213  37.592  1.00  0.00     0.016 C 
HETATM   38  C   UNL     1      47.803  18.358  36.187  1.00  0.00     0.012 C 
HETATM   39  C   UNL     1      45.762  17.755  37.520  1.00  0.00     0.012 C 
ENDBRANCH  18  37
BRANCH  17  40
HETATM   40  C   UNL     1      43.119  15.690  43.734  1.00  0.00     0.016 C 
HETATM   41  C   UNL     1      43.550  16.528  44.936  1.00  0.00     0.012 C 
HETATM   42  C   UNL     1      42.525  14.359  44.193  1.00  0.00     0.012 C 
ENDBRANCH  17  40
BRANCH  15  43
HETATM   43  C   UNL     1      48.201  18.056  43.137  1.00  0.00     0.010 C 
HETATM   44  C   UNL     1      47.581  17.649  44.471  1.00  0.00     0.012 C 
HETATM   45  C   UNL     1      49.445  17.223  42.844  1.00  0.00     0.012 C 
ENDBRANCH  15  43
TORSDOF 6
ENDMDL
MODEL 9
REMARK VINA RESULT:    -4.765      2.111      5.177
REMARK INTER + INTRA:          -5.573
REMARK INTER:                  -6.882
REMARK INTRA:                   1.309
REMARK UNBOUND:                 0.863
REMARK  6 active torsions:
REMARK  status: ('A' for Active; 'I' for Inactive)
REMARK    1  A    between atoms: C_13  and  C_16 
REMARK    2  A    between atoms: C_14  and  C_17 
REMARK    3  A    between atoms: C_15  and  C_18 
REMARK    4  A    between atoms: C_19  and  C_22 
REMARK    5  A    between atoms: C_20  and  C_23 
REMARK    6  A    between atoms: C_21  and  C_24 
ROOT
HETATM    1  O   UNL     1      46.228  16.194  37.393  1.00  0.00    -0.304 OA
HETATM    2  O   UNL     1      44.240  14.367  41.809  1.00  0.00    -0.304 OA
HETATM    3  O   UNL     1      46.206  11.193  38.908  1.00  0.00    -0.304 OA
HETATM    4  O   UNL     1      47.032  15.352  39.709  1.00  0.00    -0.270 OA
HETATM    5  O   UNL     1      48.243  13.413  37.853  1.00  0.00    -0.270 OA
HETATM    6  O   UNL     1      44.562  11.257  42.665  1.00  0.00    -0.270 OA
HETATM    7  O   UNL     1      44.432  14.751  37.292  1.00  0.00    -0.263 OA
HETATM    8  O   UNL     1      45.743  13.853  43.475  1.00  0.00    -0.263 OA
HETATM    9  O   UNL     1      46.012   8.913  38.712  1.00  0.00    -0.263 OA
HETATM   10  N   UNL     1      45.512  16.523  41.001  1.00  0.00    -0.340 N 
HETATM   11  N   UNL     1      46.452  12.933  36.458  1.00  0.00    -0.340 N 
HETATM   12  N   UNL     1      44.006  11.479  40.417  1.00  0.00    -0.340 N 
HETATM   13  C   UNL     1      46.044  15.896  42.230  1.00  0.00     0.190 C 
HETATM   14  C   UNL     1      46.427  14.326  35.966  1.00  0.00     0.190 C 
HETATM   15  C   UNL     1      44.422  10.098  40.094  1.00  0.00     0.190 C 
HETATM   16  C   UNL     1      45.656  16.902  38.514  1.00  0.00     0.227 C 
HETATM   17  C   UNL     1      43.369  13.253  42.067  1.00  0.00     0.227 C 
HETATM   18  C   UNL     1      47.353  11.201  38.036  1.00  0.00     0.227 C 
HETATM   19  C   UNL     1      46.125  16.188  39.785  1.00  0.00     0.250 C 
HETATM   20  C   UNL     1      47.398  12.609  37.447  1.00  0.00     0.250 C 
HETATM   21  C   UNL     1      44.044  11.910  41.754  1.00  0.00     0.250 C 
HETATM   22  C   UNL     1      45.553  15.094  36.942  1.00  0.00     0.283 C 
HETATM   23  C   UNL     1      45.345  14.582  42.573  1.00  0.00     0.283 C 
HETATM   24  C   UNL     1      45.620   9.989  39.153  1.00  0.00     0.283 C 
HETATM   25  C   UNL     1      44.360  17.420  41.133  1.00  0.00     0.153 C 
HETATM   26  C   UNL     1      45.467  11.996  35.910  1.00  0.00     0.153 C 
HETATM   27  C   UNL     1      43.404  12.272  39.343  1.00  0.00     0.153 C 
ENDROOT
BRANCH  16  28
HETATM   28  C   UNL     1      46.200  18.322  38.462  1.00  0.00     0.016 C 
HETATM   29  C   UNL     1      47.684  18.344  38.826  1.00  0.00     0.012 C 
HETATM   30  C   UNL     1      45.979  18.935  37.080  1.00  0.00     0.012 C 
ENDBRANCH  16  28
BRANCH  14  31
HETATM   31  C   UNL     1      45.923  14.522  34.541  1.00  0.00     0.010 C 
HETATM   32  C   UNL     1      45.468  15.963  34.326  1.00  0.00     0.012 C 
HETATM   33  C   UNL     1      47.005  14.145  33.532  1.00  0.00     0.012 C 
ENDBRANCH  14  31
BRANCH  13  34
HETATM   34  C   UNL     1      46.031  16.819  43.447  1.00  0.00     0.010 C 
HETATM   35  C   UNL     1      47.412  16.872  44.099  1.00  0.00     0.012 C 
HETATM   36  C   UNL     1      44.980  16.366  44.459  1.00  0.00     0.012 C 
ENDBRANCH  13  34
BRANCH  18  37
HETATM   37  C   UNL     1      48.598  10.896  38.864  1.00  0.00     0.016 C 
HETATM   38  C   UNL     1      49.865  11.164  38.052  1.00  0.00     0.012 C 
HETATM   39  C   UNL     1      48.605  11.717  40.153  1.00  0.00     0.012 C 
ENDBRANCH  18  37
BRANCH  17  40
HETATM   40  C   UNL     1      42.783  13.305  43.478  1.00  0.00     0.016 C 
HETATM   41  C   UNL     1      41.900  12.087  43.739  1.00  0.00     0.012 C 
HETATM   42  C   UNL     1      41.993  14.596  43.685  1.00  0.00     0.012 C 
ENDBRANCH  17  40
BRANCH  15  43
HETATM   43  C   UNL     1      43.248   9.273  39.565  1.00  0.00     0.010 C 
HETATM   44  C   UNL     1      43.364   9.088  38.054  1.00  0.00     0.012 C 
HETATM   45  C   UNL     1      43.185   7.921  40.270  1.00  0.00     0.012 C 
ENDBRANCH  15  43
TORSDOF 6
ENDMDL
MODEL 10
REMARK VINA RESULT:    -4.748      2.292      6.631
REMARK INTER + INTRA:          -5.550
REMARK INTER:                  -6.444
REMARK INTRA:                   0.894
REMARK UNBOUND:                 0.863
REMARK  6 active torsions:
REMARK  status: ('A' for Active; 'I' for Inactive)
REMARK    1  A    between atoms: C_13  and  C_16 
REMARK    2  A    between atoms: C_14  and  C_17 
REMARK    3  A    between atoms: C_15  and  C_18 
REMARK    4  A    between atoms: C_19  and  C_22 
REMARK    5  A    between atoms: C_20  and  C_23 
REMARK    6  A    between atoms: C_21  and  C_24 
ROOT
HETATM    1  O   UNL     1      45.947  14.003  37.815  1.00  0.00    -0.304 OA
HETATM    2  O   UNL     1      44.643  10.869  41.721  1.00  0.00    -0.304 OA
HETATM    3  O   UNL     1      43.040  15.310  41.955  1.00  0.00    -0.304 OA
HETATM    4  O   UNL     1      43.895  12.662  38.657  1.00  0.00    -0.270 OA
HETATM    5  O   UNL     1      42.946  15.448  38.766  1.00  0.00    -0.270 OA
HETATM    6  O   UNL     1      42.616  11.819  44.065  1.00  0.00    -0.270 OA
HETATM    7  O   UNL     1      46.731  14.477  39.932  1.00  0.00    -0.263 OA
HETATM    8  O   UNL     1      42.496  10.038  41.698  1.00  0.00    -0.263 OA
HETATM    9  O   UNL     1      42.261  16.609  43.681  1.00  0.00    -0.263 OA
HETATM   10  N   UNL     1      44.996  10.682  39.122  1.00  0.00    -0.340 N 
HETATM   11  N   UNL     1      44.747  16.506  39.776  1.00  0.00    -0.340 N 
HETATM   12  N   UNL     1      44.170  13.471  43.548  1.00  0.00    -0.340 N 
HETATM   13  C   UNL     1      43.746  10.085  39.636  1.00  0.00     0.190 C 
HETATM   14  C   UNL     1      45.613  16.195  38.620  1.00  0.00     0.190 C 
HETATM   15  C   UNL     1      43.381  14.533  44.206  1.00  0.00     0.190 C 
HETATM   16  C   UNL     1      46.191  12.590  37.990  1.00  0.00     0.227 C 
HETATM   17  C   UNL     1      44.699  11.055  43.146  1.00  0.00     0.227 C 
HETATM   18  C   UNL     1      42.560  16.259  40.983  1.00  0.00     0.227 C 
HETATM   19  C   UNL     1      44.931  11.990  38.619  1.00  0.00     0.250 C 
HETATM   20  C   UNL     1      43.422  16.034  39.743  1.00  0.00     0.250 C 
HETATM   21  C   UNL     1      43.722  12.141  43.622  1.00  0.00     0.250 C 
HETATM   22  C   UNL     1      46.182  14.813  38.890  1.00  0.00     0.283 C 
HETATM   23  C   UNL     1      43.540  10.338  41.128  1.00  0.00     0.283 C 
HETATM   24  C   UNL     1      42.841  15.611  43.268  1.00  0.00     0.283 C 
HETATM   25  C   UNL     1      46.222   9.884  39.206  1.00  0.00     0.153 C 
HETATM   26  C   UNL     1      45.336  17.252  40.892  1.00  0.00     0.153 C 
HETATM   27  C   UNL     1      45.478  13.840  43.002  1.00  0.00     0.153 C 
ENDROOT
BRANCH  16  28
HETATM   28  C   UNL     1      46.430  12.009  36.605  1.00  0.00     0.016 C 
HETATM   29  C   UNL     1      45.244  12.299  35.686  1.00  0.00     0.012 C 
HETATM   30  C   UNL     1      47.720  12.563  36.001  1.00  0.00     0.012 C 
ENDBRANCH  16  28
BRANCH  14  31
HETATM   31  C   UNL     1      46.739  17.183  38.344  1.00  0.00     0.010 C 
HETATM   32  C   UNL     1      47.881  16.500  37.595  1.00  0.00     0.012 C 
HETATM   33  C   UNL     1      46.220  18.382  37.553  1.00  0.00     0.012 C 
ENDBRANCH  14  31
BRANCH  13  34
HETATM   34  C   UNL     1      43.611   8.591  39.344  1.00  0.00     0.010 C 
HETATM   35  C   UNL     1      42.365   8.316  38.503  1.00  0.00     0.012 C 
HETATM   36  C   UNL     1      43.568   7.787  40.642  1.00  0.00     0.012 C 
ENDBRANCH  13  34
BRANCH  18  37
HETATM   37  C   UNL     1      41.087  15.970  40.705  1.00  0.00     0.016 C 
HETATM   38  C   UNL     1      40.619  14.747  41.494  1.00  0.00     0.012 C 
HETATM   39  C   UNL     1      40.225  17.185  41.041  1.00  0.00     0.012 C 
ENDBRANCH  18  37
BRANCH  17  40
HETATM   40  C   UNL     1      44.527   9.736  43.899  1.00  0.00     0.016 C 
HETATM   41  C   UNL     1      44.562   9.970  45.408  1.00  0.00     0.012 C 
HETATM   42  C   UNL     1      45.606   8.737  43.485  1.00  0.00     0.012 C 
ENDBRANCH  17  40
BRANCH  15  43
HETATM   43  C   UNL     1      44.157  15.169  45.360  1.00  0.00     0.010 C 
HETATM   44  C   UNL     1      44.760  16.503  44.927  1.00  0.00     0.012 C 
HETATM   45  C   UNL     1      43.252  15.355  46.574  1.00  0.00     0.012 C 
ENDBRANCH  15  43
TORSDOF 6
ENDMDL
MODEL 11
REMARK VINA RESULT:    -4.705      4.160      7.558
REMARK INTER + INTRA:          -5.493
REMARK INTER:                  -6.215
REMARK INTRA:                   0.722
REMARK UNBOUND:                 0.863
REMARK  6 active torsions:
REMARK  status: ('A' for Active; 'I' for Inactive)
REMARK    1  A    between atoms: C_13  and  C_16 
REMARK    2  A    between atoms: C_14  and  C_17 
REMARK    3  A    between atoms: C_15  and  C_18 
REMARK    4  A    between atoms: C_19  and  C_22 
REMARK    5  A    between atoms: C_20  and  C_23 
REMARK    6  A    between atoms: C_21  and  C_24 
ROOT
HETATM    1  O   UNL     1      48.377  17.388  41.983  1.00  0.00    -0.304 OA
HETATM    2  O   UNL     1      51.258  15.645  38.052  1.00  0.00    -0.304 OA
HETATM    3  O   UNL     1      46.698  16.477  37.120  1.00  0.00    -0.304 OA
HETATM    4  O   UNL     1      49.521  18.285  39.836  1.00  0.00    -0.270 OA
HETATM    5  O   UNL     1      46.667  18.793  39.317  1.00  0.00    -0.270 OA
HETATM    6  O   UNL     1      50.067  15.392  35.048  1.00  0.00    -0.270 OA
HETATM    7  O   UNL     1      47.892  15.324  41.077  1.00  0.00    -0.263 OA
HETATM    8  O   UNL     1      51.916  17.205  36.492  1.00  0.00    -0.263 OA
HETATM    9  O   UNL     1      45.281  15.768  35.457  1.00  0.00    -0.263 OA
HETATM   10  N   UNL     1      51.564  17.239  40.122  1.00  0.00    -0.340 N 
HETATM   11  N   UNL     1      45.719  16.774  39.956  1.00  0.00    -0.340 N 
HETATM   12  N   UNL     1      48.562  14.609  36.640  1.00  0.00    -0.340 N 
HETATM   13  C   UNL     1      52.042  17.777  38.831  1.00  0.00     0.190 C 
HETATM   14  C   UNL     1      46.138  16.988  41.356  1.00  0.00     0.190 C 
HETATM   15  C   UNL     1      47.418  14.669  35.706  1.00  0.00     0.190 C 
HETATM   16  C   UNL     1      49.798  17.135  41.916  1.00  0.00     0.227 C 
HETATM   17  C   UNL     1      51.025  14.593  37.100  1.00  0.00     0.227 C 
HETATM   18  C   UNL     1      45.750  17.474  37.545  1.00  0.00     0.227 C 
HETATM   19  C   UNL     1      50.274  17.600  40.537  1.00  0.00     0.250 C 
HETATM   20  C   UNL     1      46.086  17.748  39.010  1.00  0.00     0.250 C 
HETATM   21  C   UNL     1      49.850  14.914  36.165  1.00  0.00     0.250 C 
HETATM   22  C   UNL     1      47.551  16.438  41.454  1.00  0.00     0.283 C 
HETATM   23  C   UNL     1      51.721  16.861  37.653  1.00  0.00     0.283 C 
HETATM   24  C   UNL     1      46.336  15.680  36.076  1.00  0.00     0.283 C 
HETATM   25  C   UNL     1      52.453  16.337  40.860  1.00  0.00     0.153 C 
HETATM   26  C   UNL     1      44.982  15.545  39.642  1.00  0.00     0.153 C 
HETATM   27  C   UNL     1      48.318  14.059  37.975  1.00  0.00     0.153 C 
ENDROOT
BRANCH  16  28
HETATM   28  C   UNL     1      50.445  17.964  43.016  1.00  0.00     0.016 C 
HETATM   29  C   UNL     1      49.509  19.083  43.470  1.00  0.00     0.012 C 
HETATM   30  C   UNL     1      50.834  17.080  44.201  1.00  0.00     0.012 C 
ENDBRANCH  16  28
BRANCH  14  31
HETATM   31  C   UNL     1      45.252  16.357  42.423  1.00  0.00     0.010 C 
HETATM   32  C   UNL     1      46.010  16.229  43.743  1.00  0.00     0.012 C 
HETATM   33  C   UNL     1      43.977  17.174  42.614  1.00  0.00     0.012 C 
ENDBRANCH  14  31
BRANCH  13  34
HETATM   34  C   UNL     1      53.531  18.124  38.822  1.00  0.00     0.010 C 
HETATM   35  C   UNL     1      53.746  19.559  38.341  1.00  0.00     0.012 C 
HETATM   36  C   UNL     1      54.310  17.144  37.948  1.00  0.00     0.012 C 
ENDBRANCH  13  34
BRANCH  18  37
HETATM   37  C   UNL     1      45.931  18.721  36.683  1.00  0.00     0.016 C 
HETATM   38  C   UNL     1      47.275  18.681  35.955  1.00  0.00     0.012 C 
HETATM   39  C   UNL     1      44.785  18.858  35.684  1.00  0.00     0.012 C 
ENDBRANCH  18  37
BRANCH  17  40
HETATM   40  C   UNL     1      52.299  14.223  36.341  1.00  0.00     0.016 C 
HETATM   41  C   UNL     1      52.007  13.155  35.288  1.00  0.00     0.012 C 
HETATM   42  C   UNL     1      53.380  13.742  37.307  1.00  0.00     0.012 C 
ENDBRANCH  17  40
BRANCH  15  43
HETATM   43  C   UNL     1      46.806  13.285  35.488  1.00  0.00     0.010 C 
HETATM   44  C   UNL     1      45.599  13.086  36.401  1.00  0.00     0.012 C 
HETATM   45  C   UNL     1      46.411  13.100  34.026  1.00  0.00     0.012 C 
ENDBRANCH  15  43
TORSDOF 6
ENDMDL
MODEL 12
REMARK VINA RESULT:    -4.700      2.956      6.897
REMARK INTER + INTRA:          -5.485
REMARK INTER:                  -6.182
REMARK INTRA:                   0.697
REMARK UNBOUND:                 0.863
REMARK  6 active torsions:
REMARK  status: ('A' for Active; 'I' for Inactive)
REMARK    1  A    between atoms: C_13  and  C_16 
REMARK    2  A    between atoms: C_14  and  C_17 
REMARK    3  A    between atoms: C_15  and  C_18 
REMARK    4  A    between atoms: C_19  and  C_22 
REMARK    5  A    between atoms: C_20  and  C_23 
REMARK    6  A    between atoms: C_21  and  C_24 
ROOT
HETATM    1  O   UNL     1      46.313  11.206  39.908  1.00  0.00    -0.304 OA
HETATM    2  O   UNL     1      44.361  13.975  35.995  1.00  0.00    -0.304 OA
HETATM    3  O   UNL     1      49.002  14.413  36.780  1.00  0.00    -0.304 OA
HETATM    4  O   UNL     1      46.224  11.155  37.318  1.00  0.00    -0.270 OA
HETATM    5  O   UNL     1      49.105  11.413  37.868  1.00  0.00    -0.270 OA
HETATM    6  O   UNL     1      46.259  15.707  34.020  1.00  0.00    -0.270 OA
HETATM    7  O   UNL     1      46.362  13.508  40.040  1.00  0.00    -0.263 OA
HETATM    8  O   UNL     1      44.742  13.164  33.874  1.00  0.00    -0.263 OA
HETATM    9  O   UNL     1      50.551  16.002  36.190  1.00  0.00    -0.263 OA
HETATM   10  N   UNL     1      43.969  11.612  37.083  1.00  0.00    -0.340 N 
HETATM   11  N   UNL     1      49.117  13.080  39.482  1.00  0.00    -0.340 N 
HETATM   12  N   UNL     1      46.876  15.960  36.248  1.00  0.00    -0.340 N 
HETATM   13  C   UNL     1      44.103  11.618  35.611  1.00  0.00     0.190 C 
HETATM   14  C   UNL     1      48.384  12.210  40.425  1.00  0.00     0.190 C 
HETATM   15  C   UNL     1      48.205  16.506  35.903  1.00  0.00     0.190 C 
HETATM   16  C   UNL     1      44.977  11.220  39.359  1.00  0.00     0.227 C 
HETATM   17  C   UNL     1      44.521  15.358  35.640  1.00  0.00     0.227 C 
HETATM   18  C   UNL     1      50.044  13.505  37.188  1.00  0.00     0.227 C 
HETATM   19  C   UNL     1      45.116  11.330  37.838  1.00  0.00     0.250 C 
HETATM   20  C   UNL     1      49.386  12.569  38.200  1.00  0.00     0.250 C 
HETATM   21  C   UNL     1      45.962  15.680  35.218  1.00  0.00     0.250 C 
HETATM   22  C   UNL     1      46.910  12.417  40.119  1.00  0.00     0.283 C 
HETATM   23  C   UNL     1      44.455  12.996  35.055  1.00  0.00     0.283 C 
HETATM   24  C   UNL     1      49.388  15.633  36.314  1.00  0.00     0.283 C 
HETATM   25  C   UNL     1      42.658  11.939  37.653  1.00  0.00     0.153 C 
HETATM   26  C   UNL     1      49.479  14.427  39.934  1.00  0.00     0.153 C 
HETATM   27  C   UNL     1      46.515  15.906  37.667  1.00  0.00     0.153 C 
ENDROOT
BRANCH  16  28
HETATM   28  C   UNL     1      44.328   9.900  39.746  1.00  0.00     0.016 C 
HETATM   29  C   UNL     1      45.384   8.892  40.198  1.00  0.00     0.012 C 
HETATM   30  C   UNL     1      43.286  10.110  40.844  1.00  0.00     0.012 C 
ENDBRANCH  16  28
BRANCH  14  31
HETATM   31  C   UNL     1      48.654  12.453  41.905  1.00  0.00     0.010 C 
HETATM   32  C   UNL     1      47.512  11.902  42.756  1.00  0.00     0.012 C 
HETATM   33  C   UNL     1      49.982  11.825  42.319  1.00  0.00     0.012 C 
ENDBRANCH  14  31
BRANCH  13  34
HETATM   34  C   UNL     1      42.881  11.064  34.879  1.00  0.00     0.010 C 
HETATM   35  C   UNL     1      43.269   9.868  34.011  1.00  0.00     0.012 C 
HETATM   36  C   UNL     1      42.221  12.149  34.031  1.00  0.00     0.012 C 
ENDBRANCH  13  34
BRANCH  18  37
HETATM   37  C   UNL     1      50.541  12.748  35.960  1.00  0.00     0.016 C 
HETATM   38  C   UNL     1      49.579  12.934  34.786  1.00  0.00     0.012 C 
HETATM   39  C   UNL     1      51.947  13.205  35.576  1.00  0.00     0.012 C 
ENDBRANCH  18  37
BRANCH  17  40
HETATM   40  C   UNL     1      43.489  15.802  34.603  1.00  0.00     0.016 C 
HETATM   41  C   UNL     1      43.685  17.274  34.245  1.00  0.00     0.012 C 
HETATM   42  C   UNL     1      42.072  15.559  35.118  1.00  0.00     0.012 C 
ENDBRANCH  17  40
BRANCH  15  43
HETATM   43  C   UNL     1      48.378  17.928  36.438  1.00  0.00     0.010 C 
HETATM   44  C   UNL     1      49.266  17.927  37.680  1.00  0.00     0.012 C 
HETATM   45  C   UNL     1      48.961  18.837  35.360  1.00  0.00     0.012 C 
ENDBRANCH  15  43
TORSDOF 6
ENDMDL
MODEL 13
REMARK VINA RESULT:    -4.689      3.065      6.666
REMARK INTER + INTRA:          -5.471
REMARK INTER:                  -6.270
REMARK INTRA:                   0.799
REMARK UNBOUND:                 0.863
REMARK  6 active torsions:
REMARK  status: ('A' for Active; 'I' for Inactive)
REMARK    1  A    between atoms: C_13  and  C_16 
REMARK    2  A    between atoms: C_14  and  C_17 
REMARK    3  A    between atoms: C_15  and  C_18 
REMARK    4  A    between atoms: C_19  and  C_22 
REMARK    5  A    between atoms: C_20  and  C_23 
REMARK    6  A    between atoms: C_21  and  C_24 
ROOT
HETATM    1  O   UNL     1      45.141  16.517  43.178  1.00  0.00    -0.304 OA
HETATM    2  O   UNL     1      45.357  12.938  39.446  1.00  0.00    -0.304 OA
HETATM    3  O   UNL     1      41.064  13.959  41.144  1.00  0.00    -0.304 OA
HETATM    4  O   UNL     1      44.659  16.292  40.641  1.00  0.00    -0.270 OA
HETATM    5  O   UNL     1      42.012  16.946  41.754  1.00  0.00    -0.270 OA
HETATM    6  O   UNL     1      42.673  11.659  38.153  1.00  0.00    -0.270 OA
HETATM    7  O   UNL     1      44.509  14.354  43.671  1.00  0.00    -0.263 OA
HETATM    8  O   UNL     1      44.742  13.619  37.334  1.00  0.00    -0.263 OA
HETATM    9  O   UNL     1      39.056  12.845  41.107  1.00  0.00    -0.263 OA
HETATM   10  N   UNL     1      46.598  15.173  40.062  1.00  0.00    -0.340 N 
HETATM   11  N   UNL     1      41.917  15.517  43.580  1.00  0.00    -0.340 N 
HETATM   12  N   UNL     1      42.525  11.812  40.470  1.00  0.00    -0.340 N 
HETATM   13  C   UNL     1      46.142  15.067  38.660  1.00  0.00     0.190 C 
HETATM   14  C   UNL     1      43.046  16.220  44.223  1.00  0.00     0.190 C 
HETATM   15  C   UNL     1      41.056  11.650  40.468  1.00  0.00     0.190 C 
HETATM   16  C   UNL     1      46.267  16.059  42.397  1.00  0.00     0.227 C 
HETATM   17  C   UNL     1      44.758  11.635  39.346  1.00  0.00     0.227 C 
HETATM   18  C   UNL     1      40.422  15.167  41.594  1.00  0.00     0.227 C 
HETATM   19  C   UNL     1      45.767  15.851  40.965  1.00  0.00     0.250 C 
HETATM   20  C   UNL     1      41.514  15.960  42.307  1.00  0.00     0.250 C 
HETATM   21  C   UNL     1      43.226  11.711  39.256  1.00  0.00     0.250 C 
HETATM   22  C   UNL     1      44.304  15.561  43.682  1.00  0.00     0.283 C 
HETATM   23  C   UNL     1      45.319  13.807  38.400  1.00  0.00     0.283 C 
HETATM   24  C   UNL     1      40.273  12.867  40.953  1.00  0.00     0.283 C 
HETATM   25  C   UNL     1      47.867  14.532  40.420  1.00  0.00     0.153 C 
HETATM   26  C   UNL     1      41.318  14.386  44.295  1.00  0.00     0.153 C 
HETATM   27  C   UNL     1      43.195  11.892  41.770  1.00  0.00     0.153 C 
ENDROOT
BRANCH  16  28
HETATM   28  C   UNL     1      47.314  17.161  42.447  1.00  0.00     0.016 C 
HETATM   29  C   UNL     1      46.813  18.415  41.731  1.00  0.00     0.012 C 
HETATM   30  C   UNL     1      47.689  17.486  43.892  1.00  0.00     0.012 C 
ENDBRANCH  16  28
BRANCH  14  31
HETATM   31  C   UNL     1      43.060  16.209  45.746  1.00  0.00     0.010 C 
HETATM   32  C   UNL     1      44.484  16.371  46.272  1.00  0.00     0.012 C 
HETATM   33  C   UNL     1      42.156  17.308  46.299  1.00  0.00     0.012 C 
ENDBRANCH  14  31
BRANCH  13  34
HETATM   34  C   UNL     1      47.272  15.165  37.635  1.00  0.00     0.010 C 
HETATM   35  C   UNL     1      46.946  16.214  36.573  1.00  0.00     0.012 C 
HETATM   36  C   UNL     1      47.531  13.808  36.985  1.00  0.00     0.012 C 
ENDBRANCH  13  34
BRANCH  18  37
HETATM   37  C   UNL     1      39.883  15.916  40.378  1.00  0.00     0.016 C 
HETATM   38  C   UNL     1      40.433  15.312  39.086  1.00  0.00     0.012 C 
HETATM   39  C   UNL     1      38.356  15.902  40.368  1.00  0.00     0.012 C 
ENDBRANCH  18  37
BRANCH  17  40
HETATM   40  C   UNL     1      45.375  10.810  38.216  1.00  0.00     0.016 C 
HETATM   41  C   UNL     1      44.708   9.440  38.124  1.00  0.00     0.012 C 
HETATM   42  C   UNL     1      46.881  10.662  38.420  1.00  0.00     0.012 C 
ENDBRANCH  17  40
BRANCH  15  43
HETATM   43  C   UNL     1      40.634  10.399  41.240  1.00  0.00     0.010 C 
HETATM   44  C   UNL     1      40.082  10.779  42.612  1.00  0.00     0.012 C 
HETATM   45  C   UNL     1      39.602   9.604  40.446  1.00  0.00     0.012 C 
ENDBRANCH  15  43
TORSDOF 6
ENDMDL
MODEL 14
REMARK VINA RESULT:    -4.670      2.555      8.512
REMARK INTER + INTRA:          -5.445
REMARK INTER:                  -6.231
REMARK INTRA:                   0.785
REMARK UNBOUND:                 0.863
REMARK  6 active torsions:
REMARK  status: ('A' for Active; 'I' for Inactive)
REMARK    1  A    between atoms: C_13  and  C_16 
REMARK    2  A    between atoms: C_14  and  C_17 
REMARK    3  A    between atoms: C_15  and  C_18 
REMARK    4  A    between atoms: C_19  and  C_22 
REMARK    5  A    between atoms: C_20  and  C_23 
REMARK    6  A    between atoms: C_21  and  C_24 
ROOT
HETATM    1  O   UNL     1      42.539   8.942  37.872  1.00  0.00    -0.304 OA
HETATM    2  O   UNL     1      44.908  13.310  39.317  1.00  0.00    -0.304 OA
HETATM    3  O   UNL     1      42.568  10.964  42.689  1.00  0.00    -0.304 OA
HETATM    4  O   UNL     1      44.670   9.693  39.142  1.00  0.00    -0.270 OA
HETATM    5  O   UNL     1      43.174   8.207  41.197  1.00  0.00    -0.270 OA
HETATM    6  O   UNL     1      45.010  14.249  42.418  1.00  0.00    -0.270 OA
HETATM    7  O   UNL     1      41.258  10.710  38.611  1.00  0.00    -0.263 OA
HETATM    8  O   UNL     1      46.895  13.072  40.455  1.00  0.00    -0.263 OA
HETATM    9  O   UNL     1      41.743  11.576  44.743  1.00  0.00    -0.263 OA
HETATM   10  N   UNL     1      45.352  11.324  37.650  1.00  0.00    -0.340 N 
HETATM   11  N   UNL     1      41.037   9.065  40.918  1.00  0.00    -0.340 N 
HETATM   12  N   UNL     1      42.897  13.481  41.819  1.00  0.00    -0.340 N 
HETATM   13  C   UNL     1      46.486  11.681  38.528  1.00  0.00     0.190 C 
HETATM   14  C   UNL     1      40.954   8.490  39.560  1.00  0.00     0.190 C 
HETATM   15  C   UNL     1      42.472  13.308  43.224  1.00  0.00     0.190 C 
HETATM   16  C   UNL     1      43.401   9.821  37.117  1.00  0.00     0.227 C 
HETATM   17  C   UNL     1      44.444  14.429  40.091  1.00  0.00     0.227 C 
HETATM   18  C   UNL     1      42.364   9.570  42.988  1.00  0.00     0.227 C 
HETATM   19  C   UNL     1      44.521  10.272  38.059  1.00  0.00     0.250 C 
HETATM   20  C   UNL     1      42.236   8.883  41.630  1.00  0.00     0.250 C 
HETATM   21  C   UNL     1      44.158  14.040  41.549  1.00  0.00     0.250 C 
HETATM   22  C   UNL     1      41.568   9.527  38.634  1.00  0.00     0.283 C 
HETATM   23  C   UNL     1      46.125  12.751  39.556  1.00  0.00     0.283 C 
HETATM   24  C   UNL     1      42.203  11.865  43.644  1.00  0.00     0.283 C 
HETATM   25  C   UNL     1      45.151  12.118  36.434  1.00  0.00     0.153 C 
HETATM   26  C   UNL     1      39.879   9.815  41.416  1.00  0.00     0.153 C 
HETATM   27  C   UNL     1      41.903  13.222  40.775  1.00  0.00     0.153 C 
ENDROOT
BRANCH  16  28
HETATM   28  C   UNL     1      43.965   9.003  35.965  1.00  0.00     0.016 C 
HETATM   29  C   UNL     1      43.735   7.511  36.199  1.00  0.00     0.012 C 
HETATM   30  C   UNL     1      43.342   9.437  34.638  1.00  0.00     0.012 C 
ENDBRANCH  16  28
BRANCH  14  31
HETATM   31  C   UNL     1      39.559   8.114  39.077  1.00  0.00     0.010 C 
HETATM   32  C   UNL     1      39.525   8.019  37.554  1.00  0.00     0.012 C 
HETATM   33  C   UNL     1      39.109   6.798  39.707  1.00  0.00     0.012 C 
ENDBRANCH  14  31
BRANCH  13  34
HETATM   34  C   UNL     1      47.745  12.100  37.769  1.00  0.00     0.010 C 
HETATM   35  C   UNL     1      48.960  11.319  38.266  1.00  0.00     0.012 C 
HETATM   36  C   UNL     1      47.983  13.603  37.905  1.00  0.00     0.012 C 
ENDBRANCH  13  34
BRANCH  18  37
HETATM   37  C   UNL     1      43.571   9.056  43.768  1.00  0.00     0.016 C 
HETATM   38  C   UNL     1      44.718  10.065  43.713  1.00  0.00     0.012 C 
HETATM   39  C   UNL     1      43.191   8.756  45.217  1.00  0.00     0.012 C 
ENDBRANCH  18  37
BRANCH  17  40
HETATM   40  C   UNL     1      45.382  15.630  39.974  1.00  0.00     0.016 C 
HETATM   41  C   UNL     1      44.907  16.774  40.867  1.00  0.00     0.012 C 
HETATM   42  C   UNL     1      45.487  16.090  38.521  1.00  0.00     0.012 C 
ENDBRANCH  17  40
BRANCH  15  43
HETATM   43  C   UNL     1      41.271  14.195  43.554  1.00  0.00     0.010 C 
HETATM   44  C   UNL     1      41.193  14.450  45.057  1.00  0.00     0.012 C 
HETATM   45  C   UNL     1      41.352  15.511  42.788  1.00  0.00     0.012 C 
ENDBRANCH  15  43
TORSDOF 6
ENDMDL
MODEL 15
REMARK VINA RESULT:    -4.641      2.442      8.123
REMARK INTER + INTRA:          -5.406
REMARK INTER:                  -6.150
REMARK INTRA:                   0.744
REMARK UNBOUND:                 0.863
REMARK  6 active torsions:
REMARK  status: ('A' for Active; 'I' for Inactive)
REMARK    1  A    between atoms: C_13  and  C_16 
REMARK    2  A    between atoms: C_14  and  C_17 
REMARK    3  A    between atoms: C_15  and  C_18 
REMARK    4  A    between atoms: C_19  and  C_22 
REMARK    5  A    between atoms: C_20  and  C_23 
REMARK    6  A    between atoms: C_21  and  C_24 
ROOT
HETATM    1  O   UNL     1      43.964  10.394  37.916  1.00  0.00    -0.304 OA
HETATM    2  O   UNL     1      46.049  14.864  36.351  1.00  0.00    -0.304 OA
HETATM    3  O   UNL     1      46.501  13.818  40.939  1.00  0.00    -0.304 OA
HETATM    4  O   UNL     1      46.295  11.392  37.377  1.00  0.00    -0.270 OA
HETATM    5  O   UNL     1      46.523  10.705  40.231  1.00  0.00    -0.270 OA
HETATM    6  O   UNL     1      47.802  16.719  38.348  1.00  0.00    -0.270 OA
HETATM    7  O   UNL     1      43.111  12.370  38.744  1.00  0.00    -0.263 OA
HETATM    8  O   UNL     1      48.335  14.890  36.077  1.00  0.00    -0.263 OA
HETATM    9  O   UNL     1      46.952  15.085  42.801  1.00  0.00    -0.263 OA
HETATM   10  N   UNL     1      45.725  12.436  35.393  1.00  0.00    -0.340 N 
HETATM   11  N   UNL     1      44.527  11.543  41.065  1.00  0.00    -0.340 N 
HETATM   12  N   UNL     1      45.881  15.915  39.384  1.00  0.00    -0.340 N 
HETATM   13  C   UNL     1      47.090  12.989  35.269  1.00  0.00     0.190 C 
HETATM   14  C   UNL     1      43.753  10.577  40.259  1.00  0.00     0.190 C 
HETATM   15  C   UNL     1      46.388  16.213  40.740  1.00  0.00     0.190 C 
HETATM   16  C   UNL     1      44.081  10.946  36.587  1.00  0.00     0.227 C 
HETATM   17  C   UNL     1      45.964  16.192  36.895  1.00  0.00     0.227 C 
HETATM   18  C   UNL     1      46.720  12.600  41.676  1.00  0.00     0.227 C 
HETATM   19  C   UNL     1      45.457  11.610  36.494  1.00  0.00     0.250 C 
HETATM   20  C   UNL     1      45.926  11.531  40.929  1.00  0.00     0.250 C 
HETATM   21  C   UNL     1      46.646  16.295  38.268  1.00  0.00     0.250 C 
HETATM   22  C   UNL     1      43.547  11.238  38.906  1.00  0.00     0.283 C 
HETATM   23  C   UNL     1      47.243  14.345  35.956  1.00  0.00     0.283 C 
HETATM   24  C   UNL     1      46.633  14.990  41.620  1.00  0.00     0.283 C 
HETATM   25  C   UNL     1      44.736  12.818  34.380  1.00  0.00     0.153 C 
HETATM   26  C   UNL     1      43.782  12.471  41.923  1.00  0.00     0.153 C 
HETATM   27  C   UNL     1      44.516  15.395  39.272  1.00  0.00     0.153 C 
ENDROOT
BRANCH  16  28
HETATM   28  C   UNL     1      43.978   9.780  35.615  1.00  0.00     0.016 C 
HETATM   29  C   UNL     1      44.049   8.448  36.361  1.00  0.00     0.012 C 
HETATM   30  C   UNL     1      42.689   9.868  34.799  1.00  0.00     0.012 C 
ENDBRANCH  16  28
BRANCH  14  31
HETATM   31  C   UNL     1      42.413  10.143  40.841  1.00  0.00     0.010 C 
HETATM   32  C   UNL     1      41.488   9.634  39.738  1.00  0.00     0.012 C 
HETATM   33  C   UNL     1      42.614   9.071  41.909  1.00  0.00     0.012 C 
ENDBRANCH  14  31
BRANCH  13  34
HETATM   34  C   UNL     1      47.588  13.083  33.827  1.00  0.00     0.010 C 
HETATM   35  C   UNL     1      48.975  12.456  33.694  1.00  0.00     0.012 C 
HETATM   36  C   UNL     1      47.611  14.536  33.357  1.00  0.00     0.012 C 
ENDBRANCH  13  34
BRANCH  18  37
HETATM   37  C   UNL     1      48.215  12.294  41.680  1.00  0.00     0.016 C 
HETATM   38  C   UNL     1      48.953  13.196  40.691  1.00  0.00     0.012 C 
HETATM   39  C   UNL     1      48.796  12.451  43.084  1.00  0.00     0.012 C 
ENDBRANCH  18  37
BRANCH  17  40
HETATM   40  C   UNL     1      46.467  17.245  35.907  1.00  0.00     0.016 C 
HETATM   41  C   UNL     1      46.373  18.642  36.516  1.00  0.00     0.012 C 
HETATM   42  C   UNL     1      45.678  17.174  34.601  1.00  0.00     0.012 C 
ENDBRANCH  17  40
BRANCH  15  43
HETATM   43  C   UNL     1      45.491  17.220  41.460  1.00  0.00     0.010 C 
HETATM   44  C   UNL     1      44.750  16.547  42.612  1.00  0.00     0.012 C 
HETATM   45  C   UNL     1      46.313  18.402  41.966  1.00  0.00     0.012 C 
ENDBRANCH  15  43
TORSDOF 6
ENDMDL
MODEL 16
REMARK VINA RESULT:    -4.624      7.716     11.992
REMARK INTER + INTRA:          -5.382
REMARK INTER:                  -6.260
REMARK INTRA:                   0.878
REMARK UNBOUND:                 0.863
REMARK  6 active torsions:
REMARK  status: ('A' for Active; 'I' for Inactive)
REMARK    1  A    between atoms: C_13  and  C_16 
REMARK    2  A    between atoms: C_14  and  C_17 
REMARK    3  A    between atoms: C_15  and  C_18 
REMARK    4  A    between atoms: C_19  and  C_22 
REMARK    5  A    between atoms: C_20  and  C_23 
REMARK    6  A    between atoms: C_21  and  C_24 
ROOT
HETATM    1  O   UNL     1      51.315   7.530  48.076  1.00  0.00    -0.304 OA
HETATM    2  O   UNL     1      48.432   4.049  50.597  1.00  0.00    -0.304 OA
HETATM    3  O   UNL     1      46.132   7.723  48.709  1.00  0.00    -0.304 OA
HETATM    4  O   UNL     1      49.693   5.576  47.556  1.00  0.00    -0.270 OA
HETATM    5  O   UNL     1      48.314   7.899  46.385  1.00  0.00    -0.270 OA
HETATM    6  O   UNL     1      45.197   4.233  50.650  1.00  0.00    -0.270 OA
HETATM    7  O   UNL     1      50.202   8.181  49.988  1.00  0.00    -0.263 OA
HETATM    8  O   UNL     1      47.242   2.567  49.297  1.00  0.00    -0.263 OA
HETATM    9  O   UNL     1      44.072   8.656  49.106  1.00  0.00    -0.263 OA
HETATM   10  N   UNL     1      50.566   4.050  49.059  1.00  0.00    -0.340 N 
HETATM   11  N   UNL     1      48.517   9.460  48.090  1.00  0.00    -0.340 N 
HETATM   12  N   UNL     1      46.184   6.312  50.991  1.00  0.00    -0.340 N 
HETATM   13  C   UNL     1      49.524   3.067  48.696  1.00  0.00     0.190 C 
HETATM   14  C   UNL     1      49.986   9.475  47.938  1.00  0.00     0.190 C 
HETATM   15  C   UNL     1      44.937   7.044  50.684  1.00  0.00     0.190 C 
HETATM   16  C   UNL     1      51.694   6.269  48.670  1.00  0.00     0.227 C 
HETATM   17  C   UNL     1      47.406   4.209  51.591  1.00  0.00     0.227 C 
HETATM   18  C   UNL     1      46.280   8.487  47.498  1.00  0.00     0.227 C 
HETATM   19  C   UNL     1      50.564   5.277  48.381  1.00  0.00     0.250 C 
HETATM   20  C   UNL     1      47.786   8.585  47.266  1.00  0.00     0.250 C 
HETATM   21  C   UNL     1      46.161   4.907  51.025  1.00  0.00     0.250 C 
HETATM   22  C   UNL     1      50.504   8.346  48.813  1.00  0.00     0.283 C 
HETATM   23  C   UNL     1      48.261   3.203  49.545  1.00  0.00     0.283 C 
HETATM   24  C   UNL     1      44.991   7.910  49.428  1.00  0.00     0.283 C 
HETATM   25  C   UNL     1      51.505   3.690  50.126  1.00  0.00     0.153 C 
HETATM   26  C   UNL     1      47.925  10.330  49.111  1.00  0.00     0.153 C 
HETATM   27  C   UNL     1      47.342   7.098  51.420  1.00  0.00     0.153 C 
ENDROOT
BRANCH  16  28
HETATM   28  C   UNL     1      52.982   5.831  47.989  1.00  0.00     0.016 C 
HETATM   29  C   UNL     1      53.110   6.478  46.611  1.00  0.00     0.012 C 
HETATM   30  C   UNL     1      54.194   6.171  48.854  1.00  0.00     0.012 C 
ENDBRANCH  16  28
BRANCH  14  31
HETATM   31  C   UNL     1      50.682  10.781  48.299  1.00  0.00     0.010 C 
HETATM   32  C   UNL     1      52.158  10.537  48.607  1.00  0.00     0.012 C 
HETATM   33  C   UNL     1      50.532  11.799  47.171  1.00  0.00     0.012 C 
ENDBRANCH  14  31
BRANCH  13  34
HETATM   34  C   UNL     1      50.008   1.617  48.723  1.00  0.00     0.010 C 
HETATM   35  C   UNL     1      50.056   1.039  47.309  1.00  0.00     0.012 C 
HETATM   36  C   UNL     1      49.112   0.764  49.618  1.00  0.00     0.012 C 
ENDBRANCH  13  34
BRANCH  18  37
HETATM   37  C   UNL     1      45.582   7.743  46.362  1.00  0.00     0.016 C 
HETATM   38  C   UNL     1      45.170   6.341  46.811  1.00  0.00     0.012 C 
HETATM   39  C   UNL     1      44.368   8.526  45.868  1.00  0.00     0.012 C 
ENDBRANCH  18  37
BRANCH  17  40
HETATM   40  C   UNL     1      47.077   2.887  52.286  1.00  0.00     0.016 C 
HETATM   41  C   UNL     1      46.027   3.099  53.374  1.00  0.00     0.012 C 
HETATM   42  C   UNL     1      48.340   2.260  52.873  1.00  0.00     0.012 C 
ENDBRANCH  17  40
BRANCH  15  43
HETATM   43  C   UNL     1      44.468   7.869  51.883  1.00  0.00     0.010 C 
HETATM   44  C   UNL     1      43.035   8.351  51.672  1.00  0.00     0.012 C 
HETATM   45  C   UNL     1      44.578   7.053  53.168  1.00  0.00     0.012 C 
ENDBRANCH  15  43
TORSDOF 6
ENDMDL
MODEL 17
REMARK VINA RESULT:    -4.598      2.822      6.152
REMARK INTER + INTRA:          -5.347
REMARK INTER:                  -6.069
REMARK INTRA:                   0.722
REMARK UNBOUND:                 0.863
REMARK  6 active torsions:
REMARK  status: ('A' for Active; 'I' for Inactive)
REMARK    1  A    between atoms: C_13  and  C_16 
REMARK    2  A    between atoms: C_14  and  C_17 
REMARK    3  A    between atoms: C_15  and  C_18 
REMARK    4  A    between atoms: C_19  and  C_22 
REMARK    5  A    between atoms: C_20  and  C_23 
REMARK    6  A    between atoms: C_21  and  C_24 
ROOT
HETATM    1  O   UNL     1      49.316  14.704  37.523  1.00  0.00    -0.304 OA
HETATM    2  O   UNL     1      45.532  15.846  40.865  1.00  0.00    -0.304 OA
HETATM    3  O   UNL     1      44.839  12.073  38.101  1.00  0.00    -0.304 OA
HETATM    4  O   UNL     1      48.380  13.869  39.791  1.00  0.00    -0.270 OA
HETATM    5  O   UNL     1      47.986  11.545  38.026  1.00  0.00    -0.270 OA
HETATM    6  O   UNL     1      42.947  13.926  41.234  1.00  0.00    -0.270 OA
HETATM    7  O   UNL     1      47.254  15.330  36.700  1.00  0.00    -0.263 OA
HETATM    8  O   UNL     1      45.411  14.545  42.761  1.00  0.00    -0.263 OA
HETATM    9  O   UNL     1      42.960  10.910  37.476  1.00  0.00    -0.263 OA
HETATM   10  N   UNL     1      48.161  15.934  40.808  1.00  0.00    -0.340 N 
HETATM   11  N   UNL     1      47.079  12.549  36.141  1.00  0.00    -0.340 N 
HETATM   12  N   UNL     1      43.492  14.216  38.990  1.00  0.00    -0.340 N 
HETATM   13  C   UNL     1      47.573  15.303  42.009  1.00  0.00     0.190 C 
HETATM   14  C   UNL     1      48.331  13.298  35.905  1.00  0.00     0.190 C 
HETATM   15  C   UNL     1      42.689  13.052  38.561  1.00  0.00     0.190 C 
HETATM   16  C   UNL     1      49.263  15.715  38.553  1.00  0.00     0.227 C 
HETATM   17  C   UNL     1      44.110  15.954  40.686  1.00  0.00     0.227 C 
HETATM   18  C   UNL     1      45.692  11.034  37.584  1.00  0.00     0.227 C 
HETATM   19  C   UNL     1      48.562  15.091  39.762  1.00  0.00     0.250 C 
HETATM   20  C   UNL     1      47.020  11.722  37.278  1.00  0.00     0.250 C 
HETATM   21  C   UNL     1      43.469  14.602  40.342  1.00  0.00     0.250 C 
HETATM   22  C   UNL     1      48.213  14.570  36.727  1.00  0.00     0.283 C 
HETATM   23  C   UNL     1      46.055  15.168  41.923  1.00  0.00     0.283 C 
HETATM   24  C   UNL     1      43.495  11.896  37.972  1.00  0.00     0.283 C 
HETATM   25  C   UNL     1      48.248  17.397  40.777  1.00  0.00     0.153 C 
HETATM   26  C   UNL     1      45.974  12.746  35.198  1.00  0.00     0.153 C 
HETATM   27  C   UNL     1      44.131  15.019  37.946  1.00  0.00     0.153 C 
ENDROOT
BRANCH  16  28
HETATM   28  C   UNL     1      50.703  16.073  38.892  1.00  0.00     0.016 C 
HETATM   29  C   UNL     1      51.661  15.002  38.375  1.00  0.00     0.012 C 
HETATM   30  C   UNL     1      51.069  17.441  38.316  1.00  0.00     0.012 C 
ENDBRANCH  16  28
BRANCH  14  31
HETATM   31  C   UNL     1      48.642  13.636  34.453  1.00  0.00     0.010 C 
HETATM   32  C   UNL     1      49.691  14.744  34.372  1.00  0.00     0.012 C 
HETATM   33  C   UNL     1      49.115  12.395  33.701  1.00  0.00     0.012 C 
ENDBRANCH  14  31
BRANCH  13  34
HETATM   34  C   UNL     1      47.956  15.994  43.317  1.00  0.00     0.010 C 
HETATM   35  C   UNL     1      48.564  14.993  44.298  1.00  0.00     0.012 C 
HETATM   36  C   UNL     1      46.743  16.683  43.940  1.00  0.00     0.012 C 
ENDBRANCH  13  34
BRANCH  18  37
HETATM   37  C   UNL     1      45.849   9.955  38.652  1.00  0.00     0.016 C 
HETATM   38  C   UNL     1      45.366  10.465  40.009  1.00  0.00     0.012 C 
HETATM   39  C   UNL     1      45.092   8.689  38.256  1.00  0.00     0.012 C 
ENDBRANCH  18  37
BRANCH  17  40
HETATM   40  C   UNL     1      43.438  16.640  41.876  1.00  0.00     0.016 C 
HETATM   41  C   UNL     1      41.943  16.817  41.621  1.00  0.00     0.012 C 
HETATM   42  C   UNL     1      44.098  17.988  42.162  1.00  0.00     0.012 C 
ENDBRANCH  17  40
BRANCH  15  43
HETATM   43  C   UNL     1      41.572  13.469  37.604  1.00  0.00     0.010 C 
HETATM   44  C   UNL     1      41.889  13.011  36.183  1.00  0.00     0.012 C 
HETATM   45  C   UNL     1      40.233  12.902  38.067  1.00  0.00     0.012 C 
ENDBRANCH  15  43
TORSDOF 6
ENDMDL
MODEL 18
REMARK VINA RESULT:    -4.584      4.143      7.615
REMARK INTER + INTRA:          -5.329
REMARK INTER:                  -6.179
REMARK INTRA:                   0.851
REMARK UNBOUND:                 0.863
REMARK  6 active torsions:
REMARK  status: ('A' for Active; 'I' for Inactive)
REMARK    1  A    between atoms: C_13  and  C_16 
REMARK    2  A    between atoms: C_14  and  C_17 
REMARK    3  A    between atoms: C_15  and  C_18 
REMARK    4  A    between atoms: C_19  and  C_22 
REMARK    5  A    between atoms: C_20  and  C_23 
REMARK    6  A    between atoms: C_21  and  C_24 
ROOT
HETATM    1  O   UNL     1      45.316  16.558  40.156  1.00  0.00    -0.304 OA
HETATM    2  O   UNL     1      50.429  16.691  39.368  1.00  0.00    -0.304 OA
HETATM    3  O   UNL     1      47.713  16.231  35.525  1.00  0.00    -0.304 OA
HETATM    4  O   UNL     1      47.133  18.206  39.317  1.00  0.00    -0.270 OA
HETATM    5  O   UNL     1      45.395  17.893  36.960  1.00  0.00    -0.270 OA
HETATM    6  O   UNL     1      51.693  16.728  36.383  1.00  0.00    -0.270 OA
HETATM    7  O   UNL     1      46.359  14.690  39.294  1.00  0.00    -0.263 OA
HETATM    8  O   UNL     1      51.295  18.675  38.583  1.00  0.00    -0.263 OA
HETATM    9  O   UNL     1      48.125  15.488  33.392  1.00  0.00    -0.263 OA
HETATM   10  N   UNL     1      48.687  17.817  40.985  1.00  0.00    -0.340 N 
HETATM   11  N   UNL     1      45.110  15.591  36.904  1.00  0.00    -0.340 N 
HETATM   12  N   UNL     1      49.957  15.190  36.564  1.00  0.00    -0.340 N 
HETATM   13  C   UNL     1      49.642  18.742  40.337  1.00  0.00     0.190 C 
HETATM   14  C   UNL     1      44.396  15.620  38.197  1.00  0.00     0.190 C 
HETATM   15  C   UNL     1      49.787  15.087  35.100  1.00  0.00     0.190 C 
HETATM   16  C   UNL     1      46.393  16.783  41.093  1.00  0.00     0.227 C 
HETATM   17  C   UNL     1      51.290  15.850  38.581  1.00  0.00     0.227 C 
HETATM   18  C   UNL     1      46.437  16.765  35.126  1.00  0.00     0.227 C 
HETATM   19  C   UNL     1      47.431  17.658  40.385  1.00  0.00     0.250 C 
HETATM   20  C   UNL     1      45.603  16.810  36.405  1.00  0.00     0.250 C 
HETATM   21  C   UNL     1      51.002  15.978  37.078  1.00  0.00     0.250 C 
HETATM   22  C   UNL     1      45.471  15.533  39.266  1.00  0.00     0.283 C 
HETATM   23  C   UNL     1      50.540  18.046  39.317  1.00  0.00     0.283 C 
HETATM   24  C   UNL     1      48.452  15.604  34.568  1.00  0.00     0.283 C 
HETATM   25  C   UNL     1      49.133  17.104  42.185  1.00  0.00     0.153 C 
HETATM   26  C   UNL     1      45.288  14.291  36.250  1.00  0.00     0.153 C 
HETATM   27  C   UNL     1      49.133  14.319  37.404  1.00  0.00     0.153 C 
ENDROOT
BRANCH  16  28
HETATM   28  C   UNL     1      45.794  17.516  42.284  1.00  0.00     0.016 C 
HETATM   29  C   UNL     1      44.379  17.999  41.965  1.00  0.00     0.012 C 
HETATM   30  C   UNL     1      45.786  16.621  43.522  1.00  0.00     0.012 C 
ENDBRANCH  16  28
BRANCH  14  31
HETATM   31  C   UNL     1      43.353  14.530  38.409  1.00  0.00     0.010 C 
HETATM   32  C   UNL     1      43.094  14.316  39.899  1.00  0.00     0.012 C 
HETATM   33  C   UNL     1      42.055  14.880  37.685  1.00  0.00     0.012 C 
ENDBRANCH  14  31
BRANCH  13  34
HETATM   34  C   UNL     1      50.500  19.532  41.325  1.00  0.00     0.010 C 
HETATM   35  C   UNL     1      50.405  21.031  41.043  1.00  0.00     0.012 C 
HETATM   36  C   UNL     1      51.955  19.069  41.268  1.00  0.00     0.012 C 
ENDBRANCH  13  34
BRANCH  18  37
HETATM   37  C   UNL     1      46.651  18.160  34.544  1.00  0.00     0.016 C 
HETATM   38  C   UNL     1      48.066  18.656  34.841  1.00  0.00     0.012 C 
HETATM   39  C   UNL     1      46.387  18.164  33.040  1.00  0.00     0.012 C 
ENDBRANCH  18  37
BRANCH  17  40
HETATM   40  C   UNL     1      52.764  16.069  38.920  1.00  0.00     0.016 C 
HETATM   41  C   UNL     1      53.652  15.165  38.069  1.00  0.00     0.012 C 
HETATM   42  C   UNL     1      53.016  15.823  40.407  1.00  0.00     0.012 C 
ENDBRANCH  17  40
BRANCH  15  43
HETATM   43  C   UNL     1      50.043  13.662  34.609  1.00  0.00     0.010 C 
HETATM   44  C   UNL     1      51.356  13.130  35.177  1.00  0.00     0.012 C 
HETATM   45  C   UNL     1      48.881  12.749  34.992  1.00  0.00     0.012 C 
ENDBRANCH  15  43
TORSDOF 6
ENDMDL
MODEL 19
REMARK VINA RESULT:    -4.579      2.633      5.443
REMARK INTER + INTRA:          -5.322
REMARK INTER:                  -6.113
REMARK INTRA:                   0.790
REMARK UNBOUND:                 0.863
REMARK  6 active torsions:
REMARK  status: ('A' for Active; 'I' for Inactive)
REMARK    1  A    between atoms: C_13  and  C_16 
REMARK    2  A    between atoms: C_14  and  C_17 
REMARK    3  A    between atoms: C_15  and  C_18 
REMARK    4  A    between atoms: C_19  and  C_22 
REMARK    5  A    between atoms: C_20  and  C_23 
REMARK    6  A    between atoms: C_21  and  C_24 
ROOT
HETATM    1  O   UNL     1      48.040  15.061  39.789  1.00  0.00    -0.304 OA
HETATM    2  O   UNL     1      43.050  15.503  41.087  1.00  0.00    -0.304 OA
HETATM    3  O   UNL     1      44.401  11.346  39.282  1.00  0.00    -0.304 OA
HETATM    4  O   UNL     1      46.427  14.312  41.675  1.00  0.00    -0.270 OA
HETATM    5  O   UNL     1      47.316  11.753  40.520  1.00  0.00    -0.270 OA
HETATM    6  O   UNL     1      41.017  12.984  40.923  1.00  0.00    -0.270 OA
HETATM    7  O   UNL     1      46.444  14.939  38.129  1.00  0.00    -0.263 OA
HETATM    8  O   UNL     1      42.409  14.499  43.057  1.00  0.00    -0.263 OA
HETATM    9  O   UNL     1      43.254   9.612  38.308  1.00  0.00    -0.263 OA
HETATM   10  N   UNL     1      45.371  16.344  41.994  1.00  0.00    -0.340 N 
HETATM   11  N   UNL     1      47.108  12.178  38.248  1.00  0.00    -0.340 N 
HETATM   12  N   UNL     1      42.389  13.106  39.049  1.00  0.00    -0.340 N 
HETATM   13  C   UNL     1      44.475  15.742  43.005  1.00  0.00     0.190 C 
HETATM   14  C   UNL     1      48.154  13.218  38.320  1.00  0.00     0.190 C 
HETATM   15  C   UNL     1      42.108  11.711  38.651  1.00  0.00     0.190 C 
HETATM   16  C   UNL     1      47.346  16.145  40.443  1.00  0.00     0.227 C 
HETATM   17  C   UNL     1      41.851  15.166  40.369  1.00  0.00     0.227 C 
HETATM   18  C   UNL     1      45.589  10.540  39.394  1.00  0.00     0.227 C 
HETATM   19  C   UNL     1      46.345  15.518  41.416  1.00  0.00     0.250 C 
HETATM   20  C   UNL     1      46.746  11.536  39.446  1.00  0.00     0.250 C 
HETATM   21  C   UNL     1      41.714  13.652  40.155  1.00  0.00     0.250 C 
HETATM   22  C   UNL     1      47.436  14.502  38.699  1.00  0.00     0.283 C 
HETATM   23  C   UNL     1      43.202  15.160  42.394  1.00  0.00     0.283 C 
HETATM   24  C   UNL     1      43.309  10.770  38.708  1.00  0.00     0.283 C 
HETATM   25  C   UNL     1      45.156  17.750  41.640  1.00  0.00     0.153 C 
HETATM   26  C   UNL     1      46.494  11.912  36.943  1.00  0.00     0.153 C 
HETATM   27  C   UNL     1      43.228  13.908  38.156  1.00  0.00     0.153 C 
ENDROOT
BRANCH  16  28
HETATM   28  C   UNL     1      48.395  16.950  41.195  1.00  0.00     0.016 C 
HETATM   29  C   UNL     1      49.660  16.121  41.410  1.00  0.00     0.012 C 
HETATM   30  C   UNL     1      48.724  18.242  40.447  1.00  0.00     0.012 C 
ENDBRANCH  16  28
BRANCH  14  31
HETATM   31  C   UNL     1      48.974  13.429  37.053  1.00  0.00     0.010 C 
HETATM   32  C   UNL     1      49.599  14.822  37.043  1.00  0.00     0.012 C 
HETATM   33  C   UNL     1      50.054  12.356  36.928  1.00  0.00     0.012 C 
ENDBRANCH  14  31
BRANCH  13  34
HETATM   34  C   UNL     1      44.112  16.689  44.148  1.00  0.00     0.010 C 
HETATM   35  C   UNL     1      44.525  16.093  45.493  1.00  0.00     0.012 C 
HETATM   36  C   UNL     1      42.617  17.000  44.138  1.00  0.00     0.012 C 
ENDBRANCH  13  34
BRANCH  18  37
HETATM   37  C   UNL     1      45.499   9.712  40.673  1.00  0.00     0.016 C 
HETATM   38  C   UNL     1      44.505  10.338  41.651  1.00  0.00     0.012 C 
HETATM   39  C   UNL     1      45.105   8.271  40.357  1.00  0.00     0.012 C 
ENDBRANCH  18  37
BRANCH  17  40
HETATM   40  C   UNL     1      40.610  15.785  41.015  1.00  0.00     0.016 C 
HETATM   41  C   UNL     1      39.356  15.425  40.222  1.00  0.00     0.012 C 
HETATM   42  C   UNL     1      40.760  17.301  41.123  1.00  0.00     0.012 C 
ENDBRANCH  17  40
BRANCH  15  43
HETATM   43  C   UNL     1      41.443  11.648  37.275  1.00  0.00     0.010 C 
HETATM   44  C   UNL     1      42.452  11.218  36.214  1.00  0.00     0.012 C 
HETATM   45  C   UNL     1      40.250  10.697  37.302  1.00  0.00     0.012 C 
ENDBRANCH  15  43
TORSDOF 6
ENDMDL
MODEL 20
REMARK VINA RESULT:    -4.468      7.846     12.721
REMARK INTER + INTRA:          -5.172
REMARK INTER:                  -6.070
REMARK INTRA:                   0.899
REMARK UNBOUND:                 0.863
REMARK  6 active torsions:
REMARK  status: ('A' for Active; 'I' for Inactive)
REMARK    1  A    between atoms: C_13  and  C_16 
REMARK    2  A    between atoms: C_14  and  C_17 
REMARK    3  A    between atoms: C_15  and  C_18 
REMARK    4  A    between atoms: C_19  and  C_22 
REMARK    5  A    between atoms: C_20  and  C_23 
REMARK    6  A    between atoms: C_21  and  C_24 
ROOT
HETATM    1  O   UNL     1      54.586   6.779  47.713  1.00  0.00    -0.304 OA
HETATM    2  O   UNL     1      49.685   7.749  46.365  1.00  0.00    -0.304 OA
HETATM    3  O   UNL     1      50.403   6.293  50.805  1.00  0.00    -0.304 OA
HETATM    4  O   UNL     1      52.782   8.609  48.049  1.00  0.00    -0.270 OA
HETATM    5  O   UNL     1      53.282   7.672  50.796  1.00  0.00    -0.270 OA
HETATM    6  O   UNL     1      47.268   7.625  48.521  1.00  0.00    -0.270 OA
HETATM    7  O   UNL     1      53.073   5.039  47.690  1.00  0.00    -0.263 OA
HETATM    8  O   UNL     1      48.791   9.738  47.105  1.00  0.00    -0.263 OA
HETATM    9  O   UNL     1      49.029   5.364  52.394  1.00  0.00    -0.263 OA
HETATM   10  N   UNL     1      52.068   8.737  45.853  1.00  0.00    -0.340 N 
HETATM   11  N   UNL     1      53.257   5.370  50.507  1.00  0.00    -0.340 N 
HETATM   12  N   UNL     1      48.728   5.831  48.761  1.00  0.00    -0.340 N 
HETATM   13  C   UNL     1      51.037   9.729  46.225  1.00  0.00     0.190 C 
HETATM   14  C   UNL     1      54.459   5.438  49.650  1.00  0.00     0.190 C 
HETATM   15  C   UNL     1      48.236   5.506  50.116  1.00  0.00     0.190 C 
HETATM   16  C   UNL     1      54.053   7.321  46.485  1.00  0.00     0.227 C 
HETATM   17  C   UNL     1      48.481   6.985  46.550  1.00  0.00     0.227 C 
HETATM   18  C   UNL     1      51.432   6.525  51.786  1.00  0.00     0.227 C 
HETATM   19  C   UNL     1      52.915   8.271  46.868  1.00  0.00     0.250 C 
HETATM   20  C   UNL     1      52.736   6.583  50.993  1.00  0.00     0.250 C 
HETATM   21  C   UNL     1      48.103   6.858  48.033  1.00  0.00     0.250 C 
HETATM   22  C   UNL     1      53.949   5.692  48.242  1.00  0.00     0.283 C 
HETATM   23  C   UNL     1      49.715   9.082  46.633  1.00  0.00     0.283 C 
HETATM   24  C   UNL     1      49.258   5.693  51.235  1.00  0.00     0.283 C 
HETATM   25  C   UNL     1      52.109   8.283  44.460  1.00  0.00     0.153 C 
HETATM   26  C   UNL     1      52.670   4.051  50.761  1.00  0.00     0.153 C 
HETATM   27  C   UNL     1      49.732   4.940  48.174  1.00  0.00     0.153 C 
ENDROOT
BRANCH  16  28
HETATM   28  C   UNL     1      55.186   8.081  45.811  1.00  0.00     0.016 C 
HETATM   29  C   UNL     1      56.343   8.300  46.785  1.00  0.00     0.012 C 
HETATM   30  C   UNL     1      55.669   7.340  44.565  1.00  0.00     0.012 C 
ENDBRANCH  16  28
BRANCH  14  31
HETATM   31  C   UNL     1      55.362   4.211  49.669  1.00  0.00     0.010 C 
HETATM   32  C   UNL     1      56.406   4.296  48.558  1.00  0.00     0.012 C 
HETATM   33  C   UNL     1      56.039   4.064  51.030  1.00  0.00     0.012 C 
ENDBRANCH  14  31
BRANCH  13  34
HETATM   34  C   UNL     1      50.783  10.787  45.152  1.00  0.00     0.010 C 
HETATM   35  C   UNL     1      50.914  12.192  45.739  1.00  0.00     0.012 C 
HETATM   36  C   UNL     1      49.406  10.597  44.520  1.00  0.00     0.012 C 
ENDBRANCH  13  34
BRANCH  18  37
HETATM   37  C   UNL     1      51.144   7.846  52.494  1.00  0.00     0.016 C 
HETATM   38  C   UNL     1      50.044   8.619  51.766  1.00  0.00     0.012 C 
HETATM   39  C   UNL     1      50.753   7.605  53.951  1.00  0.00     0.012 C 
ENDBRANCH  18  37
BRANCH  17  40
HETATM   40  C   UNL     1      47.333   7.515  45.692  1.00  0.00     0.016 C 
HETATM   41  C   UNL     1      46.098   6.629  45.838  1.00  0.00     0.012 C 
HETATM   42  C   UNL     1      47.757   7.610  44.227  1.00  0.00     0.012 C 
ENDBRANCH  17  40
BRANCH  15  43
HETATM   43  C   UNL     1      47.637   4.100  50.167  1.00  0.00     0.010 C 
HETATM   44  C   UNL     1      46.636   3.905  49.031  1.00  0.00     0.012 C 
HETATM   45  C   UNL     1      48.739   3.047  50.101  1.00  0.00     0.012 C 
ENDBRANCH  15  43
TORSDOF 6
ENDMDL
