MODEL 1
REMARK VINA RESULT:    -7.022      0.000      0.000
REMARK INTER + INTRA:          -9.211
REMARK INTER:                  -8.601
REMARK INTRA:                  -0.610
REMARK UNBOUND:                -0.342
REMARK  5 active torsions:
REMARK  status: ('A' for Active; 'I' for Inactive)
REMARK    1  A    between atoms: C_1  and  C_6 
REMARK    2  A    between atoms: C_1  and  O_14 
REMARK    3  A    between atoms: C_2  and  C_3 
REMARK    4  A    between atoms: C_2  and  C_11 
REMARK    5  A    between atoms: C_6  and  C_8 
ROOT
HETATM    1  C   UNL     1       4.181 -11.464   9.495  1.00  0.00    -0.044 A 
HETATM    2  C   UNL     1       4.942 -12.316   8.716  1.00  0.00     0.008 A 
HETATM    3  C   UNL     1       5.123 -12.047   7.374  1.00  0.00     0.007 A 
HETATM    4  C   UNL     1       4.542 -10.928   6.809  1.00  0.00    -0.058 A 
HETATM    5  C   UNL     1       3.786 -10.073   7.588  1.00  0.00     0.007 A 
HETATM    6  C   UNL     1       3.601 -10.345   8.930  1.00  0.00     0.008 A 
ENDROOT
BRANCH   1   7
HETATM    7  C   UNL     1       3.982 -11.757  10.960  1.00  0.00     0.112 C 
HETATM    8  C   UNL     1       2.491 -11.702  11.294  1.00  0.00     0.026 C 
BRANCH   7   9
HETATM    9  C   UNL     1       4.720 -10.733  11.782  1.00  0.00     0.148 C 
HETATM   10  O   UNL     1       4.136 -10.113  12.639  1.00  0.00    -0.649 OA
BRANCH   9  11
HETATM   11  O   UNL     1       6.025 -10.509  11.562  1.00  0.00    -0.776 OA
HETATM   12  H   UNL     1       6.413  -9.652  11.788  1.00  0.00     0.167 HD
ENDBRANCH   9  11
ENDBRANCH   7   9
ENDBRANCH   1   7
BRANCH   4  13
HETATM   13  C   UNL     1       4.740 -10.635   5.343  1.00  0.00     0.042 C 
BRANCH  13  14
HETATM   14  C   UNL     1       4.067 -11.726   4.510  1.00  0.00    -0.019 C 
HETATM   15  C   UNL     1       2.672 -11.260   4.089  1.00  0.00     0.010 C 
HETATM   16  C   UNL     1       4.907 -12.008   3.264  1.00  0.00     0.010 C 
ENDBRANCH  13  14
ENDBRANCH   4  13
TORSDOF 5
ENDMDL
MODEL 2
REMARK VINA RESULT:    -7.018      0.113      1.240
REMARK INTER + INTRA:          -9.206
REMARK INTER:                  -8.600
REMARK INTRA:                  -0.606
REMARK UNBOUND:                -0.342
REMARK  5 active torsions:
REMARK  status: ('A' for Active; 'I' for Inactive)
REMARK    1  A    between atoms: C_1  and  C_6 
REMARK    2  A    between atoms: C_1  and  O_14 
REMARK    3  A    between atoms: C_2  and  C_3 
REMARK    4  A    between atoms: C_2  and  C_11 
REMARK    5  A    between atoms: C_6  and  C_8 
ROOT
HETATM    1  C   UNL     1       4.146 -11.446   9.485  1.00  0.00    -0.044 A 
HETATM    2  C   UNL     1       3.499 -10.353   8.939  1.00  0.00     0.008 A 
HETATM    3  C   UNL     1       3.631 -10.075   7.592  1.00  0.00     0.007 A 
HETATM    4  C   UNL     1       4.411 -10.888   6.792  1.00  0.00    -0.058 A 
HETATM    5  C   UNL     1       5.053 -11.983   7.337  1.00  0.00     0.007 A 
HETATM    6  C   UNL     1       4.925 -12.258   8.684  1.00  0.00     0.008 A 
ENDROOT
BRANCH   1   7
HETATM    7  C   UNL     1       4.004 -11.749  10.954  1.00  0.00     0.112 C 
HETATM    8  C   UNL     1       2.522 -11.753  11.333  1.00  0.00     0.026 C 
BRANCH   7   9
HETATM    9  C   UNL     1       4.724 -10.697  11.756  1.00  0.00     0.148 C 
HETATM   10  O   UNL     1       4.129 -10.063  12.594  1.00  0.00    -0.649 OA
BRANCH   9  11
HETATM   11  O   UNL     1       6.028 -10.463  11.539  1.00  0.00    -0.776 OA
HETATM   12  H   UNL     1       6.684 -10.730  12.199  1.00  0.00     0.167 HD
ENDBRANCH   9  11
ENDBRANCH   7   9
ENDBRANCH   1   7
BRANCH   4  13
HETATM   13  C   UNL     1       4.555 -10.584   5.322  1.00  0.00     0.042 C 
BRANCH  13  14
HETATM   14  C   UNL     1       3.924 -11.711   4.504  1.00  0.00    -0.019 C 
HETATM   15  C   UNL     1       2.511 -11.305   4.081  1.00  0.00     0.010 C 
HETATM   16  C   UNL     1       4.773 -11.975   3.260  1.00  0.00     0.010 C 
ENDBRANCH  13  14
ENDBRANCH   4  13
TORSDOF 5
ENDMDL
MODEL 3
REMARK VINA RESULT:    -6.943      1.466      1.815
REMARK INTER + INTRA:          -9.111
REMARK INTER:                  -8.752
REMARK INTRA:                  -0.359
REMARK UNBOUND:                -0.342
REMARK  5 active torsions:
REMARK  status: ('A' for Active; 'I' for Inactive)
REMARK    1  A    between atoms: C_1  and  C_6 
REMARK    2  A    between atoms: C_1  and  O_14 
REMARK    3  A    between atoms: C_2  and  C_3 
REMARK    4  A    between atoms: C_2  and  C_11 
REMARK    5  A    between atoms: C_6  and  C_8 
ROOT
HETATM    1  C   UNL     1       4.308 -11.117   8.367  1.00  0.00    -0.044 A 
HETATM    2  C   UNL     1       5.052 -11.996   7.602  1.00  0.00     0.008 A 
HETATM    3  C   UNL     1       5.001 -11.924   6.223  1.00  0.00     0.007 A 
HETATM    4  C   UNL     1       4.207 -10.974   5.610  1.00  0.00    -0.058 A 
HETATM    5  C   UNL     1       3.469 -10.091   6.374  1.00  0.00     0.007 A 
HETATM    6  C   UNL     1       3.515 -10.167   7.753  1.00  0.00     0.008 A 
ENDROOT
BRANCH   1   7
HETATM    7  C   UNL     1       4.361 -11.196   9.871  1.00  0.00     0.112 C 
HETATM    8  C   UNL     1       4.401 -12.662  10.304  1.00  0.00     0.026 C 
BRANCH   7   9
HETATM    9  C   UNL     1       3.140 -10.533  10.452  1.00  0.00     0.148 C 
HETATM   10  O   UNL     1       3.177  -9.367  10.765  1.00  0.00    -0.649 OA
BRANCH   9  11
HETATM   11  O   UNL     1       2.011 -11.239  10.625  1.00  0.00    -0.776 OA
HETATM   12  H   UNL     1       1.947 -11.881  11.345  1.00  0.00     0.167 HD
ENDBRANCH   9  11
ENDBRANCH   7   9
ENDBRANCH   1   7
BRANCH   4  13
HETATM   13  C   UNL     1       4.153 -10.895   4.105  1.00  0.00     0.042 C 
BRANCH  13  14
HETATM   14  C   UNL     1       3.503 -12.164   3.552  1.00  0.00    -0.019 C 
HETATM   15  C   UNL     1       2.159 -11.810   2.910  1.00  0.00     0.010 C 
HETATM   16  C   UNL     1       4.420 -12.791   2.502  1.00  0.00     0.010 C 
ENDBRANCH  13  14
ENDBRANCH   4  13
TORSDOF 5
ENDMDL
MODEL 4
REMARK VINA RESULT:    -6.864      1.611      2.580
REMARK INTER + INTRA:          -9.012
REMARK INTER:                  -8.440
REMARK INTRA:                  -0.572
REMARK UNBOUND:                -0.342
REMARK  5 active torsions:
REMARK  status: ('A' for Active; 'I' for Inactive)
REMARK    1  A    between atoms: C_1  and  C_6 
REMARK    2  A    between atoms: C_1  and  O_14 
REMARK    3  A    between atoms: C_2  and  C_3 
REMARK    4  A    between atoms: C_2  and  C_11 
REMARK    5  A    between atoms: C_6  and  C_8 
ROOT
HETATM    1  C   UNL     1       5.073 -12.006  10.753  1.00  0.00    -0.044 A 
HETATM    2  C   UNL     1       4.620 -10.849  10.147  1.00  0.00     0.008 A 
HETATM    3  C   UNL     1       4.532 -10.779   8.770  1.00  0.00     0.007 A 
HETATM    4  C   UNL     1       4.898 -11.865   7.998  1.00  0.00    -0.058 A 
HETATM    5  C   UNL     1       5.346 -13.024   8.604  1.00  0.00     0.007 A 
HETATM    6  C   UNL     1       5.439 -13.092   9.981  1.00  0.00     0.008 A 
ENDROOT
BRANCH   1   7
HETATM    7  C   UNL     1       5.171 -12.082  12.254  1.00  0.00     0.112 C 
HETATM    8  C   UNL     1       5.431 -13.529  12.676  1.00  0.00     0.026 C 
BRANCH   7   9
HETATM    9  C   UNL     1       3.881 -11.605  12.867  1.00  0.00     0.148 C 
HETATM   10  O   UNL     1       3.854 -10.569  13.487  1.00  0.00    -0.649 OA
BRANCH   9  11
HETATM   11  O   UNL     1       2.760 -12.330  12.724  1.00  0.00    -0.776 OA
HETATM   12  H   UNL     1       2.461 -12.590  11.841  1.00  0.00     0.167 HD
ENDBRANCH   9  11
ENDBRANCH   7   9
ENDBRANCH   1   7
BRANCH   4  13
HETATM   13  C   UNL     1       4.802 -11.789   6.496  1.00  0.00     0.042 C 
BRANCH  13  14
HETATM   14  C   UNL     1       4.130 -10.475   6.095  1.00  0.00    -0.019 C 
HETATM   15  C   UNL     1       5.112  -9.628   5.282  1.00  0.00     0.010 C 
HETATM   16  C   UNL     1       2.892 -10.772   5.249  1.00  0.00     0.010 C 
ENDBRANCH  13  14
ENDBRANCH   4  13
TORSDOF 5
ENDMDL
MODEL 5
REMARK VINA RESULT:    -6.756      3.180      5.206
REMARK INTER + INTRA:          -8.875
REMARK INTER:                  -8.573
REMARK INTRA:                  -0.302
REMARK UNBOUND:                -0.342
REMARK  5 active torsions:
REMARK  status: ('A' for Active; 'I' for Inactive)
REMARK    1  A    between atoms: C_1  and  C_6 
REMARK    2  A    between atoms: C_1  and  O_14 
REMARK    3  A    between atoms: C_2  and  C_3 
REMARK    4  A    between atoms: C_2  and  C_11 
REMARK    5  A    between atoms: C_6  and  C_8 
ROOT
HETATM    1  C   UNL     1       4.661 -10.317   7.385  1.00  0.00    -0.044 A 
HETATM    2  C   UNL     1       4.405 -10.454   8.736  1.00  0.00     0.008 A 
HETATM    3  C   UNL     1       4.591 -11.676   9.354  1.00  0.00     0.007 A 
HETATM    4  C   UNL     1       5.032 -12.761   8.621  1.00  0.00    -0.058 A 
HETATM    5  C   UNL     1       5.294 -12.622   7.271  1.00  0.00     0.007 A 
HETATM    6  C   UNL     1       5.103 -11.402   6.652  1.00  0.00     0.008 A 
ENDROOT
BRANCH   1   7
HETATM    7  C   UNL     1       4.457  -8.985   6.710  1.00  0.00     0.112 C 
HETATM    8  C   UNL     1       2.975  -8.801   6.382  1.00  0.00     0.026 C 
BRANCH   7   9
HETATM    9  C   UNL     1       5.264  -8.937   5.439  1.00  0.00     0.148 C 
HETATM   10  O   UNL     1       4.712  -9.042   4.370  1.00  0.00    -0.649 OA
BRANCH   9  11
HETATM   11  O   UNL     1       6.596  -8.779   5.494  1.00  0.00    -0.776 OA
HETATM   12  H   UNL     1       7.001  -7.970   5.154  1.00  0.00     0.167 HD
ENDBRANCH   9  11
ENDBRANCH   7   9
ENDBRANCH   1   7
BRANCH   4  13
HETATM   13  C   UNL     1       5.235 -14.094   9.295  1.00  0.00     0.042 C 
BRANCH  13  14
HETATM   14  C   UNL     1       5.231 -15.203   8.243  1.00  0.00    -0.019 C 
HETATM   15  C   UNL     1       6.647 -15.761   8.084  1.00  0.00     0.010 C 
HETATM   16  C   UNL     1       4.289 -16.323   8.686  1.00  0.00     0.010 C 
ENDBRANCH  13  14
ENDBRANCH   4  13
TORSDOF 5
ENDMDL
MODEL 6
REMARK VINA RESULT:    -6.727      2.735      5.844
REMARK INTER + INTRA:          -8.839
REMARK INTER:                  -8.296
REMARK INTRA:                  -0.543
REMARK UNBOUND:                -0.342
REMARK  5 active torsions:
REMARK  status: ('A' for Active; 'I' for Inactive)
REMARK    1  A    between atoms: C_1  and  C_6 
REMARK    2  A    between atoms: C_1  and  O_14 
REMARK    3  A    between atoms: C_2  and  C_3 
REMARK    4  A    between atoms: C_2  and  C_11 
REMARK    5  A    between atoms: C_6  and  C_8 
ROOT
HETATM    1  C   UNL     1       4.161 -10.486   6.720  1.00  0.00    -0.044 A 
HETATM    2  C   UNL     1       4.804 -11.437   7.491  1.00  0.00     0.008 A 
HETATM    3  C   UNL     1       4.605 -11.468   8.857  1.00  0.00     0.007 A 
HETATM    4  C   UNL     1       3.763 -10.549   9.454  1.00  0.00    -0.058 A 
HETATM    5  C   UNL     1       3.116  -9.603   8.683  1.00  0.00     0.007 A 
HETATM    6  C   UNL     1       3.319  -9.568   7.317  1.00  0.00     0.008 A 
ENDROOT
BRANCH   1   7
HETATM    7  C   UNL     1       4.379 -10.450   5.230  1.00  0.00     0.112 C 
HETATM    8  C   UNL     1       4.947 -11.791   4.764  1.00  0.00     0.026 C 
BRANCH   7   9
HETATM    9  C   UNL     1       5.350  -9.349   4.891  1.00  0.00     0.148 C 
HETATM   10  O   UNL     1       5.158  -8.652   3.923  1.00  0.00    -0.649 OA
BRANCH   9  11
HETATM   11  O   UNL     1       6.428  -9.142   5.663  1.00  0.00    -0.776 OA
HETATM   12  H   UNL     1       6.776  -9.861   6.210  1.00  0.00     0.167 HD
ENDBRANCH   9  11
ENDBRANCH   7   9
ENDBRANCH   1   7
BRANCH   4  13
HETATM   13  C   UNL     1       3.546 -10.584  10.945  1.00  0.00     0.042 C 
BRANCH  13  14
HETATM   14  C   UNL     1       3.060 -11.974  11.357  1.00  0.00    -0.019 C 
HETATM   15  C   UNL     1       3.705 -12.367  12.688  1.00  0.00     0.010 C 
HETATM   16  C   UNL     1       1.539 -11.957  11.514  1.00  0.00     0.010 C 
ENDBRANCH  13  14
ENDBRANCH   4  13
TORSDOF 5
ENDMDL
MODEL 7
REMARK VINA RESULT:    -6.657      2.701      5.918
REMARK INTER + INTRA:          -8.751
REMARK INTER:                  -8.178
REMARK INTRA:                  -0.573
REMARK UNBOUND:                -0.342
REMARK  5 active torsions:
REMARK  status: ('A' for Active; 'I' for Inactive)
REMARK    1  A    between atoms: C_1  and  C_6 
REMARK    2  A    between atoms: C_1  and  O_14 
REMARK    3  A    between atoms: C_2  and  C_3 
REMARK    4  A    between atoms: C_2  and  C_11 
REMARK    5  A    between atoms: C_6  and  C_8 
ROOT
HETATM    1  C   UNL     1       4.554 -10.967   6.902  1.00  0.00    -0.044 A 
HETATM    2  C   UNL     1       4.086 -10.270   8.000  1.00  0.00     0.008 A 
HETATM    3  C   UNL     1       4.258 -10.785   9.270  1.00  0.00     0.007 A 
HETATM    4  C   UNL     1       4.897 -11.997   9.443  1.00  0.00    -0.058 A 
HETATM    5  C   UNL     1       5.371 -12.692   8.346  1.00  0.00     0.007 A 
HETATM    6  C   UNL     1       5.194 -12.179   7.076  1.00  0.00     0.008 A 
ENDROOT
BRANCH   1   7
HETATM    7  C   UNL     1       4.366 -10.406   5.516  1.00  0.00     0.112 C 
HETATM    8  C   UNL     1       4.911 -11.396   4.486  1.00  0.00     0.026 C 
BRANCH   7   9
HETATM    9  C   UNL     1       5.105  -9.100   5.398  1.00  0.00     0.148 C 
HETATM   10  O   UNL     1       4.497  -8.079   5.180  1.00  0.00    -0.649 OA
BRANCH   9  11
HETATM   11  O   UNL     1       6.440  -9.069   5.533  1.00  0.00    -0.776 OA
HETATM   12  H   UNL     1       6.908  -9.836   5.892  1.00  0.00     0.167 HD
ENDBRANCH   9  11
ENDBRANCH   7   9
ENDBRANCH   1   7
BRANCH   4  13
HETATM   13  C   UNL     1       5.085 -12.559  10.829  1.00  0.00     0.042 C 
BRANCH  13  14
HETATM   14  C   UNL     1       4.455 -11.613  11.852  1.00  0.00    -0.019 C 
HETATM   15  C   UNL     1       3.146 -12.216  12.367  1.00  0.00     0.010 C 
HETATM   16  C   UNL     1       5.418 -11.412  13.022  1.00  0.00     0.010 C 
ENDBRANCH  13  14
ENDBRANCH   4  13
TORSDOF 5
ENDMDL
MODEL 8
REMARK VINA RESULT:    -6.637      2.673      5.771
REMARK INTER + INTRA:          -8.724
REMARK INTER:                  -8.152
REMARK INTRA:                  -0.573
REMARK UNBOUND:                -0.342
REMARK  5 active torsions:
REMARK  status: ('A' for Active; 'I' for Inactive)
REMARK    1  A    between atoms: C_1  and  C_6 
REMARK    2  A    between atoms: C_1  and  O_14 
REMARK    3  A    between atoms: C_2  and  C_3 
REMARK    4  A    between atoms: C_2  and  C_11 
REMARK    5  A    between atoms: C_6  and  C_8 
ROOT
HETATM    1  C   UNL     1       4.462 -10.914   6.901  1.00  0.00    -0.044 A 
HETATM    2  C   UNL     1       5.154 -12.099   7.069  1.00  0.00     0.008 A 
HETATM    3  C   UNL     1       5.285 -12.649   8.329  1.00  0.00     0.007 A 
HETATM    4  C   UNL     1       4.725 -12.015   9.422  1.00  0.00    -0.058 A 
HETATM    5  C   UNL     1       4.028 -10.834   9.253  1.00  0.00     0.007 A 
HETATM    6  C   UNL     1       3.901 -10.281   7.993  1.00  0.00     0.008 A 
ENDROOT
BRANCH   1   7
HETATM    7  C   UNL     1       4.320 -10.312   5.527  1.00  0.00     0.112 C 
HETATM    8  C   UNL     1       4.830 -11.304   4.480  1.00  0.00     0.026 C 
BRANCH   7   9
HETATM    9  C   UNL     1       5.125  -9.042   5.449  1.00  0.00     0.148 C 
HETATM   10  O   UNL     1       4.569  -7.986   5.258  1.00  0.00    -0.649 OA
BRANCH   9  11
HETATM   11  O   UNL     1       6.459  -9.082   5.592  1.00  0.00    -0.776 OA
HETATM   12  H   UNL     1       6.906  -9.930   5.721  1.00  0.00     0.167 HD
ENDBRANCH   9  11
ENDBRANCH   7   9
ENDBRANCH   1   7
BRANCH   4  13
HETATM   13  C   UNL     1       4.868 -12.616  10.797  1.00  0.00     0.042 C 
BRANCH  13  14
HETATM   14  C   UNL     1       4.270 -11.664  11.834  1.00  0.00    -0.019 C 
HETATM   15  C   UNL     1       2.968 -12.256  12.379  1.00  0.00     0.010 C 
HETATM   16  C   UNL     1       5.262 -11.472  12.981  1.00  0.00     0.010 C 
ENDBRANCH  13  14
ENDBRANCH   4  13
TORSDOF 5
ENDMDL
MODEL 9
REMARK VINA RESULT:    -6.624      2.907      5.973
REMARK INTER + INTRA:          -8.708
REMARK INTER:                  -8.221
REMARK INTRA:                  -0.487
REMARK UNBOUND:                -0.342
REMARK  5 active torsions:
REMARK  status: ('A' for Active; 'I' for Inactive)
REMARK    1  A    between atoms: C_1  and  C_6 
REMARK    2  A    between atoms: C_1  and  O_14 
REMARK    3  A    between atoms: C_2  and  C_3 
REMARK    4  A    between atoms: C_2  and  C_11 
REMARK    5  A    between atoms: C_6  and  C_8 
ROOT
HETATM    1  C   UNL     1       4.350 -11.272   7.093  1.00  0.00    -0.044 A 
HETATM    2  C   UNL     1       5.415 -12.082   7.441  1.00  0.00     0.008 A 
HETATM    3  C   UNL     1       5.879 -12.091   8.742  1.00  0.00     0.007 A 
HETATM    4  C   UNL     1       5.280 -11.290   9.695  1.00  0.00    -0.058 A 
HETATM    5  C   UNL     1       4.212 -10.485   9.349  1.00  0.00     0.007 A 
HETATM    6  C   UNL     1       3.751 -10.472   8.046  1.00  0.00     0.008 A 
ENDROOT
BRANCH   1   7
HETATM    7  C   UNL     1       3.845 -11.261   5.674  1.00  0.00     0.112 C 
HETATM    8  C   UNL     1       4.934 -11.788   4.739  1.00  0.00     0.026 C 
BRANCH   7   9
HETATM    9  C   UNL     1       3.484  -9.852   5.280  1.00  0.00     0.148 C 
HETATM   10  O   UNL     1       4.350  -9.077   4.948  1.00  0.00    -0.649 OA
BRANCH   9  11
HETATM   11  O   UNL     1       2.202  -9.457   5.299  1.00  0.00    -0.776 OA
HETATM   12  H   UNL     1       1.756  -9.221   4.473  1.00  0.00     0.167 HD
ENDBRANCH   9  11
ENDBRANCH   7   9
ENDBRANCH   1   7
BRANCH   4  13
HETATM   13  C   UNL     1       5.787 -11.300  11.115  1.00  0.00     0.042 C 
BRANCH  13  14
HETATM   14  C   UNL     1       4.724 -11.907  12.031  1.00  0.00    -0.019 C 
HETATM   15  C   UNL     1       5.264 -13.197  12.654  1.00  0.00     0.010 C 
HETATM   16  C   UNL     1       4.377 -10.912  13.139  1.00  0.00     0.010 C 
ENDBRANCH  13  14
ENDBRANCH   4  13
TORSDOF 5
ENDMDL
MODEL 10
REMARK VINA RESULT:    -6.595      3.250      5.065
REMARK INTER + INTRA:          -8.671
REMARK INTER:                  -8.219
REMARK INTRA:                  -0.452
REMARK UNBOUND:                -0.342
REMARK  5 active torsions:
REMARK  status: ('A' for Active; 'I' for Inactive)
REMARK    1  A    between atoms: C_1  and  C_6 
REMARK    2  A    between atoms: C_1  and  O_14 
REMARK    3  A    between atoms: C_2  and  C_3 
REMARK    4  A    between atoms: C_2  and  C_11 
REMARK    5  A    between atoms: C_6  and  C_8 
ROOT
HETATM    1  C   UNL     1       4.542 -10.285   7.658  1.00  0.00    -0.044 A 
HETATM    2  C   UNL     1       5.121 -11.283   6.898  1.00  0.00     0.008 A 
HETATM    3  C   UNL     1       5.355 -12.527   7.452  1.00  0.00     0.007 A 
HETATM    4  C   UNL     1       5.010 -12.772   8.768  1.00  0.00    -0.058 A 
HETATM    5  C   UNL     1       4.426 -11.776   9.527  1.00  0.00     0.007 A 
HETATM    6  C   UNL     1       4.197 -10.531   8.973  1.00  0.00     0.008 A 
ENDROOT
BRANCH   1   7
HETATM    7  C   UNL     1       4.288  -8.928   7.054  1.00  0.00     0.112 C 
HETATM    8  C   UNL     1       3.312  -8.150   7.938  1.00  0.00     0.026 C 
BRANCH   7   9
HETATM    9  C   UNL     1       3.698  -9.093   5.678  1.00  0.00     0.148 C 
HETATM   10  O   UNL     1       4.381  -8.901   4.701  1.00  0.00    -0.649 OA
BRANCH   9  11
HETATM   11  O   UNL     1       2.412  -9.453   5.538  1.00  0.00    -0.776 OA
HETATM   12  H   UNL     1       1.721  -8.776   5.508  1.00  0.00     0.167 HD
ENDBRANCH   9  11
ENDBRANCH   7   9
ENDBRANCH   1   7
BRANCH   4  13
HETATM   13  C   UNL     1       5.265 -14.129   9.373  1.00  0.00     0.042 C 
BRANCH  13  14
HETATM   14  C   UNL     1       5.241 -15.190   8.273  1.00  0.00    -0.019 C 
HETATM   15  C   UNL     1       6.655 -15.738   8.061  1.00  0.00     0.010 C 
HETATM   16  C   UNL     1       4.310 -16.331   8.684  1.00  0.00     0.010 C 
ENDBRANCH  13  14
ENDBRANCH   4  13
TORSDOF 5
ENDMDL
MODEL 11
REMARK VINA RESULT:    -6.572      1.444      2.022
REMARK INTER + INTRA:          -8.642
REMARK INTER:                  -8.047
REMARK INTRA:                  -0.595
REMARK UNBOUND:                -0.342
REMARK  5 active torsions:
REMARK  status: ('A' for Active; 'I' for Inactive)
REMARK    1  A    between atoms: C_1  and  C_6 
REMARK    2  A    between atoms: C_1  and  O_14 
REMARK    3  A    between atoms: C_2  and  C_3 
REMARK    4  A    between atoms: C_2  and  C_11 
REMARK    5  A    between atoms: C_6  and  C_8 
ROOT
HETATM    1  C   UNL     1       3.802 -10.719   9.350  1.00  0.00    -0.044 A 
HETATM    2  C   UNL     1       4.684 -11.751   9.090  1.00  0.00     0.008 A 
HETATM    3  C   UNL     1       5.034 -12.049   7.787  1.00  0.00     0.007 A 
HETATM    4  C   UNL     1       4.501 -11.316   6.744  1.00  0.00    -0.058 A 
HETATM    5  C   UNL     1       3.624 -10.281   7.004  1.00  0.00     0.007 A 
HETATM    6  C   UNL     1       3.270  -9.986   8.306  1.00  0.00     0.008 A 
ENDROOT
BRANCH   1   7
HETATM    7  C   UNL     1       3.419 -10.395  10.770  1.00  0.00     0.112 C 
HETATM    8  C   UNL     1       4.671 -10.383  11.647  1.00  0.00     0.026 C 
BRANCH   7   9
HETATM    9  C   UNL     1       2.457 -11.435  11.281  1.00  0.00     0.148 C 
HETATM   10  O   UNL     1       2.816 -12.230  12.118  1.00  0.00    -0.649 OA
BRANCH   9  11
HETATM   11  O   UNL     1       1.202 -11.481  10.807  1.00  0.00    -0.776 OA
HETATM   12  H   UNL     1       0.777 -10.675  10.484  1.00  0.00     0.167 HD
ENDBRANCH   9  11
ENDBRANCH   7   9
ENDBRANCH   1   7
BRANCH   4  13
HETATM   13  C   UNL     1       4.883 -11.642   5.322  1.00  0.00     0.042 C 
BRANCH  13  14
HETATM   14  C   UNL     1       4.057 -10.784   4.363  1.00  0.00    -0.019 C 
HETATM   15  C   UNL     1       4.991 -10.074   3.380  1.00  0.00     0.010 C 
HETATM   16  C   UNL     1       3.085 -11.675   3.589  1.00  0.00     0.010 C 
ENDBRANCH  13  14
ENDBRANCH   4  13
TORSDOF 5
ENDMDL
MODEL 12
REMARK VINA RESULT:    -6.561      2.292      3.044
REMARK INTER + INTRA:          -8.629
REMARK INTER:                  -8.118
REMARK INTRA:                  -0.511
REMARK UNBOUND:                -0.342
REMARK  5 active torsions:
REMARK  status: ('A' for Active; 'I' for Inactive)
REMARK    1  A    between atoms: C_1  and  C_6 
REMARK    2  A    between atoms: C_1  and  O_14 
REMARK    3  A    between atoms: C_2  and  C_3 
REMARK    4  A    between atoms: C_2  and  C_11 
REMARK    5  A    between atoms: C_6  and  C_8 
ROOT
HETATM    1  C   UNL     1       4.556 -11.016  10.607  1.00  0.00    -0.044 A 
HETATM    2  C   UNL     1       4.923 -11.610   9.414  1.00  0.00     0.008 A 
HETATM    3  C   UNL     1       4.555 -11.034   8.213  1.00  0.00     0.007 A 
HETATM    4  C   UNL     1       3.819  -9.865   8.205  1.00  0.00    -0.058 A 
HETATM    5  C   UNL     1       3.457  -9.268   9.397  1.00  0.00     0.007 A 
HETATM    6  C   UNL     1       3.821  -9.847  10.598  1.00  0.00     0.008 A 
ENDROOT
BRANCH   1   7
HETATM    7  C   UNL     1       4.957 -11.644  11.916  1.00  0.00     0.112 C 
HETATM    8  C   UNL     1       5.315 -13.114  11.689  1.00  0.00     0.026 C 
BRANCH   7   9
HETATM    9  C   UNL     1       3.810 -11.552  12.889  1.00  0.00     0.148 C 
HETATM   10  O   UNL     1       3.866 -10.778  13.816  1.00  0.00    -0.649 OA
BRANCH   9  11
HETATM   11  O   UNL     1       2.728 -12.329  12.728  1.00  0.00    -0.776 OA
HETATM   12  H   UNL     1       2.832 -13.258  12.481  1.00  0.00     0.167 HD
ENDBRANCH   9  11
ENDBRANCH   7   9
ENDBRANCH   1   7
BRANCH   4  13
HETATM   13  C   UNL     1       3.417  -9.237   6.895  1.00  0.00     0.042 C 
BRANCH  13  14
HETATM   14  C   UNL     1       3.813  -7.760   6.895  1.00  0.00    -0.019 C 
HETATM   15  C   UNL     1       4.980  -7.545   5.929  1.00  0.00     0.010 C 
HETATM   16  C   UNL     1       2.621  -6.912   6.451  1.00  0.00     0.010 C 
ENDBRANCH  13  14
ENDBRANCH   4  13
TORSDOF 5
ENDMDL
MODEL 13
REMARK VINA RESULT:    -6.437      2.977      6.066
REMARK INTER + INTRA:          -8.473
REMARK INTER:                  -8.349
REMARK INTRA:                  -0.124
REMARK UNBOUND:                -0.342
REMARK  5 active torsions:
REMARK  status: ('A' for Active; 'I' for Inactive)
REMARK    1  A    between atoms: C_1  and  C_6 
REMARK    2  A    between atoms: C_1  and  O_14 
REMARK    3  A    between atoms: C_2  and  C_3 
REMARK    4  A    between atoms: C_2  and  C_11 
REMARK    5  A    between atoms: C_6  and  C_8 
ROOT
HETATM    1  C   UNL     1       4.382 -11.123   6.826  1.00  0.00    -0.044 A 
HETATM    2  C   UNL     1       3.740 -10.285   7.719  1.00  0.00     0.008 A 
HETATM    3  C   UNL     1       4.025 -10.366   9.068  1.00  0.00     0.007 A 
HETATM    4  C   UNL     1       4.950 -11.285   9.525  1.00  0.00    -0.058 A 
HETATM    5  C   UNL     1       5.596 -12.118   8.632  1.00  0.00     0.007 A 
HETATM    6  C   UNL     1       5.307 -12.041   7.283  1.00  0.00     0.008 A 
ENDROOT
BRANCH   1   7
HETATM    7  C   UNL     1       4.070 -11.037   5.354  1.00  0.00     0.112 C 
HETATM    8  C   UNL     1       5.066 -10.095   4.675  1.00  0.00     0.026 C 
BRANCH   7   9
HETATM    9  C   UNL     1       2.672 -10.508   5.167  1.00  0.00     0.148 C 
HETATM   10  O   UNL     1       1.790 -11.250   4.806  1.00  0.00    -0.649 OA
BRANCH   9  11
HETATM   11  O   UNL     1       2.407  -9.213   5.399  1.00  0.00    -0.776 OA
HETATM   12  H   UNL     1       1.511  -8.872   5.270  1.00  0.00     0.167 HD
ENDBRANCH   9  11
ENDBRANCH   7   9
ENDBRANCH   1   7
BRANCH   4  13
HETATM   13  C   UNL     1       5.261 -11.372  10.997  1.00  0.00     0.042 C 
BRANCH  13  14
HETATM   14  C   UNL     1       4.526 -12.568  11.603  1.00  0.00    -0.019 C 
HETATM   15  C   UNL     1       5.419 -13.239  12.649  1.00  0.00     0.010 C 
HETATM   16  C   UNL     1       3.234 -12.091  12.267  1.00  0.00     0.010 C 
ENDBRANCH  13  14
ENDBRANCH   4  13
TORSDOF 5
ENDMDL
MODEL 14
REMARK VINA RESULT:    -6.423      3.038      6.025
REMARK INTER + INTRA:          -8.455
REMARK INTER:                  -7.875
REMARK INTRA:                  -0.580
REMARK UNBOUND:                -0.342
REMARK  5 active torsions:
REMARK  status: ('A' for Active; 'I' for Inactive)
REMARK    1  A    between atoms: C_1  and  C_6 
REMARK    2  A    between atoms: C_1  and  O_14 
REMARK    3  A    between atoms: C_2  and  C_3 
REMARK    4  A    between atoms: C_2  and  C_11 
REMARK    5  A    between atoms: C_6  and  C_8 
ROOT
HETATM    1  C   UNL     1       3.986  -9.956   7.658  1.00  0.00    -0.044 A 
HETATM    2  C   UNL     1       3.068  -9.716   8.663  1.00  0.00     0.008 A 
HETATM    3  C   UNL     1       3.059 -10.510   9.793  1.00  0.00     0.007 A 
HETATM    4  C   UNL     1       3.966 -11.545   9.918  1.00  0.00    -0.058 A 
HETATM    5  C   UNL     1       4.888 -11.781   8.916  1.00  0.00     0.007 A 
HETATM    6  C   UNL     1       4.894 -10.989   7.784  1.00  0.00     0.008 A 
ENDROOT
BRANCH   1   7
HETATM    7  C   UNL     1       3.996  -9.091   6.424  1.00  0.00     0.112 C 
HETATM    8  C   UNL     1       3.150  -7.841   6.670  1.00  0.00     0.026 C 
BRANCH   7   9
HETATM    9  C   UNL     1       3.425  -9.864   5.264  1.00  0.00     0.148 C 
HETATM   10  O   UNL     1       2.344 -10.393   5.364  1.00  0.00    -0.649 OA
BRANCH   9  11
HETATM   11  O   UNL     1       4.119  -9.967   4.119  1.00  0.00    -0.776 OA
HETATM   12  H   UNL     1       4.259 -10.834   3.715  1.00  0.00     0.167 HD
ENDBRANCH   9  11
ENDBRANCH   7   9
ENDBRANCH   1   7
BRANCH   4  13
HETATM   13  C   UNL     1       3.956 -12.411  11.152  1.00  0.00     0.042 C 
BRANCH  13  14
HETATM   14  C   UNL     1       5.196 -12.113  11.995  1.00  0.00    -0.019 C 
HETATM   15  C   UNL     1       4.878 -10.997  12.993  1.00  0.00     0.010 C 
HETATM   16  C   UNL     1       5.612 -13.373  12.755  1.00  0.00     0.010 C 
ENDBRANCH  13  14
ENDBRANCH   4  13
TORSDOF 5
ENDMDL
MODEL 15
REMARK VINA RESULT:    -6.253      4.440      5.386
REMARK INTER + INTRA:          -8.239
REMARK INTER:                  -7.635
REMARK INTRA:                  -0.604
REMARK UNBOUND:                -0.342
REMARK  5 active torsions:
REMARK  status: ('A' for Active; 'I' for Inactive)
REMARK    1  A    between atoms: C_1  and  C_6 
REMARK    2  A    between atoms: C_1  and  O_14 
REMARK    3  A    between atoms: C_2  and  C_3 
REMARK    4  A    between atoms: C_2  and  C_11 
REMARK    5  A    between atoms: C_6  and  C_8 
ROOT
HETATM    1  C   UNL     1       4.353  -7.200   6.432  1.00  0.00    -0.044 A 
HETATM    2  C   UNL     1       3.221  -7.948   6.696  1.00  0.00     0.008 A 
HETATM    3  C   UNL     1       3.143  -9.258   6.265  1.00  0.00     0.007 A 
HETATM    4  C   UNL     1       4.196  -9.820   5.569  1.00  0.00    -0.058 A 
HETATM    5  C   UNL     1       5.330  -9.074   5.310  1.00  0.00     0.007 A 
HETATM    6  C   UNL     1       5.406  -7.762   5.737  1.00  0.00     0.008 A 
ENDROOT
BRANCH   1   7
HETATM    7  C   UNL     1       4.439  -5.771   6.901  1.00  0.00     0.112 C 
HETATM    8  C   UNL     1       4.123  -5.704   8.396  1.00  0.00     0.026 C 
BRANCH   7   9
HETATM    9  C   UNL     1       3.445  -4.932   6.140  1.00  0.00     0.148 C 
HETATM   10  O   UNL     1       2.637  -4.262   6.738  1.00  0.00    -0.649 OA
BRANCH   9  11
HETATM   11  O   UNL     1       3.457  -4.930   4.798  1.00  0.00    -0.776 OA
HETATM   12  H   UNL     1       2.907  -4.301   4.310  1.00  0.00     0.167 HD
ENDBRANCH   9  11
ENDBRANCH   7   9
ENDBRANCH   1   7
BRANCH   4  13
HETATM   13  C   UNL     1       4.111 -11.250   5.098  1.00  0.00     0.042 C 
BRANCH  13  14
HETATM   14  C   UNL     1       3.677 -11.279   3.632  1.00  0.00    -0.019 C 
HETATM   15  C   UNL     1       4.487 -12.338   2.881  1.00  0.00     0.010 C 
HETATM   16  C   UNL     1       2.189 -11.620   3.547  1.00  0.00     0.010 C 
ENDBRANCH  13  14
ENDBRANCH   4  13
TORSDOF 5
ENDMDL
MODEL 16
REMARK VINA RESULT:    -6.250      4.498      5.443
REMARK INTER + INTRA:          -8.236
REMARK INTER:                  -7.651
REMARK INTRA:                  -0.585
REMARK UNBOUND:                -0.342
REMARK  5 active torsions:
REMARK  status: ('A' for Active; 'I' for Inactive)
REMARK    1  A    between atoms: C_1  and  C_6 
REMARK    2  A    between atoms: C_1  and  O_14 
REMARK    3  A    between atoms: C_2  and  C_3 
REMARK    4  A    between atoms: C_2  and  C_11 
REMARK    5  A    between atoms: C_6  and  C_8 
ROOT
HETATM    1  C   UNL     1       4.348  -7.163   6.348  1.00  0.00    -0.044 A 
HETATM    2  C   UNL     1       5.370  -7.749   5.625  1.00  0.00     0.008 A 
HETATM    3  C   UNL     1       5.268  -9.069   5.230  1.00  0.00     0.007 A 
HETATM    4  C   UNL     1       4.144  -9.803   5.558  1.00  0.00    -0.058 A 
HETATM    5  C   UNL     1       3.120  -9.216   6.276  1.00  0.00     0.007 A 
HETATM    6  C   UNL     1       3.224  -7.897   6.675  1.00  0.00     0.008 A 
ENDROOT
BRANCH   1   7
HETATM    7  C   UNL     1       4.459  -5.724   6.780  1.00  0.00     0.112 C 
HETATM    8  C   UNL     1       4.125  -5.610   8.268  1.00  0.00     0.026 C 
BRANCH   7   9
HETATM    9  C   UNL     1       3.496  -4.884   5.983  1.00  0.00     0.148 C 
HETATM   10  O   UNL     1       3.532  -4.905   4.776  1.00  0.00    -0.649 OA
BRANCH   9  11
HETATM   11  O   UNL     1       2.598  -4.110   6.614  1.00  0.00    -0.776 OA
HETATM   12  H   UNL     1       1.750  -4.483   6.893  1.00  0.00     0.167 HD
ENDBRANCH   9  11
ENDBRANCH   7   9
ENDBRANCH   1   7
BRANCH   4  13
HETATM   13  C   UNL     1       4.033 -11.243   5.127  1.00  0.00     0.042 C 
BRANCH  13  14
HETATM   14  C   UNL     1       3.546 -11.306   3.679  1.00  0.00    -0.019 C 
HETATM   15  C   UNL     1       4.292 -12.417   2.937  1.00  0.00     0.010 C 
HETATM   16  C   UNL     1       2.045 -11.597   3.657  1.00  0.00     0.010 C 
ENDBRANCH  13  14
ENDBRANCH   4  13
TORSDOF 5
ENDMDL
MODEL 17
REMARK VINA RESULT:    -6.249      2.922      5.700
REMARK INTER + INTRA:          -8.235
REMARK INTER:                  -7.808
REMARK INTRA:                  -0.427
REMARK UNBOUND:                -0.342
REMARK  5 active torsions:
REMARK  status: ('A' for Active; 'I' for Inactive)
REMARK    1  A    between atoms: C_1  and  C_6 
REMARK    2  A    between atoms: C_1  and  O_14 
REMARK    3  A    between atoms: C_2  and  C_3 
REMARK    4  A    between atoms: C_2  and  C_11 
REMARK    5  A    between atoms: C_6  and  C_8 
ROOT
HETATM    1  C   UNL     1       4.025  -9.775   7.482  1.00  0.00    -0.044 A 
HETATM    2  C   UNL     1       4.996 -10.752   7.603  1.00  0.00     0.008 A 
HETATM    3  C   UNL     1       4.992 -11.597   8.695  1.00  0.00     0.007 A 
HETATM    4  C   UNL     1       4.018 -11.466   9.667  1.00  0.00    -0.058 A 
HETATM    5  C   UNL     1       3.045 -10.493   9.543  1.00  0.00     0.007 A 
HETATM    6  C   UNL     1       3.052  -9.644   8.453  1.00  0.00     0.008 A 
ENDROOT
BRANCH   1   7
HETATM    7  C   UNL     1       4.030  -8.851   6.291  1.00  0.00     0.112 C 
HETATM    8  C   UNL     1       5.466  -8.652   5.805  1.00  0.00     0.026 C 
BRANCH   7   9
HETATM    9  C   UNL     1       3.445  -7.520   6.686  1.00  0.00     0.148 C 
HETATM   10  O   UNL     1       2.347  -7.203   6.294  1.00  0.00    -0.649 OA
BRANCH   9  11
HETATM   11  O   UNL     1       4.144  -6.686   7.472  1.00  0.00    -0.776 OA
HETATM   12  H   UNL     1       3.692  -6.177   8.159  1.00  0.00     0.167 HD
ENDBRANCH   9  11
ENDBRANCH   7   9
ENDBRANCH   1   7
BRANCH   4  13
HETATM   13  C   UNL     1       4.014 -12.389  10.859  1.00  0.00     0.042 C 
BRANCH  13  14
HETATM   14  C   UNL     1       5.156 -12.009  11.802  1.00  0.00    -0.019 C 
HETATM   15  C   UNL     1       4.724 -10.831  12.678  1.00  0.00     0.010 C 
HETATM   16  C   UNL     1       5.504 -13.204  12.690  1.00  0.00     0.010 C 
ENDBRANCH  13  14
ENDBRANCH   4  13
TORSDOF 5
ENDMDL
MODEL 18
REMARK VINA RESULT:    -6.238      8.775     10.053
REMARK INTER + INTRA:          -8.220
REMARK INTER:                  -7.878
REMARK INTRA:                  -0.342
REMARK UNBOUND:                -0.342
REMARK  5 active torsions:
REMARK  status: ('A' for Active; 'I' for Inactive)
REMARK    1  A    between atoms: C_1  and  C_6 
REMARK    2  A    between atoms: C_1  and  O_14 
REMARK    3  A    between atoms: C_2  and  C_3 
REMARK    4  A    between atoms: C_2  and  C_11 
REMARK    5  A    between atoms: C_6  and  C_8 
ROOT
HETATM    1  C   UNL     1       4.505  -3.527   6.882  1.00  0.00    -0.044 A 
HETATM    2  C   UNL     1       5.036  -2.910   5.765  1.00  0.00     0.008 A 
HETATM    3  C   UNL     1       5.983  -1.915   5.911  1.00  0.00     0.007 A 
HETATM    4  C   UNL     1       6.399  -1.536   7.174  1.00  0.00    -0.058 A 
HETATM    5  C   UNL     1       5.871  -2.156   8.290  1.00  0.00     0.007 A 
HETATM    6  C   UNL     1       4.921  -3.148   8.144  1.00  0.00     0.008 A 
ENDROOT
BRANCH   1   7
HETATM    7  C   UNL     1       3.471  -4.611   6.724  1.00  0.00     0.112 C 
HETATM    8  C   UNL     1       4.098  -5.817   6.023  1.00  0.00     0.026 C 
BRANCH   7   9
HETATM    9  C   UNL     1       2.321  -4.093   5.900  1.00  0.00     0.148 C 
HETATM   10  O   UNL     1       2.067  -4.599   4.833  1.00  0.00    -0.649 OA
BRANCH   9  11
HETATM   11  O   UNL     1       1.581  -3.067   6.350  1.00  0.00    -0.776 OA
HETATM   12  H   UNL     1       0.736  -2.859   5.927  1.00  0.00     0.167 HD
ENDBRANCH   9  11
ENDBRANCH   7   9
ENDBRANCH   1   7
BRANCH   4  13
HETATM   13  C   UNL     1       7.432  -0.450   7.332  1.00  0.00     0.042 C 
BRANCH  13  14
HETATM   14  C   UNL     1       8.235  -0.317   6.038  1.00  0.00    -0.019 C 
HETATM   15  C   UNL     1       7.642   0.806   5.183  1.00  0.00     0.010 C 
HETATM   16  C   UNL     1       9.690   0.011   6.371  1.00  0.00     0.010 C 
ENDBRANCH  13  14
ENDBRANCH   4  13
TORSDOF 5
ENDMDL
MODEL 19
REMARK VINA RESULT:    -6.155      5.191      6.522
REMARK INTER + INTRA:          -8.116
REMARK INTER:                  -7.577
REMARK INTRA:                  -0.539
REMARK UNBOUND:                -0.342
REMARK  5 active torsions:
REMARK  status: ('A' for Active; 'I' for Inactive)
REMARK    1  A    between atoms: C_1  and  C_6 
REMARK    2  A    between atoms: C_1  and  O_14 
REMARK    3  A    between atoms: C_2  and  C_3 
REMARK    4  A    between atoms: C_2  and  C_11 
REMARK    5  A    between atoms: C_6  and  C_8 
ROOT
HETATM    1  C   UNL     1       4.235  -5.501   6.202  1.00  0.00    -0.044 A 
HETATM    2  C   UNL     1       5.239  -5.917   5.348  1.00  0.00     0.008 A 
HETATM    3  C   UNL     1       5.630  -7.242   5.335  1.00  0.00     0.007 A 
HETATM    4  C   UNL     1       5.018  -8.151   6.177  1.00  0.00    -0.058 A 
HETATM    5  C   UNL     1       4.010  -7.737   7.026  1.00  0.00     0.007 A 
HETATM    6  C   UNL     1       3.623  -6.411   7.043  1.00  0.00     0.008 A 
ENDROOT
BRANCH   1   7
HETATM    7  C   UNL     1       3.809  -4.056   6.218  1.00  0.00     0.112 C 
HETATM    8  C   UNL     1       3.912  -3.509   7.643  1.00  0.00     0.026 C 
BRANCH   7   9
HETATM    9  C   UNL     1       2.386  -3.946   5.739  1.00  0.00     0.148 C 
HETATM   10  O   UNL     1       2.028  -4.560   4.762  1.00  0.00    -0.649 OA
BRANCH   9  11
HETATM   11  O   UNL     1       1.514  -3.165   6.397  1.00  0.00    -0.776 OA
HETATM   12  H   UNL     1       1.745  -2.249   6.602  1.00  0.00     0.167 HD
ENDBRANCH   9  11
ENDBRANCH   7   9
ENDBRANCH   1   7
BRANCH   4  13
HETATM   13  C   UNL     1       5.444  -9.597   6.162  1.00  0.00     0.042 C 
BRANCH  13  14
HETATM   14  C   UNL     1       4.275 -10.478   6.601  1.00  0.00    -0.019 C 
HETATM   15  C   UNL     1       3.528 -10.987   5.366  1.00  0.00     0.010 C 
HETATM   16  C   UNL     1       4.804 -11.668   7.402  1.00  0.00     0.010 C 
ENDBRANCH  13  14
ENDBRANCH   4  13
TORSDOF 5
ENDMDL
MODEL 20
REMARK VINA RESULT:    -6.119      2.802      4.262
REMARK INTER + INTRA:          -8.071
REMARK INTER:                  -7.507
REMARK INTRA:                  -0.564
REMARK UNBOUND:                -0.342
REMARK  5 active torsions:
REMARK  status: ('A' for Active; 'I' for Inactive)
REMARK    1  A    between atoms: C_1  and  C_6 
REMARK    2  A    between atoms: C_1  and  O_14 
REMARK    3  A    between atoms: C_2  and  C_3 
REMARK    4  A    between atoms: C_2  and  C_11 
REMARK    5  A    between atoms: C_6  and  C_8 
ROOT
HETATM    1  C   UNL     1       5.288 -12.318   7.845  1.00  0.00    -0.044 A 
HETATM    2  C   UNL     1       4.895 -11.890   9.100  1.00  0.00     0.008 A 
HETATM    3  C   UNL     1       4.200 -10.704   9.238  1.00  0.00     0.007 A 
HETATM    4  C   UNL     1       3.900  -9.945   8.123  1.00  0.00    -0.058 A 
HETATM    5  C   UNL     1       4.288 -10.376   6.869  1.00  0.00     0.007 A 
HETATM    6  C   UNL     1       4.987 -11.559   6.731  1.00  0.00     0.008 A 
ENDROOT
BRANCH   1   7
HETATM    7  C   UNL     1       6.047 -13.611   7.694  1.00  0.00     0.112 C 
HETATM    8  C   UNL     1       5.319 -14.722   8.452  1.00  0.00     0.026 C 
BRANCH   7   9
HETATM    9  C   UNL     1       7.435 -13.447   8.255  1.00  0.00     0.148 C 
HETATM   10  O   UNL     1       7.894 -14.292   8.987  1.00  0.00    -0.649 OA
BRANCH   9  11
HETATM   11  O   UNL     1       8.162 -12.362   7.943  1.00  0.00    -0.776 OA
HETATM   12  H   UNL     1       9.111 -12.448   7.774  1.00  0.00     0.167 HD
ENDBRANCH   9  11
ENDBRANCH   7   9
ENDBRANCH   1   7
BRANCH   4  13
HETATM   13  C   UNL     1       3.142  -8.650   8.274  1.00  0.00     0.042 C 
BRANCH  13  14
HETATM   14  C   UNL     1       3.577  -7.674   7.181  1.00  0.00    -0.019 C 
HETATM   15  C   UNL     1       2.363  -7.279   6.337  1.00  0.00     0.010 C 
HETATM   16  C   UNL     1       4.180  -6.424   7.823  1.00  0.00     0.010 C 
ENDBRANCH  13  14
ENDBRANCH   4  13
TORSDOF 5
ENDMDL
