MODEL 1
REMARK VINA RESULT:    -6.222      0.000      0.000
REMARK INTER + INTRA:          -7.566
REMARK INTER:                  -8.265
REMARK INTRA:                   0.698
REMARK UNBOUND:                 1.929
REMARK  9 active torsions:
REMARK  status: ('A' for Active; 'I' for Inactive)
REMARK    1  A    between atoms: C_13  and  C_16 
REMARK    2  A    between atoms: C_14  and  C_17 
REMARK    3  A    between atoms: C_15  and  C_18 
REMARK    4  A    between atoms: C_16  and  C_22 
REMARK    5  A    between atoms: C_17  and  C_23 
REMARK    6  A    between atoms: C_18  and  C_24 
REMARK    7  A    between atoms: C_19  and  C_25 
REMARK    8  A    between atoms: C_20  and  C_26 
REMARK    9  A    between atoms: C_21  and  C_27 
ROOT
HETATM    1  O   UNL     1      11.428  -0.134 -23.142  1.00  0.00    -0.304 OA
HETATM    2  O   UNL     1       6.821  -1.349 -24.894  1.00  0.00    -0.304 OA
HETATM    3  O   UNL     1       8.494   2.630 -22.696  1.00  0.00    -0.304 OA
HETATM    4  O   UNL     1      10.335  -1.756 -24.844  1.00  0.00    -0.270 OA
HETATM    5  O   UNL     1      10.254   4.512 -20.406  1.00  0.00    -0.270 OA
HETATM    6  O   UNL     1       8.285   0.804 -25.294  1.00  0.00    -0.270 OA
HETATM    7  O   UNL     1      12.255   0.625 -21.127  1.00  0.00    -0.263 OA
HETATM    8  O   UNL     1       7.053  -1.324 -22.597  1.00  0.00    -0.263 OA
HETATM    9  O   UNL     1       8.672   4.895 -23.064  1.00  0.00    -0.263 OA
HETATM   10  N   UNL     1       9.308  -2.914 -23.116  1.00  0.00    -0.340 N 
HETATM   11  N   UNL     1      11.523   3.212 -21.847  1.00  0.00    -0.340 N 
HETATM   12  N   UNL     1       6.684   2.339 -24.612  1.00  0.00    -0.340 N 
HETATM   13  C   UNL     1       8.082  -3.093 -23.919  1.00  0.00     0.190 C 
HETATM   14  C   UNL     1      11.631   2.183 -22.903  1.00  0.00     0.190 C 
HETATM   15  C   UNL     1       7.628   3.474 -24.740  1.00  0.00     0.190 C 
HETATM   16  C   UNL     1      11.323  -1.499 -22.684  1.00  0.00     0.227 C 
HETATM   17  C   UNL     1       6.107  -0.097 -24.872  1.00  0.00     0.227 C 
HETATM   18  C   UNL     1       9.099   2.651 -21.400  1.00  0.00     0.227 C 
HETATM   19  C   UNL     1      10.303  -2.084 -23.652  1.00  0.00     0.250 C 
HETATM   20  C   UNL     1      10.333   3.554 -21.184  1.00  0.00     0.250 C 
HETATM   21  C   UNL     1       7.125   1.048 -24.942  1.00  0.00     0.250 C 
HETATM   22  C   UNL     1      11.826   0.822 -22.254  1.00  0.00     0.283 C 
HETATM   23  C   UNL     1       7.263  -1.829 -23.692  1.00  0.00     0.283 C 
HETATM   24  C   UNL     1       8.286   3.781 -23.395  1.00  0.00     0.283 C 
HETATM   25  C   UNL     1       9.362  -3.482 -21.767  1.00  0.00     0.153 C 
HETATM   26  C   UNL     1      12.744   3.922 -21.467  1.00  0.00     0.153 C 
HETATM   27  C   UNL     1       5.358   2.651 -24.070  1.00  0.00     0.153 C 
ENDROOT
BRANCH  16  28
HETATM   28  C   UNL     1      12.661  -2.203 -22.822  1.00  0.00     0.016 C 
HETATM   29  C   UNL     1      13.255  -1.966 -24.209  1.00  0.00     0.012 C 
HETATM   30  C   UNL     1      12.512  -3.699 -22.552  1.00  0.00     0.012 C 
ENDBRANCH  16  28
BRANCH  14  31
HETATM   31  C   UNL     1      12.727   2.432 -23.938  1.00  0.00     0.014 C 
HETATM   32  C   UNL     1      13.892   1.468 -23.699  1.00  0.00     0.012 C 
BRANCH  31  33
HETATM   33  C   UNL     1      12.214   2.284 -25.381  1.00  0.00     0.002 C 
HETATM   34  C   UNL     1      11.165   3.318 -25.763  1.00  0.00     0.005 C 
ENDBRANCH  31  33
ENDBRANCH  14  31
BRANCH  13  35
HETATM   35  C   UNL     1       7.236  -4.319 -23.605  1.00  0.00     0.014 C 
HETATM   36  C   UNL     1       5.805  -4.103 -24.106  1.00  0.00     0.012 C 
BRANCH  35  37
HETATM   37  C   UNL     1       7.813  -5.606 -24.220  1.00  0.00     0.002 C 
HETATM   38  C   UNL     1       7.209  -6.879 -23.643  1.00  0.00     0.005 C 
ENDBRANCH  35  37
ENDBRANCH  13  35
BRANCH  18  39
HETATM   39  C   UNL     1       7.998   2.956 -20.382  1.00  0.00     0.016 C 
HETATM   40  C   UNL     1       6.660   2.395 -20.855  1.00  0.00     0.012 C 
HETATM   41  C   UNL     1       8.364   2.390 -19.011  1.00  0.00     0.012 C 
ENDBRANCH  18  39
BRANCH  17  42
HETATM   42  C   UNL     1       5.208  -0.074 -26.100  1.00  0.00     0.016 C 
HETATM   43  C   UNL     1       4.347  -1.335 -26.162  1.00  0.00     0.012 C 
HETATM   44  C   UNL     1       6.038   0.069 -27.375  1.00  0.00     0.012 C 
ENDBRANCH  17  42
BRANCH  15  45
HETATM   45  C   UNL     1       6.996   4.723 -25.352  1.00  0.00     0.014 C 
HETATM   46  C   UNL     1       6.552   5.683 -24.243  1.00  0.00     0.012 C 
BRANCH  45  47
HETATM   47  C   UNL     1       7.946   5.453 -26.320  1.00  0.00     0.002 C 
HETATM   48  C   UNL     1       7.737   6.960 -26.353  1.00  0.00     0.005 C 
ENDBRANCH  45  47
ENDBRANCH  15  45
TORSDOF 9
ENDMDL
MODEL 2
REMARK VINA RESULT:    -4.657      3.679      9.756
REMARK INTER + INTRA:          -5.179
REMARK INTER:                  -6.539
REMARK INTRA:                   1.360
REMARK UNBOUND:                 1.929
REMARK  9 active torsions:
REMARK  status: ('A' for Active; 'I' for Inactive)
REMARK    1  A    between atoms: C_13  and  C_16 
REMARK    2  A    between atoms: C_14  and  C_17 
REMARK    3  A    between atoms: C_15  and  C_18 
REMARK    4  A    between atoms: C_16  and  C_22 
REMARK    5  A    between atoms: C_17  and  C_23 
REMARK    6  A    between atoms: C_18  and  C_24 
REMARK    7  A    between atoms: C_19  and  C_25 
REMARK    8  A    between atoms: C_20  and  C_26 
REMARK    9  A    between atoms: C_21  and  C_27 
ROOT
HETATM    1  O   UNL     1       7.400   6.322 -24.845  1.00  0.00    -0.304 OA
HETATM    2  O   UNL     1      11.625   8.978 -23.918  1.00  0.00    -0.304 OA
HETATM    3  O   UNL     1      10.614   4.262 -23.479  1.00  0.00    -0.304 OA
HETATM    4  O   UNL     1       8.496   8.573 -25.517  1.00  0.00    -0.270 OA
HETATM    5  O   UNL     1       8.795   1.448 -22.667  1.00  0.00    -0.270 OA
HETATM    6  O   UNL     1      11.267   6.775 -25.318  1.00  0.00    -0.270 OA
HETATM    7  O   UNL     1       6.112   4.839 -23.636  1.00  0.00    -0.263 OA
HETATM    8  O   UNL     1      10.480   8.223 -22.061  1.00  0.00    -0.263 OA
HETATM    9  O   UNL     1      11.368   2.227 -24.244  1.00  0.00    -0.263 OA
HETATM   10  N   UNL     1       8.260   9.362 -23.348  1.00  0.00    -0.340 N 
HETATM   11  N   UNL     1       7.890   2.807 -24.313  1.00  0.00    -0.340 N 
HETATM   12  N   UNL     1      12.848   5.496 -24.200  1.00  0.00    -0.340 N 
HETATM   13  C   UNL     1       9.573  10.035 -23.415  1.00  0.00     0.190 C 
HETATM   14  C   UNL     1       7.897   4.052 -25.109  1.00  0.00     0.190 C 
HETATM   15  C   UNL     1      12.479   4.273 -24.950  1.00  0.00     0.190 C 
HETATM   16  C   UNL     1       6.844   7.478 -24.183  1.00  0.00     0.227 C 
HETATM   17  C   UNL     1      12.636   7.963 -23.753  1.00  0.00     0.227 C 
HETATM   18  C   UNL     1       9.569   3.725 -22.662  1.00  0.00     0.227 C 
HETATM   19  C   UNL     1       7.916   8.532 -24.425  1.00  0.00     0.250 C 
HETATM   20  C   UNL     1       8.734   2.552 -23.220  1.00  0.00     0.250 C 
HETATM   21  C   UNL     1      12.184   6.698 -24.491  1.00  0.00     0.250 C 
HETATM   22  C   UNL     1       7.010   5.083 -24.428  1.00  0.00     0.283 C 
HETATM   23  C   UNL     1      10.591   8.971 -23.024  1.00  0.00     0.283 C 
HETATM   24  C   UNL     1      11.463   3.445 -24.162  1.00  0.00     0.283 C 
HETATM   25  C   UNL     1       7.464   9.478 -22.125  1.00  0.00     0.153 C 
HETATM   26  C   UNL     1       6.934   1.767 -24.693  1.00  0.00     0.153 C 
HETATM   27  C   UNL     1      13.848   5.335 -23.139  1.00  0.00     0.153 C 
ENDROOT
BRANCH  16  28
HETATM   28  C   UNL     1       5.536   7.881 -24.838  1.00  0.00     0.016 C 
HETATM   29  C   UNL     1       5.780   8.404 -26.252  1.00  0.00     0.012 C 
HETATM   30  C   UNL     1       4.813   8.932 -23.996  1.00  0.00     0.012 C 
ENDBRANCH  16  28
BRANCH  14  31
HETATM   31  C   UNL     1       7.483   3.888 -26.570  1.00  0.00     0.014 C 
HETATM   32  C   UNL     1       7.314   5.265 -27.217  1.00  0.00     0.012 C 
BRANCH  31  33
HETATM   33  C   UNL     1       8.494   3.054 -27.375  1.00  0.00     0.002 C 
HETATM   34  C   UNL     1       9.902   3.633 -27.371  1.00  0.00     0.005 C 
ENDBRANCH  31  33
ENDBRANCH  14  31
BRANCH  13  35
HETATM   35  C   UNL     1       9.751  11.266 -22.538  1.00  0.00     0.014 C 
HETATM   36  C   UNL     1      11.223  11.688 -22.530  1.00  0.00     0.012 C 
BRANCH  35  37
HETATM   37  C   UNL     1       8.874  12.446 -22.993  1.00  0.00     0.002 C 
HETATM   38  C   UNL     1       8.216  13.194 -21.842  1.00  0.00     0.005 C 
ENDBRANCH  35  37
ENDBRANCH  13  35
BRANCH  18  39
HETATM   39  C   UNL     1      10.178   3.381 -21.302  1.00  0.00     0.016 C 
HETATM   40  C   UNL     1      11.181   4.450 -20.877  1.00  0.00     0.012 C 
HETATM   41  C   UNL     1       9.083   3.223 -20.249  1.00  0.00     0.012 C 
ENDBRANCH  18  39
BRANCH  17  42
HETATM   42  C   UNL     1      13.916   8.503 -24.376  1.00  0.00     0.016 C 
HETATM   43  C   UNL     1      14.000  10.020 -24.208  1.00  0.00     0.012 C 
HETATM   44  C   UNL     1      14.000   8.124 -25.853  1.00  0.00     0.012 C 
ENDBRANCH  17  42
BRANCH  15  45
HETATM   45  C   UNL     1      13.683   3.431 -25.368  1.00  0.00     0.014 C 
HETATM   46  C   UNL     1      13.742   2.148 -24.532  1.00  0.00     0.012 C 
BRANCH  45  47
HETATM   47  C   UNL     1      13.662   3.072 -26.866  1.00  0.00     0.002 C 
HETATM   48  C   UNL     1      13.169   1.660 -27.144  1.00  0.00     0.005 C 
ENDBRANCH  45  47
ENDBRANCH  15  45
TORSDOF 9
ENDMDL
MODEL 3
REMARK VINA RESULT:    -4.486      5.141     10.024
REMARK INTER + INTRA:          -4.918
REMARK INTER:                  -7.074
REMARK INTRA:                   2.156
REMARK UNBOUND:                 1.929
REMARK  9 active torsions:
REMARK  status: ('A' for Active; 'I' for Inactive)
REMARK    1  A    between atoms: C_13  and  C_16 
REMARK    2  A    between atoms: C_14  and  C_17 
REMARK    3  A    between atoms: C_15  and  C_18 
REMARK    4  A    between atoms: C_16  and  C_22 
REMARK    5  A    between atoms: C_17  and  C_23 
REMARK    6  A    between atoms: C_18  and  C_24 
REMARK    7  A    between atoms: C_19  and  C_25 
REMARK    8  A    between atoms: C_20  and  C_26 
REMARK    9  A    between atoms: C_21  and  C_27 
ROOT
HETATM    1  O   UNL     1       9.000  10.823 -23.334  1.00  0.00    -0.304 OA
HETATM    2  O   UNL     1       6.221   6.742 -24.514  1.00  0.00    -0.304 OA
HETATM    3  O   UNL     1      10.986   7.580 -24.744  1.00  0.00    -0.304 OA
HETATM    4  O   UNL     1       6.684   9.794 -22.785  1.00  0.00    -0.270 OA
HETATM    5  O   UNL     1      13.895   9.315 -25.385  1.00  0.00    -0.270 OA
HETATM    6  O   UNL     1       8.382   6.962 -23.023  1.00  0.00    -0.270 OA
HETATM    7  O   UNL     1      10.576  12.094 -24.439  1.00  0.00    -0.263 OA
HETATM    8  O   UNL     1       7.088   7.922 -26.298  1.00  0.00    -0.263 OA
HETATM    9  O   UNL     1      12.960   6.720 -23.935  1.00  0.00    -0.263 OA
HETATM   10  N   UNL     1       5.987  10.138 -24.971  1.00  0.00    -0.340 N 
HETATM   11  N   UNL     1      12.511  10.214 -23.756  1.00  0.00    -0.340 N 
HETATM   12  N   UNL     1       9.640   5.373 -24.152  1.00  0.00    -0.340 N 
HETATM   13  C   UNL     1       5.263   8.852 -24.978  1.00  0.00     0.190 C 
HETATM   14  C   UNL     1      11.237  10.227 -23.007  1.00  0.00     0.190 C 
HETATM   15  C   UNL     1      10.848   5.666 -23.345  1.00  0.00     0.190 C 
HETATM   16  C   UNL     1       7.891  11.447 -24.017  1.00  0.00     0.227 C 
HETATM   17  C   UNL     1       7.201   5.699 -24.680  1.00  0.00     0.227 C 
HETATM   18  C   UNL     1      11.592   8.632 -25.501  1.00  0.00     0.227 C 
HETATM   19  C   UNL     1       6.789  10.410 -23.853  1.00  0.00     0.250 C 
HETATM   20  C   UNL     1      12.774   9.400 -24.870  1.00  0.00     0.250 C 
HETATM   21  C   UNL     1       8.455   6.074 -23.880  1.00  0.00     0.250 C 
HETATM   22  C   UNL     1      10.267  11.178 -23.691  1.00  0.00     0.283 C 
HETATM   23  C   UNL     1       6.301   7.807 -25.368  1.00  0.00     0.283 C 
HETATM   24  C   UNL     1      11.743   6.676 -24.064  1.00  0.00     0.283 C 
HETATM   25  C   UNL     1       5.948  10.982 -26.168  1.00  0.00     0.153 C 
HETATM   26  C   UNL     1      13.572  11.114 -23.304  1.00  0.00     0.153 C 
HETATM   27  C   UNL     1       9.803   4.407 -25.243  1.00  0.00     0.153 C 
ENDROOT
BRANCH  16  28
HETATM   28  C   UNL     1       7.514  12.746 -23.329  1.00  0.00     0.016 C 
HETATM   29  C   UNL     1       7.444  12.553 -21.815  1.00  0.00     0.012 C 
HETATM   30  C   UNL     1       6.184  13.273 -23.863  1.00  0.00     0.012 C 
ENDBRANCH  16  28
BRANCH  14  31
HETATM   31  C   UNL     1      11.362  10.582 -21.527  1.00  0.00     0.014 C 
HETATM   32  C   UNL     1      10.842  12.002 -21.290  1.00  0.00     0.012 C 
BRANCH  31  33
HETATM   33  C   UNL     1      10.607   9.592 -20.622  1.00  0.00     0.002 C 
HETATM   34  C   UNL     1       9.247  10.101 -20.164  1.00  0.00     0.005 C 
ENDBRANCH  31  33
ENDBRANCH  14  31
BRANCH  13  35
HETATM   35  C   UNL     1       4.059   8.753 -25.905  1.00  0.00     0.014 C 
HETATM   36  C   UNL     1       4.507   8.270 -27.287  1.00  0.00     0.012 C 
BRANCH  35  37
HETATM   37  C   UNL     1       2.968   7.819 -25.356  1.00  0.00     0.002 C 
HETATM   38  C   UNL     1       2.682   8.022 -23.874  1.00  0.00     0.005 C 
ENDBRANCH  35  37
ENDBRANCH  13  35
BRANCH  18  39
HETATM   39  C   UNL     1      11.964   8.060 -26.870  1.00  0.00     0.016 C 
HETATM   40  C   UNL     1      13.305   7.334 -26.801  1.00  0.00     0.012 C 
HETATM   41  C   UNL     1      10.870   7.120 -27.374  1.00  0.00     0.012 C 
ENDBRANCH  18  39
BRANCH  17  42
HETATM   42  C   UNL     1       6.590   4.420 -24.126  1.00  0.00     0.016 C 
HETATM   43  C   UNL     1       6.476   3.358 -25.218  1.00  0.00     0.012 C 
HETATM   44  C   UNL     1       5.220   4.699 -23.508  1.00  0.00     0.012 C 
ENDBRANCH  17  42
BRANCH  15  45
HETATM   45  C   UNL     1      11.626   4.415 -22.942  1.00  0.00     0.014 C 
HETATM   46  C   UNL     1      12.632   4.758 -21.837  1.00  0.00     0.012 C 
BRANCH  45  47
HETATM   47  C   UNL     1      10.707   3.273 -22.469  1.00  0.00     0.002 C 
HETATM   48  C   UNL     1      10.116   3.504 -21.086  1.00  0.00     0.005 C 
ENDBRANCH  45  47
ENDBRANCH  15  45
TORSDOF 9
ENDMDL
MODEL 4
REMARK VINA RESULT:    -4.360      1.950      4.513
REMARK INTER + INTRA:          -4.725
REMARK INTER:                  -5.679
REMARK INTRA:                   0.954
REMARK UNBOUND:                 1.929
REMARK  9 active torsions:
REMARK  status: ('A' for Active; 'I' for Inactive)
REMARK    1  A    between atoms: C_13  and  C_16 
REMARK    2  A    between atoms: C_14  and  C_17 
REMARK    3  A    between atoms: C_15  and  C_18 
REMARK    4  A    between atoms: C_16  and  C_22 
REMARK    5  A    between atoms: C_17  and  C_23 
REMARK    6  A    between atoms: C_18  and  C_24 
REMARK    7  A    between atoms: C_19  and  C_25 
REMARK    8  A    between atoms: C_20  and  C_26 
REMARK    9  A    between atoms: C_21  and  C_27 
ROOT
HETATM    1  O   UNL     1      11.312   1.975 -24.568  1.00  0.00    -0.304 OA
HETATM    2  O   UNL     1      10.197  -2.977 -24.664  1.00  0.00    -0.304 OA
HETATM    3  O   UNL     1       7.573   0.901 -23.423  1.00  0.00    -0.304 OA
HETATM    4  O   UNL     1      12.134  -0.206 -25.705  1.00  0.00    -0.270 OA
HETATM    5  O   UNL     1       6.864   3.942 -21.962  1.00  0.00    -0.270 OA
HETATM    6  O   UNL     1       8.902  -0.916 -25.672  1.00  0.00    -0.270 OA
HETATM    7  O   UNL     1      11.166   3.645 -22.985  1.00  0.00    -0.263 OA
HETATM    8  O   UNL     1      10.460  -2.042 -22.569  1.00  0.00    -0.263 OA
HETATM    9  O   UNL     1       5.606   1.946 -23.999  1.00  0.00    -0.263 OA
HETATM   10  N   UNL     1      12.844  -1.033 -23.657  1.00  0.00    -0.340 N 
HETATM   11  N   UNL     1       8.476   3.963 -23.629  1.00  0.00    -0.340 N 
HETATM   12  N   UNL     1       6.872  -1.351 -24.634  1.00  0.00    -0.340 N 
HETATM   13  C   UNL     1      12.392  -2.393 -24.012  1.00  0.00     0.190 C 
HETATM   14  C   UNL     1       9.357   3.257 -24.583  1.00  0.00     0.190 C 
HETATM   15  C   UNL     1       6.273  -0.095 -25.142  1.00  0.00     0.190 C 
HETATM   16  C   UNL     1      12.518   1.422 -23.999  1.00  0.00     0.227 C 
HETATM   17  C   UNL     1       8.764  -3.006 -24.511  1.00  0.00     0.227 C 
HETATM   18  C   UNL     1       7.927   1.828 -22.392  1.00  0.00     0.227 C 
HETATM   19  C   UNL     1      12.507  -0.000 -24.544  1.00  0.00     0.250 C 
HETATM   20  C   UNL     1       7.692   3.332 -22.649  1.00  0.00     0.250 C 
HETATM   21  C   UNL     1       8.193  -1.665 -24.988  1.00  0.00     0.250 C 
HETATM   22  C   UNL     1      10.709   3.017 -23.929  1.00  0.00     0.283 C 
HETATM   23  C   UNL     1      10.917  -2.440 -23.633  1.00  0.00     0.283 C 
HETATM   24  C   UNL     1       6.400   1.020 -24.104  1.00  0.00     0.283 C 
HETATM   25  C   UNL     1      13.481  -0.814 -22.357  1.00  0.00     0.153 C 
HETATM   26  C   UNL     1       8.419   5.422 -23.712  1.00  0.00     0.153 C 
HETATM   27  C   UNL     1       6.044  -2.148 -23.723  1.00  0.00     0.153 C 
ENDROOT
BRANCH  16  28
HETATM   28  C   UNL     1      13.733   2.181 -24.501  1.00  0.00     0.016 C 
HETATM   29  C   UNL     1      14.000   3.407 -23.630  1.00  0.00     0.012 C 
HETATM   30  C   UNL     1      13.546   2.592 -25.960  1.00  0.00     0.012 C 
ENDBRANCH  16  28
BRANCH  14  31
HETATM   31  C   UNL     1       9.544   3.956 -25.928  1.00  0.00     0.014 C 
HETATM   32  C   UNL     1      10.875   4.711 -25.939  1.00  0.00     0.012 C 
BRANCH  31  33
HETATM   33  C   UNL     1       9.492   2.973 -27.111  1.00  0.00     0.002 C 
HETATM   34  C   UNL     1       8.140   2.295 -27.281  1.00  0.00     0.005 C 
ENDBRANCH  31  33
ENDBRANCH  14  31
BRANCH  13  35
HETATM   35  C   UNL     1      13.131  -3.550 -23.353  1.00  0.00     0.014 C 
HETATM   36  C   UNL     1      12.152  -4.384 -22.521  1.00  0.00     0.012 C 
BRANCH  35  37
HETATM   37  C   UNL     1      13.844  -4.452 -24.375  1.00  0.00     0.002 C 
HETATM   38  C   UNL     1      12.911  -5.427 -25.082  1.00  0.00     0.005 C 
ENDBRANCH  35  37
ENDBRANCH  13  35
BRANCH  18  39
HETATM   39  C   UNL     1       7.244   1.368 -21.103  1.00  0.00     0.016 C 
HETATM   40  C   UNL     1       7.287  -0.154 -20.987  1.00  0.00     0.012 C 
HETATM   41  C   UNL     1       7.900   2.018 -19.887  1.00  0.00     0.012 C 
ENDBRANCH  18  39
BRANCH  17  42
HETATM   42  C   UNL     1       8.245  -4.138 -25.387  1.00  0.00     0.016 C 
HETATM   43  C   UNL     1       8.577  -5.495 -24.769  1.00  0.00     0.012 C 
HETATM   44  C   UNL     1       8.823  -4.038 -26.798  1.00  0.00     0.012 C 
ENDBRANCH  17  42
BRANCH  15  45
HETATM   45  C   UNL     1       4.829  -0.259 -25.614  1.00  0.00     0.014 C 
HETATM   46  C   UNL     1       4.128   1.104 -25.638  1.00  0.00     0.012 C 
BRANCH  45  47
HETATM   47  C   UNL     1       4.732  -0.916 -27.004  1.00  0.00     0.002 C 
HETATM   48  C   UNL     1       4.077  -2.289 -26.981  1.00  0.00     0.005 C 
ENDBRANCH  45  47
ENDBRANCH  15  45
TORSDOF 9
ENDMDL
MODEL 5
REMARK VINA RESULT:    -4.311      3.098      8.201
REMARK INTER + INTRA:          -4.650
REMARK INTER:                  -7.676
REMARK INTRA:                   3.026
REMARK UNBOUND:                 1.929
REMARK  9 active torsions:
REMARK  status: ('A' for Active; 'I' for Inactive)
REMARK    1  A    between atoms: C_13  and  C_16 
REMARK    2  A    between atoms: C_14  and  C_17 
REMARK    3  A    between atoms: C_15  and  C_18 
REMARK    4  A    between atoms: C_16  and  C_22 
REMARK    5  A    between atoms: C_17  and  C_23 
REMARK    6  A    between atoms: C_18  and  C_24 
REMARK    7  A    between atoms: C_19  and  C_25 
REMARK    8  A    between atoms: C_20  and  C_26 
REMARK    9  A    between atoms: C_21  and  C_27 
ROOT
HETATM    1  O   UNL     1      11.100   6.669 -23.715  1.00  0.00    -0.304 OA
HETATM    2  O   UNL     1       6.041   6.488 -24.085  1.00  0.00    -0.304 OA
HETATM    3  O   UNL     1       9.448   3.104 -24.721  1.00  0.00    -0.304 OA
HETATM    4  O   UNL     1       9.019   7.969 -22.880  1.00  0.00    -0.270 OA
HETATM    5  O   UNL     1      12.423   1.730 -25.791  1.00  0.00    -0.270 OA
HETATM    6  O   UNL     1       7.713   4.930 -22.776  1.00  0.00    -0.270 OA
HETATM    7  O   UNL     1      12.855   6.085 -25.094  1.00  0.00    -0.263 OA
HETATM    8  O   UNL     1       7.202   6.396 -26.079  1.00  0.00    -0.263 OA
HETATM    9  O   UNL     1      10.041   1.036 -23.905  1.00  0.00    -0.263 OA
HETATM   10  N   UNL     1       8.539   8.640 -25.048  1.00  0.00    -0.340 N 
HETATM   11  N   UNL     1      12.593   3.448 -24.243  1.00  0.00    -0.340 N 
HETATM   12  N   UNL     1       6.999   2.932 -23.717  1.00  0.00    -0.340 N 
HETATM   13  C   UNL     1       7.090   8.476 -24.814  1.00  0.00     0.190 C 
HETATM   14  C   UNL     1      11.981   4.521 -23.432  1.00  0.00     0.190 C 
HETATM   15  C   UNL     1       8.065   2.160 -23.037  1.00  0.00     0.190 C 
HETATM   16  C   UNL     1      10.843   7.902 -24.421  1.00  0.00     0.227 C 
HETATM   17  C   UNL     1       5.754   5.077 -24.145  1.00  0.00     0.227 C 
HETATM   18  C   UNL     1      10.519   3.194 -25.665  1.00  0.00     0.227 C 
HETATM   19  C   UNL     1       9.400   8.197 -24.034  1.00  0.00     0.250 C 
HETATM   20  C   UNL     1      11.920   2.711 -25.231  1.00  0.00     0.250 C 
HETATM   21  C   UNL     1       6.911   4.314 -23.488  1.00  0.00     0.250 C 
HETATM   22  C   UNL     1      12.065   5.833 -24.196  1.00  0.00     0.283 C 
HETATM   23  C   UNL     1       6.800   7.008 -25.097  1.00  0.00     0.283 C 
HETATM   24  C   UNL     1       9.277   1.992 -23.954  1.00  0.00     0.283 C 
HETATM   25  C   UNL     1       8.997   9.113 -26.356  1.00  0.00     0.153 C 
HETATM   26  C   UNL     1      14.000   3.133 -23.998  1.00  0.00     0.153 C 
HETATM   27  C   UNL     1       6.150   2.189 -24.653  1.00  0.00     0.153 C 
ENDROOT
BRANCH  16  28
HETATM   28  C   UNL     1      11.769   8.996 -23.921  1.00  0.00     0.016 C 
HETATM   29  C   UNL     1      11.751   9.062 -22.395  1.00  0.00     0.012 C 
HETATM   30  C   UNL     1      11.379  10.347 -24.519  1.00  0.00     0.012 C 
ENDBRANCH  16  28
BRANCH  14  31
HETATM   31  C   UNL     1      12.572   4.692 -22.033  1.00  0.00     0.014 C 
HETATM   32  C   UNL     1      13.518   5.894 -22.015  1.00  0.00     0.012 C 
BRANCH  31  33
HETATM   33  C   UNL     1      11.487   4.865 -20.956  1.00  0.00     0.002 C 
HETATM   34  C   UNL     1      10.491   3.716 -20.905  1.00  0.00     0.005 C 
ENDBRANCH  31  33
ENDBRANCH  14  31
BRANCH  13  35
HETATM   35  C   UNL     1       6.163   9.354 -25.643  1.00  0.00     0.014 C 
HETATM   36  C   UNL     1       4.860   8.604 -25.932  1.00  0.00     0.012 C 
BRANCH  35  37
HETATM   37  C   UNL     1       5.850  10.694 -24.954  1.00  0.00     0.002 C 
HETATM   38  C   UNL     1       5.017  10.547 -23.688  1.00  0.00     0.005 C 
ENDBRANCH  35  37
ENDBRANCH  13  35
BRANCH  18  39
HETATM   39  C   UNL     1      10.061   2.499 -26.949  1.00  0.00     0.016 C 
HETATM   40  C   UNL     1      10.033   0.984 -26.757  1.00  0.00     0.012 C 
HETATM   41  C   UNL     1       8.686   3.011 -27.375  1.00  0.00     0.012 C 
ENDBRANCH  18  39
BRANCH  17  42
HETATM   42  C   UNL     1       4.467   4.850 -23.365  1.00  0.00     0.016 C 
HETATM   43  C   UNL     1       3.879   3.475 -23.681  1.00  0.00     0.012 C 
HETATM   44  C   UNL     1       3.449   5.949 -23.670  1.00  0.00     0.012 C 
ENDBRANCH  17  42
BRANCH  15  45
HETATM   45  C   UNL     1       7.586   0.816 -22.491  1.00  0.00     0.014 C 
HETATM   46  C   UNL     1       8.470  -0.314 -23.030  1.00  0.00     0.012 C 
BRANCH  45  47
HETATM   47  C   UNL     1       7.573   0.773 -20.951  1.00  0.00     0.002 C 
HETATM   48  C   UNL     1       6.630   1.789 -20.324  1.00  0.00     0.005 C 
ENDBRANCH  45  47
ENDBRANCH  15  45
TORSDOF 9
ENDMDL
MODEL 6
REMARK VINA RESULT:    -4.262      6.972     11.938
REMARK INTER + INTRA:          -4.575
REMARK INTER:                  -6.480
REMARK INTRA:                   1.905
REMARK UNBOUND:                 1.929
REMARK  9 active torsions:
REMARK  status: ('A' for Active; 'I' for Inactive)
REMARK    1  A    between atoms: C_13  and  C_16 
REMARK    2  A    between atoms: C_14  and  C_17 
REMARK    3  A    between atoms: C_15  and  C_18 
REMARK    4  A    between atoms: C_16  and  C_22 
REMARK    5  A    between atoms: C_17  and  C_23 
REMARK    6  A    between atoms: C_18  and  C_24 
REMARK    7  A    between atoms: C_19  and  C_25 
REMARK    8  A    between atoms: C_20  and  C_26 
REMARK    9  A    between atoms: C_21  and  C_27 
ROOT
HETATM    1  O   UNL     1       9.209  12.991 -22.230  1.00  0.00    -0.304 OA
HETATM    2  O   UNL     1       7.539   8.509 -23.931  1.00  0.00    -0.304 OA
HETATM    3  O   UNL     1      11.752  10.824 -24.528  1.00  0.00    -0.304 OA
HETATM    4  O   UNL     1       7.415  11.211 -21.651  1.00  0.00    -0.270 OA
HETATM    5  O   UNL     1      13.890  13.465 -25.113  1.00  0.00    -0.270 OA
HETATM    6  O   UNL     1       9.776   9.138 -22.690  1.00  0.00    -0.270 OA
HETATM    7  O   UNL     1      10.139  14.860 -23.210  1.00  0.00    -0.263 OA
HETATM    8  O   UNL     1       7.708  10.188 -25.508  1.00  0.00    -0.263 OA
HETATM    9  O   UNL     1      14.000  10.499 -24.159  1.00  0.00    -0.263 OA
HETATM   10  N   UNL     1       6.275  11.688 -23.614  1.00  0.00    -0.340 N 
HETATM   11  N   UNL     1      12.617  13.593 -23.179  1.00  0.00    -0.340 N 
HETATM   12  N   UNL     1      11.214   8.240 -24.275  1.00  0.00    -0.340 N 
HETATM   13  C   UNL     1       5.956  10.260 -23.815  1.00  0.00     0.190 C 
HETATM   14  C   UNL     1      11.545  13.079 -22.302  1.00  0.00     0.190 C 
HETATM   15  C   UNL     1      12.412   8.753 -23.570  1.00  0.00     0.190 C 
HETATM   16  C   UNL     1       7.867  13.344 -22.628  1.00  0.00     0.227 C 
HETATM   17  C   UNL     1       8.730   7.870 -24.432  1.00  0.00     0.227 C 
HETATM   18  C   UNL     1      11.892  12.125 -25.105  1.00  0.00     0.227 C 
HETATM   19  C   UNL     1       7.151  12.001 -22.565  1.00  0.00     0.250 C 
HETATM   20  C   UNL     1      12.899  13.105 -24.465  1.00  0.00     0.250 C 
HETATM   21  C   UNL     1       9.946   8.476 -23.722  1.00  0.00     0.250 C 
HETATM   22  C   UNL     1      10.240  13.780 -22.647  1.00  0.00     0.283 C 
HETATM   23  C   UNL     1       7.162   9.675 -24.539  1.00  0.00     0.283 C 
HETATM   24  C   UNL     1      12.843  10.100 -24.152  1.00  0.00     0.283 C 
HETATM   25  C   UNL     1       5.788  12.667 -24.587  1.00  0.00     0.153 C 
HETATM   26  C   UNL     1      13.441  14.689 -22.669  1.00  0.00     0.153 C 
HETATM   27  C   UNL     1      11.450   7.573 -25.560  1.00  0.00     0.153 C 
ENDROOT
BRANCH  16  28
HETATM   28  C   UNL     1       7.264  14.322 -21.636  1.00  0.00     0.016 C 
HETATM   29  C   UNL     1       6.994  15.669 -22.304  1.00  0.00     0.012 C 
HETATM   30  C   UNL     1       8.182  14.498 -20.427  1.00  0.00     0.012 C 
ENDBRANCH  16  28
BRANCH  14  31
HETATM   31  C   UNL     1      11.822  13.196 -20.804  1.00  0.00     0.014 C 
HETATM   32  C   UNL     1      13.030  12.333 -20.433  1.00  0.00     0.012 C 
BRANCH  31  33
HETATM   33  C   UNL     1      12.067  14.651 -20.367  1.00  0.00     0.002 C 
HETATM   34  C   UNL     1      11.394  15.013 -19.051  1.00  0.00     0.005 C 
ENDBRANCH  31  33
ENDBRANCH  14  31
BRANCH  13  35
HETATM   35  C   UNL     1       4.686   9.949 -24.595  1.00  0.00     0.014 C 
HETATM   36  C   UNL     1       5.036   9.178 -25.870  1.00  0.00     0.012 C 
BRANCH  35  37
HETATM   37  C   UNL     1       3.667   9.148 -23.766  1.00  0.00     0.002 C 
HETATM   38  C   UNL     1       3.612   7.671 -24.131  1.00  0.00     0.005 C 
ENDBRANCH  35  37
ENDBRANCH  13  35
BRANCH  18  39
HETATM   39  C   UNL     1      12.163  11.940 -26.599  1.00  0.00     0.016 C 
HETATM   40  C   UNL     1      11.387  10.743 -27.142  1.00  0.00     0.012 C 
HETATM   41  C   UNL     1      11.803  13.209 -27.371  1.00  0.00     0.012 C 
ENDBRANCH  18  39
BRANCH  17  42
HETATM   42  C   UNL     1       8.614   6.389 -24.100  1.00  0.00     0.016 C 
HETATM   43  C   UNL     1       9.127   5.534 -25.258  1.00  0.00     0.012 C 
HETATM   44  C   UNL     1       7.169   6.022 -23.764  1.00  0.00     0.012 C 
ENDBRANCH  17  42
BRANCH  15  45
HETATM   45  C   UNL     1      13.571   7.760 -23.539  1.00  0.00     0.014 C 
HETATM   46  C   UNL     1      13.999   7.498 -22.091  1.00  0.00     0.012 C 
BRANCH  45  47
HETATM   47  C   UNL     1      13.225   6.425 -24.226  1.00  0.00     0.002 C 
HETATM   48  C   UNL     1      13.375   5.217 -23.313  1.00  0.00     0.005 C 
ENDBRANCH  45  47
ENDBRANCH  15  45
TORSDOF 9
ENDMDL
MODEL 7
REMARK VINA RESULT:    -4.112      4.777      9.650
REMARK INTER + INTRA:          -4.346
REMARK INTER:                  -7.003
REMARK INTRA:                   2.657
REMARK UNBOUND:                 1.929
REMARK  9 active torsions:
REMARK  status: ('A' for Active; 'I' for Inactive)
REMARK    1  A    between atoms: C_13  and  C_16 
REMARK    2  A    between atoms: C_14  and  C_17 
REMARK    3  A    between atoms: C_15  and  C_18 
REMARK    4  A    between atoms: C_16  and  C_22 
REMARK    5  A    between atoms: C_17  and  C_23 
REMARK    6  A    between atoms: C_18  and  C_24 
REMARK    7  A    between atoms: C_19  and  C_25 
REMARK    8  A    between atoms: C_20  and  C_26 
REMARK    9  A    between atoms: C_21  and  C_27 
ROOT
HETATM    1  O   UNL     1       6.903   8.041 -24.393  1.00  0.00    -0.304 OA
HETATM    2  O   UNL     1      11.050   5.502 -22.936  1.00  0.00    -0.304 OA
HETATM    3  O   UNL     1      10.474   9.898 -24.886  1.00  0.00    -0.304 OA
HETATM    4  O   UNL     1       7.564   6.093 -22.815  1.00  0.00    -0.270 OA
HETATM    5  O   UNL     1       9.222  12.313 -27.005  1.00  0.00    -0.270 OA
HETATM    6  O   UNL     1      10.266   7.954 -22.376  1.00  0.00    -0.270 OA
HETATM    7  O   UNL     1       6.241   9.103 -26.330  1.00  0.00    -0.263 OA
HETATM    8  O   UNL     1      10.743   5.710 -25.215  1.00  0.00    -0.263 OA
HETATM    9  O   UNL     1      10.953  12.101 -24.422  1.00  0.00    -0.263 OA
HETATM   10  N   UNL     1       8.155   4.786 -24.639  1.00  0.00    -0.340 N 
HETATM   11  N   UNL     1       7.698  11.343 -25.550  1.00  0.00    -0.340 N 
HETATM   12  N   UNL     1      12.205   9.016 -23.081  1.00  0.00    -0.340 N 
HETATM   13  C   UNL     1       9.312   4.231 -23.909  1.00  0.00     0.190 C 
HETATM   14  C   UNL     1       7.348  10.332 -24.531  1.00  0.00     0.190 C 
HETATM   15  C   UNL     1      11.623  10.360 -22.860  1.00  0.00     0.190 C 
HETATM   16  C   UNL     1       6.602   6.726 -24.908  1.00  0.00     0.227 C 
HETATM   17  C   UNL     1      12.085   6.506 -22.947  1.00  0.00     0.227 C 
HETATM   18  C   UNL     1       9.847  10.154 -26.147  1.00  0.00     0.227 C 
HETATM   19  C   UNL     1       7.455   5.831 -24.019  1.00  0.00     0.250 C 
HETATM   20  C   UNL     1       8.908  11.375 -26.262  1.00  0.00     0.250 C 
HETATM   21  C   UNL     1      11.433   7.883 -22.779  1.00  0.00     0.250 C 
HETATM   22  C   UNL     1       6.754   9.114 -25.220  1.00  0.00     0.283 C 
HETATM   23  C   UNL     1      10.443   5.228 -24.130  1.00  0.00     0.283 C 
HETATM   24  C   UNL     1      11.024  10.908 -24.155  1.00  0.00     0.283 C 
HETATM   25  C   UNL     1       7.890   4.326 -26.004  1.00  0.00     0.153 C 
HETATM   26  C   UNL     1       6.711  12.384 -25.838  1.00  0.00     0.153 C 
HETATM   27  C   UNL     1      13.542   8.974 -23.681  1.00  0.00     0.153 C 
ENDROOT
BRANCH  16  28
HETATM   28  C   UNL     1       5.127   6.416 -24.727  1.00  0.00     0.016 C 
HETATM   29  C   UNL     1       4.412   7.577 -24.039  1.00  0.00     0.012 C 
HETATM   30  C   UNL     1       4.941   5.125 -23.931  1.00  0.00     0.012 C 
ENDBRANCH  16  28
BRANCH  14  31
HETATM   31  C   UNL     1       6.408  10.822 -23.431  1.00  0.00     0.014 C 
HETATM   32  C   UNL     1       4.969  10.423 -23.765  1.00  0.00     0.012 C 
BRANCH  31  33
HETATM   33  C   UNL     1       6.793  10.274 -22.045  1.00  0.00     0.002 C 
HETATM   34  C   UNL     1       8.162  10.736 -21.567  1.00  0.00     0.005 C 
ENDBRANCH  31  33
ENDBRANCH  14  31
BRANCH  13  35
HETATM   35  C   UNL     1       9.768   2.836 -24.315  1.00  0.00     0.014 C 
HETATM   36  C   UNL     1      11.283   2.713 -24.134  1.00  0.00     0.012 C 
BRANCH  35  37
HETATM   37  C   UNL     1       9.057   1.730 -23.517  1.00  0.00     0.002 C 
HETATM   38  C   UNL     1       8.686   2.145 -22.099  1.00  0.00     0.005 C 
ENDBRANCH  35  37
ENDBRANCH  13  35
BRANCH  18  39
HETATM   39  C   UNL     1      10.948  10.194 -27.209  1.00  0.00     0.016 C 
HETATM   40  C   UNL     1      11.891  11.369 -26.961  1.00  0.00     0.012 C 
HETATM   41  C   UNL     1      11.723   8.877 -27.226  1.00  0.00     0.012 C 
ENDBRANCH  18  39
BRANCH  17  42
HETATM   42  C   UNL     1      13.003   6.213 -21.768  1.00  0.00     0.016 C 
HETATM   43  C   UNL     1      13.998   5.108 -22.120  1.00  0.00     0.012 C 
HETATM   44  C   UNL     1      12.190   5.827 -20.533  1.00  0.00     0.012 C 
ENDBRANCH  17  42
BRANCH  15  45
HETATM   45  C   UNL     1      12.603  11.350 -22.234  1.00  0.00     0.014 C 
HETATM   46  C   UNL     1      12.983  12.428 -23.256  1.00  0.00     0.012 C 
BRANCH  45  47
HETATM   47  C   UNL     1      12.042  12.017 -20.963  1.00  0.00     0.002 C 
HETATM   48  C   UNL     1      11.254  13.287 -21.243  1.00  0.00     0.005 C 
ENDBRANCH  45  47
ENDBRANCH  15  45
TORSDOF 9
ENDMDL
MODEL 8
REMARK VINA RESULT:    -4.090      2.857      7.876
REMARK INTER + INTRA:          -4.313
REMARK INTER:                  -6.937
REMARK INTRA:                   2.624
REMARK UNBOUND:                 1.929
REMARK  9 active torsions:
REMARK  status: ('A' for Active; 'I' for Inactive)
REMARK    1  A    between atoms: C_13  and  C_16 
REMARK    2  A    between atoms: C_14  and  C_17 
REMARK    3  A    between atoms: C_15  and  C_18 
REMARK    4  A    between atoms: C_16  and  C_22 
REMARK    5  A    between atoms: C_17  and  C_23 
REMARK    6  A    between atoms: C_18  and  C_24 
REMARK    7  A    between atoms: C_19  and  C_25 
REMARK    8  A    between atoms: C_20  and  C_26 
REMARK    9  A    between atoms: C_21  and  C_27 
ROOT
HETATM    1  O   UNL     1      11.135   6.112 -23.772  1.00  0.00    -0.304 OA
HETATM    2  O   UNL     1       6.080   5.983 -24.215  1.00  0.00    -0.304 OA
HETATM    3  O   UNL     1       9.458   2.557 -24.769  1.00  0.00    -0.304 OA
HETATM    4  O   UNL     1       9.056   7.443 -22.979  1.00  0.00    -0.270 OA
HETATM    5  O   UNL     1      12.433   1.140 -25.783  1.00  0.00    -0.270 OA
HETATM    6  O   UNL     1       7.715   4.419 -22.866  1.00  0.00    -0.270 OA
HETATM    7  O   UNL     1      12.903   5.496 -25.120  1.00  0.00    -0.263 OA
HETATM    8  O   UNL     1       7.269   5.860 -26.190  1.00  0.00    -0.263 OA
HETATM    9  O   UNL     1      10.016   0.490 -23.926  1.00  0.00    -0.263 OA
HETATM   10  N   UNL     1       8.615   8.099 -25.161  1.00  0.00    -0.340 N 
HETATM   11  N   UNL     1      12.599   2.871 -24.248  1.00  0.00    -0.340 N 
HETATM   12  N   UNL     1       6.994   2.421 -23.800  1.00  0.00    -0.340 N 
HETATM   13  C   UNL     1       7.161   7.952 -24.946  1.00  0.00     0.190 C 
HETATM   14  C   UNL     1      11.987   3.958 -23.456  1.00  0.00     0.190 C 
HETATM   15  C   UNL     1       8.040   1.643 -23.097  1.00  0.00     0.190 C 
HETATM   16  C   UNL     1      10.902   7.341 -24.492  1.00  0.00     0.227 C 
HETATM   17  C   UNL     1       5.778   4.574 -24.266  1.00  0.00     0.227 C 
HETATM   18  C   UNL     1      10.543   2.626 -25.699  1.00  0.00     0.227 C 
HETATM   19  C   UNL     1       9.457   7.656 -24.130  1.00  0.00     0.250 C 
HETATM   20  C   UNL     1      11.933   2.132 -25.239  1.00  0.00     0.250 C 
HETATM   21  C   UNL     1       6.917   3.805 -23.585  1.00  0.00     0.250 C 
HETATM   22  C   UNL     1      12.097   5.261 -24.232  1.00  0.00     0.283 C 
HETATM   23  C   UNL     1       6.859   6.485 -25.220  1.00  0.00     0.283 C 
HETATM   24  C   UNL     1       9.264   1.453 -23.995  1.00  0.00     0.283 C 
HETATM   25  C   UNL     1       9.097   8.554 -26.466  1.00  0.00     0.153 C 
HETATM   26  C   UNL     1      13.999   2.542 -23.980  1.00  0.00     0.153 C 
HETATM   27  C   UNL     1       6.149   1.678 -24.741  1.00  0.00     0.153 C 
ENDROOT
BRANCH  16  28
HETATM   28  C   UNL     1      11.832   8.430 -23.989  1.00  0.00     0.016 C 
HETATM   29  C   UNL     1      13.016   8.609 -24.938  1.00  0.00     0.012 C 
HETATM   30  C   UNL     1      12.321   8.111 -22.577  1.00  0.00     0.012 C 
ENDBRANCH  16  28
BRANCH  14  31
HETATM   31  C   UNL     1      12.560   4.135 -22.051  1.00  0.00     0.014 C 
HETATM   32  C   UNL     1      13.709   5.145 -22.084  1.00  0.00     0.012 C 
BRANCH  31  33
HETATM   33  C   UNL     1      11.495   4.589 -21.038  1.00  0.00     0.002 C 
HETATM   34  C   UNL     1      11.997   5.637 -20.055  1.00  0.00     0.005 C 
ENDBRANCH  31  33
ENDBRANCH  14  31
BRANCH  13  35
HETATM   35  C   UNL     1       6.256   8.833 -25.796  1.00  0.00     0.014 C 
HETATM   36  C   UNL     1       5.427   7.961 -26.744  1.00  0.00     0.012 C 
BRANCH  35  37
HETATM   37  C   UNL     1       5.322   9.711 -24.946  1.00  0.00     0.002 C 
HETATM   38  C   UNL     1       5.737   9.802 -23.483  1.00  0.00     0.005 C 
ENDBRANCH  35  37
ENDBRANCH  13  35
BRANCH  18  39
HETATM   39  C   UNL     1      10.096   1.923 -26.982  1.00  0.00     0.016 C 
HETATM   40  C   UNL     1      10.172   0.407 -26.818  1.00  0.00     0.012 C 
HETATM   41  C   UNL     1       8.681   2.353 -27.363  1.00  0.00     0.012 C 
ENDBRANCH  18  39
BRANCH  17  42
HETATM   42  C   UNL     1       4.477   4.369 -23.502  1.00  0.00     0.016 C 
HETATM   43  C   UNL     1       3.634   5.643 -23.520  1.00  0.00     0.012 C 
HETATM   44  C   UNL     1       4.757   3.933 -22.065  1.00  0.00     0.012 C 
ENDBRANCH  17  42
BRANCH  15  45
HETATM   45  C   UNL     1       7.539   0.309 -22.546  1.00  0.00     0.014 C 
HETATM   46  C   UNL     1       8.585  -0.785 -22.788  1.00  0.00     0.012 C 
BRANCH  45  47
HETATM   47  C   UNL     1       7.201   0.379 -21.044  1.00  0.00     0.002 C 
HETATM   48  C   UNL     1       7.605   1.693 -20.393  1.00  0.00     0.005 C 
ENDBRANCH  45  47
ENDBRANCH  15  45
TORSDOF 9
ENDMDL
MODEL 9
REMARK VINA RESULT:    -3.736      3.975      8.705
REMARK INTER + INTRA:          -3.773
REMARK INTER:                  -5.849
REMARK INTRA:                   2.076
REMARK UNBOUND:                 1.929
REMARK  9 active torsions:
REMARK  status: ('A' for Active; 'I' for Inactive)
REMARK    1  A    between atoms: C_13  and  C_16 
REMARK    2  A    between atoms: C_14  and  C_17 
REMARK    3  A    between atoms: C_15  and  C_18 
REMARK    4  A    between atoms: C_16  and  C_22 
REMARK    5  A    between atoms: C_17  and  C_23 
REMARK    6  A    between atoms: C_18  and  C_24 
REMARK    7  A    between atoms: C_19  and  C_25 
REMARK    8  A    between atoms: C_20  and  C_26 
REMARK    9  A    between atoms: C_21  and  C_27 
ROOT
HETATM    1  O   UNL     1       9.726   8.624 -24.718  1.00  0.00    -0.304 OA
HETATM    2  O   UNL     1       6.677   4.960 -22.975  1.00  0.00    -0.304 OA
HETATM    3  O   UNL     1      11.039   4.804 -25.072  1.00  0.00    -0.304 OA
HETATM    4  O   UNL     1       7.760   8.326 -23.055  1.00  0.00    -0.270 OA
HETATM    5  O   UNL     1      13.532   5.592 -27.321  1.00  0.00    -0.270 OA
HETATM    6  O   UNL     1       9.233   5.411 -22.525  1.00  0.00    -0.270 OA
HETATM    7  O   UNL     1      10.803   9.032 -26.716  1.00  0.00    -0.263 OA
HETATM    8  O   UNL     1       6.847   5.123 -25.271  1.00  0.00    -0.263 OA
HETATM    9  O   UNL     1      13.166   4.037 -24.644  1.00  0.00    -0.263 OA
HETATM   10  N   UNL     1       6.320   7.842 -24.808  1.00  0.00    -0.340 N 
HETATM   11  N   UNL     1      12.840   7.309 -25.923  1.00  0.00    -0.340 N 
HETATM   12  N   UNL     1       9.984   3.307 -23.155  1.00  0.00    -0.340 N 
HETATM   13  C   UNL     1       5.632   6.813 -24.003  1.00  0.00     0.190 C 
HETATM   14  C   UNL     1      11.925   7.849 -24.895  1.00  0.00     0.190 C 
HETATM   15  C   UNL     1      11.404   3.700 -23.002  1.00  0.00     0.190 C 
HETATM   16  C   UNL     1       8.450   9.086 -25.212  1.00  0.00     0.227 C 
HETATM   17  C   UNL     1       7.522   3.792 -22.958  1.00  0.00     0.227 C 
HETATM   18  C   UNL     1      11.338   5.325 -26.371  1.00  0.00     0.227 C 
HETATM   19  C   UNL     1       7.474   8.414 -24.255  1.00  0.00     0.250 C 
HETATM   20  C   UNL     1      12.674   6.073 -26.570  1.00  0.00     0.250 C 
HETATM   21  C   UNL     1       8.983   4.247 -22.863  1.00  0.00     0.250 C 
HETATM   22  C   UNL     1      10.780   8.578 -25.582  1.00  0.00     0.283 C 
HETATM   23  C   UNL     1       6.449   5.541 -24.191  1.00  0.00     0.283 C 
HETATM   24  C   UNL     1      11.985   4.151 -24.342  1.00  0.00     0.283 C 
HETATM   25  C   UNL     1       5.855   8.104 -26.172  1.00  0.00     0.153 C 
HETATM   26  C   UNL     1      13.999   8.121 -26.291  1.00  0.00     0.153 C 
HETATM   27  C   UNL     1       9.732   1.962 -23.682  1.00  0.00     0.153 C 
ENDROOT
BRANCH  16  28
HETATM   28  C   UNL     1       8.359  10.597 -25.101  1.00  0.00     0.016 C 
HETATM   29  C   UNL     1       7.196  11.001 -24.197  1.00  0.00     0.012 C 
HETATM   30  C   UNL     1       8.208  11.230 -26.483  1.00  0.00     0.012 C 
ENDBRANCH  16  28
BRANCH  14  31
HETATM   31  C   UNL     1      12.581   8.761 -23.861  1.00  0.00     0.014 C 
HETATM   32  C   UNL     1      11.960  10.158 -23.936  1.00  0.00     0.012 C 
BRANCH  31  33
HETATM   33  C   UNL     1      12.453   8.209 -22.430  1.00  0.00     0.002 C 
HETATM   34  C   UNL     1      13.186   6.892 -22.217  1.00  0.00     0.005 C 
ENDBRANCH  31  33
ENDBRANCH  14  31
BRANCH  13  35
HETATM   35  C   UNL     1       4.173   6.543 -24.345  1.00  0.00     0.014 C 
HETATM   36  C   UNL     1       3.712   5.250 -23.668  1.00  0.00     0.012 C 
BRANCH  35  37
HETATM   37  C   UNL     1       3.249   7.703 -23.937  1.00  0.00     0.002 C 
HETATM   38  C   UNL     1       2.676   8.471 -25.120  1.00  0.00     0.005 C 
ENDBRANCH  35  37
ENDBRANCH  13  35
BRANCH  18  39
HETATM   39  C   UNL     1      11.183   4.181 -27.374  1.00  0.00     0.016 C 
HETATM   40  C   UNL     1      12.170   3.058 -27.063  1.00  0.00     0.012 C 
HETATM   41  C   UNL     1       9.750   3.652 -27.368  1.00  0.00     0.012 C 
ENDBRANCH  18  39
BRANCH  17  42
HETATM   42  C   UNL     1       7.143   2.984 -21.725  1.00  0.00     0.016 C 
HETATM   43  C   UNL     1       7.005   1.502 -22.072  1.00  0.00     0.012 C 
HETATM   44  C   UNL     1       5.848   3.512 -21.110  1.00  0.00     0.012 C 
ENDBRANCH  17  42
BRANCH  15  45
HETATM   45  C   UNL     1      12.266   2.619 -22.352  1.00  0.00     0.014 C 
HETATM   46  C   UNL     1      11.940   2.516 -20.858  1.00  0.00     0.012 C 
BRANCH  45  47
HETATM   47  C   UNL     1      12.087   1.241 -23.018  1.00  0.00     0.002 C 
HETATM   48  C   UNL     1      13.348   0.726 -23.695  1.00  0.00     0.005 C 
ENDBRANCH  45  47
ENDBRANCH  15  45
TORSDOF 9
ENDMDL
MODEL 10
REMARK VINA RESULT:    -3.590      4.632      7.569
REMARK INTER + INTRA:          -3.549
REMARK INTER:                  -5.082
REMARK INTRA:                   1.533
REMARK UNBOUND:                 1.929
REMARK  9 active torsions:
REMARK  status: ('A' for Active; 'I' for Inactive)
REMARK    1  A    between atoms: C_13  and  C_16 
REMARK    2  A    between atoms: C_14  and  C_17 
REMARK    3  A    between atoms: C_15  and  C_18 
REMARK    4  A    between atoms: C_16  and  C_22 
REMARK    5  A    between atoms: C_17  and  C_23 
REMARK    6  A    between atoms: C_18  and  C_24 
REMARK    7  A    between atoms: C_19  and  C_25 
REMARK    8  A    between atoms: C_20  and  C_26 
REMARK    9  A    between atoms: C_21  and  C_27 
ROOT
HETATM    1  O   UNL     1      11.496   6.953 -25.038  1.00  0.00    -0.304 OA
HETATM    2  O   UNL     1       6.467   6.268 -24.917  1.00  0.00    -0.304 OA
HETATM    3  O   UNL     1       9.258   9.964 -23.498  1.00  0.00    -0.304 OA
HETATM    4  O   UNL     1       9.676   5.522 -26.206  1.00  0.00    -0.270 OA
HETATM    5  O   UNL     1      11.941  11.562 -22.037  1.00  0.00    -0.270 OA
HETATM    6  O   UNL     1       7.893   8.285 -25.831  1.00  0.00    -0.270 OA
HETATM    7  O   UNL     1      13.097   7.536 -23.483  1.00  0.00    -0.263 OA
HETATM    8  O   UNL     1       7.549   6.167 -22.879  1.00  0.00    -0.263 OA
HETATM    9  O   UNL     1       9.524  12.215 -23.894  1.00  0.00    -0.263 OA
HETATM   10  N   UNL     1       9.260   4.391 -24.223  1.00  0.00    -0.340 N 
HETATM   11  N   UNL     1      12.427  10.211 -23.858  1.00  0.00    -0.340 N 
HETATM   12  N   UNL     1       6.840   9.935 -24.585  1.00  0.00    -0.340 N 
HETATM   13  C   UNL     1       7.810   4.368 -24.503  1.00  0.00     0.190 C 
HETATM   14  C   UNL     1      12.019   9.226 -24.882  1.00  0.00     0.190 C 
HETATM   15  C   UNL     1       7.780  10.978 -25.056  1.00  0.00     0.190 C 
HETATM   16  C   UNL     1      11.427   5.585 -24.581  1.00  0.00     0.227 C 
HETATM   17  C   UNL     1       5.952   7.581 -24.619  1.00  0.00     0.227 C 
HETATM   18  C   UNL     1      10.305   9.868 -22.528  1.00  0.00     0.227 C 
HETATM   19  C   UNL     1      10.061   5.145 -25.093  1.00  0.00     0.250 C 
HETATM   20  C   UNL     1      11.619  10.636 -22.791  1.00  0.00     0.250 C 
HETATM   21  C   UNL     1       6.984   8.624 -25.064  1.00  0.00     0.250 C 
HETATM   22  C   UNL     1      12.298   7.824 -24.362  1.00  0.00     0.283 C 
HETATM   23  C   UNL     1       7.276   5.694 -23.975  1.00  0.00     0.283 C 
HETATM   24  C   UNL     1       8.926  11.159 -24.060  1.00  0.00     0.283 C 
HETATM   25  C   UNL     1       9.757   3.761 -22.999  1.00  0.00     0.153 C 
HETATM   26  C   UNL     1      13.770  10.783 -23.966  1.00  0.00     0.153 C 
HETATM   27  C   UNL     1       5.857  10.349 -23.579  1.00  0.00     0.153 C 
ENDROOT
BRANCH  16  28
HETATM   28  C   UNL     1      12.531   4.761 -25.220  1.00  0.00     0.016 C 
HETATM   29  C   UNL     1      11.942   3.653 -26.090  1.00  0.00     0.012 C 
HETATM   30  C   UNL     1      13.450   4.172 -24.151  1.00  0.00     0.012 C 
ENDBRANCH  16  28
BRANCH  14  31
HETATM   31  C   UNL     1      12.665   9.414 -26.253  1.00  0.00     0.014 C 
HETATM   32  C   UNL     1      13.588   8.232 -26.557  1.00  0.00     0.012 C 
BRANCH  31  33
HETATM   33  C   UNL     1      11.622   9.564 -27.375  1.00  0.00     0.002 C 
HETATM   34  C   UNL     1      10.791  10.834 -27.269  1.00  0.00     0.005 C 
ENDBRANCH  31  33
ENDBRANCH  14  31
BRANCH  13  35
HETATM   35  C   UNL     1       7.019   3.217 -23.897  1.00  0.00     0.014 C 
HETATM   36  C   UNL     1       5.536   3.591 -23.819  1.00  0.00     0.012 C 
BRANCH  35  37
HETATM   37  C   UNL     1       7.184   1.908 -24.690  1.00  0.00     0.002 C 
HETATM   38  C   UNL     1       7.550   0.712 -23.821  1.00  0.00     0.005 C 
ENDBRANCH  35  37
ENDBRANCH  13  35
BRANCH  18  39
HETATM   39  C   UNL     1       9.708  10.231 -21.167  1.00  0.00     0.016 C 
HETATM   40  C   UNL     1       8.189  10.078 -21.190  1.00  0.00     0.012 C 
HETATM   41  C   UNL     1      10.319   9.367 -20.066  1.00  0.00     0.012 C 
ENDBRANCH  18  39
BRANCH  17  42
HETATM   42  C   UNL     1       4.664   7.745 -25.414  1.00  0.00     0.016 C 
HETATM   43  C   UNL     1       4.837   8.796 -26.511  1.00  0.00     0.012 C 
HETATM   44  C   UNL     1       3.504   8.120 -24.493  1.00  0.00     0.012 C 
ENDBRANCH  17  42
BRANCH  15  45
HETATM   45  C   UNL     1       7.101  12.308 -25.376  1.00  0.00     0.014 C 
HETATM   46  C   UNL     1       6.479  12.256 -26.776  1.00  0.00     0.012 C 
BRANCH  45  47
HETATM   47  C   UNL     1       6.022  12.686 -24.343  1.00  0.00     0.002 C 
HETATM   48  C   UNL     1       6.517  13.646 -23.272  1.00  0.00     0.005 C 
ENDBRANCH  45  47
ENDBRANCH  15  45
TORSDOF 9
ENDMDL
MODEL 11
REMARK VINA RESULT:    -3.583      3.541      8.385
REMARK INTER + INTRA:          -3.539
REMARK INTER:                  -6.159
REMARK INTRA:                   2.620
REMARK UNBOUND:                 1.929
REMARK  9 active torsions:
REMARK  status: ('A' for Active; 'I' for Inactive)
REMARK    1  A    between atoms: C_13  and  C_16 
REMARK    2  A    between atoms: C_14  and  C_17 
REMARK    3  A    between atoms: C_15  and  C_18 
REMARK    4  A    between atoms: C_16  and  C_22 
REMARK    5  A    between atoms: C_17  and  C_23 
REMARK    6  A    between atoms: C_18  and  C_24 
REMARK    7  A    between atoms: C_19  and  C_25 
REMARK    8  A    between atoms: C_20  and  C_26 
REMARK    9  A    between atoms: C_21  and  C_27 
ROOT
HETATM    1  O   UNL     1      11.988   6.382 -23.838  1.00  0.00    -0.304 OA
HETATM    2  O   UNL     1       7.085   7.525 -24.490  1.00  0.00    -0.304 OA
HETATM    3  O   UNL     1       9.479   3.320 -24.715  1.00  0.00    -0.304 OA
HETATM    4  O   UNL     1      10.302   8.248 -23.207  1.00  0.00    -0.270 OA
HETATM    5  O   UNL     1      12.014   1.128 -25.524  1.00  0.00    -0.270 OA
HETATM    6  O   UNL     1       8.223   5.681 -22.991  1.00  0.00    -0.270 OA
HETATM    7  O   UNL     1      13.574   5.251 -25.073  1.00  0.00    -0.263 OA
HETATM    8  O   UNL     1       8.257   6.978 -26.403  1.00  0.00    -0.263 OA
HETATM    9  O   UNL     1       9.460   1.236 -23.740  1.00  0.00    -0.263 OA
HETATM   10  N   UNL     1      10.106   8.857 -25.437  1.00  0.00    -0.340 N 
HETATM   11  N   UNL     1      12.578   2.851 -24.077  1.00  0.00    -0.340 N 
HETATM   12  N   UNL     1       7.036   3.880 -23.847  1.00  0.00    -0.340 N 
HETATM   13  C   UNL     1       8.659   9.102 -25.278  1.00  0.00     0.190 C 
HETATM   14  C   UNL     1      12.246   4.106 -23.371  1.00  0.00     0.190 C 
HETATM   15  C   UNL     1       7.827   2.906 -23.060  1.00  0.00     0.190 C 
HETATM   16  C   UNL     1      12.101   7.583 -24.632  1.00  0.00     0.227 C 
HETATM   17  C   UNL     1       6.432   6.240 -24.479  1.00  0.00     0.227 C 
HETATM   18  C   UNL     1      10.571   3.051 -25.600  1.00  0.00     0.227 C 
HETATM   19  C   UNL     1      10.776   8.279 -24.349  1.00  0.00     0.250 C 
HETATM   20  C   UNL     1      11.772   2.247 -25.055  1.00  0.00     0.250 C 
HETATM   21  C   UNL     1       7.314   5.249 -23.710  1.00  0.00     0.250 C 
HETATM   22  C   UNL     1      12.710   5.286 -24.209  1.00  0.00     0.283 C 
HETATM   23  C   UNL     1       7.996   7.747 -25.486  1.00  0.00     0.283 C 
HETATM   24  C   UNL     1       8.984   2.353 -23.892  1.00  0.00     0.283 C 
HETATM   25  C   UNL     1      10.726   9.091 -26.743  1.00  0.00     0.153 C 
HETATM   26  C   UNL     1      13.838   2.192 -23.731  1.00  0.00     0.153 C 
HETATM   27  C   UNL     1       6.056   3.321 -24.783  1.00  0.00     0.153 C 
ENDROOT
BRANCH  16  28
HETATM   28  C   UNL     1      13.266   8.426 -24.147  1.00  0.00     0.016 C 
HETATM   29  C   UNL     1      12.799   9.443 -23.108  1.00  0.00     0.012 C 
HETATM   30  C   UNL     1      13.944   9.132 -25.320  1.00  0.00     0.012 C 
ENDBRANCH  16  28
BRANCH  14  31
HETATM   31  C   UNL     1      12.806   4.218 -21.954  1.00  0.00     0.014 C 
HETATM   32  C   UNL     1      13.943   5.241 -21.926  1.00  0.00     0.012 C 
BRANCH  31  33
HETATM   33  C   UNL     1      11.727   4.607 -20.928  1.00  0.00     0.002 C 
HETATM   34  C   UNL     1      10.523   3.677 -20.927  1.00  0.00     0.005 C 
ENDBRANCH  31  33
ENDBRANCH  14  31
BRANCH  13  35
HETATM   35  C   UNL     1       8.036  10.130 -26.212  1.00  0.00     0.014 C 
HETATM   36  C   UNL     1       6.575   9.761 -26.489  1.00  0.00     0.012 C 
BRANCH  35  37
HETATM   37  C   UNL     1       8.113  11.560 -25.649  1.00  0.00     0.002 C 
HETATM   38  C   UNL     1       8.377  11.610 -24.150  1.00  0.00     0.005 C 
ENDBRANCH  35  37
ENDBRANCH  13  35
BRANCH  18  39
HETATM   39  C   UNL     1       9.993   2.407 -26.862  1.00  0.00     0.016 C 
HETATM   40  C   UNL     1       9.590   0.960 -26.590  1.00  0.00     0.012 C 
HETATM   41  C   UNL     1       8.799   3.210 -27.375  1.00  0.00     0.012 C 
ENDBRANCH  18  39
BRANCH  17  42
HETATM   42  C   UNL     1       5.101   6.422 -23.763  1.00  0.00     0.016 C 
HETATM   43  C   UNL     1       4.290   5.128 -23.792  1.00  0.00     0.012 C 
HETATM   44  C   UNL     1       4.304   7.567 -24.387  1.00  0.00     0.012 C 
ENDBRANCH  17  42
BRANCH  15  45
HETATM   45  C   UNL     1       6.983   1.782 -22.461  1.00  0.00     0.014 C 
HETATM   46  C   UNL     1       7.858   0.878 -21.586  1.00  0.00     0.012 C 
BRANCH  45  47
HETATM   47  C   UNL     1       5.796   2.311 -21.632  1.00  0.00     0.002 C 
HETATM   48  C   UNL     1       6.217   3.017 -20.352  1.00  0.00     0.005 C 
ENDBRANCH  45  47
ENDBRANCH  15  45
TORSDOF 9
ENDMDL
MODEL 12
REMARK VINA RESULT:    -3.450      2.310      7.403
REMARK INTER + INTRA:          -3.336
REMARK INTER:                  -6.816
REMARK INTRA:                   3.479
REMARK UNBOUND:                 1.929
REMARK  9 active torsions:
REMARK  status: ('A' for Active; 'I' for Inactive)
REMARK    1  A    between atoms: C_13  and  C_16 
REMARK    2  A    between atoms: C_14  and  C_17 
REMARK    3  A    between atoms: C_15  and  C_18 
REMARK    4  A    between atoms: C_16  and  C_22 
REMARK    5  A    between atoms: C_17  and  C_23 
REMARK    6  A    between atoms: C_18  and  C_24 
REMARK    7  A    between atoms: C_19  and  C_25 
REMARK    8  A    between atoms: C_20  and  C_26 
REMARK    9  A    between atoms: C_21  and  C_27 
ROOT
HETATM    1  O   UNL     1      12.159   3.188 -23.440  1.00  0.00    -0.304 OA
HETATM    2  O   UNL     1       7.281   4.586 -23.319  1.00  0.00    -0.304 OA
HETATM    3  O   UNL     1       9.443   0.541 -24.876  1.00  0.00    -0.304 OA
HETATM    4  O   UNL     1      10.620   4.854 -22.183  1.00  0.00    -0.270 OA
HETATM    5  O   UNL     1      11.797  -1.412 -26.467  1.00  0.00    -0.270 OA
HETATM    6  O   UNL     1       8.444   2.377 -22.477  1.00  0.00    -0.270 OA
HETATM    7  O   UNL     1      13.585   2.395 -25.070  1.00  0.00    -0.263 OA
HETATM    8  O   UNL     1       8.268   4.549 -25.405  1.00  0.00    -0.263 OA
HETATM    9  O   UNL     1       9.402  -1.728 -24.497  1.00  0.00    -0.263 OA
HETATM   10  N   UNL     1      10.277   6.049 -24.142  1.00  0.00    -0.340 N 
HETATM   11  N   UNL     1      12.557  -0.160 -24.668  1.00  0.00    -0.340 N 
HETATM   12  N   UNL     1       7.108   0.906 -23.675  1.00  0.00    -0.340 N 
HETATM   13  C   UNL     1       8.860   6.278 -23.793  1.00  0.00     0.190 C 
HETATM   14  C   UNL     1      12.343   0.864 -23.625  1.00  0.00     0.190 C 
HETATM   15  C   UNL     1       7.910  -0.265 -23.251  1.00  0.00     0.190 C 
HETATM   16  C   UNL     1      12.266   4.555 -23.890  1.00  0.00     0.227 C 
HETATM   17  C   UNL     1       6.569   3.363 -23.594  1.00  0.00     0.227 C 
HETATM   18  C   UNL     1      10.447   0.495 -25.895  1.00  0.00     0.227 C 
HETATM   19  C   UNL     1      11.003   5.182 -23.313  1.00  0.00     0.250 C 
HETATM   20  C   UNL     1      11.647  -0.456 -25.696  1.00  0.00     0.250 C 
HETATM   21  C   UNL     1       7.460   2.179 -23.201  1.00  0.00     0.250 C 
HETATM   22  C   UNL     1      12.796   2.216 -24.154  1.00  0.00     0.283 C 
HETATM   23  C   UNL     1       8.118   5.047 -24.297  1.00  0.00     0.283 C 
HETATM   24  C   UNL     1       8.970  -0.599 -24.302  1.00  0.00     0.283 C 
HETATM   25  C   UNL     1      10.801   6.613 -25.387  1.00  0.00     0.153 C 
HETATM   26  C   UNL     1      13.808  -0.919 -24.626  1.00  0.00     0.153 C 
HETATM   27  C   UNL     1       6.029   0.646 -24.634  1.00  0.00     0.153 C 
ENDROOT
BRANCH  16  28
HETATM   28  C   UNL     1      13.505   5.207 -23.303  1.00  0.00     0.016 C 
HETATM   29  C   UNL     1      13.430   5.232 -21.778  1.00  0.00     0.012 C 
HETATM   30  C   UNL     1      13.683   6.620 -23.854  1.00  0.00     0.012 C 
ENDBRANCH  16  28
BRANCH  14  31
HETATM   31  C   UNL     1      13.019   0.574 -22.286  1.00  0.00     0.014 C 
HETATM   32  C   UNL     1      12.235   1.244 -21.155  1.00  0.00     0.012 C 
BRANCH  31  33
HETATM   33  C   UNL     1      13.147  -0.934 -22.010  1.00  0.00     0.002 C 
HETATM   34  C   UNL     1      11.818  -1.676 -22.047  1.00  0.00     0.005 C 
ENDBRANCH  31  33
ENDBRANCH  14  31
BRANCH  13  35
HETATM   35  C   UNL     1       8.215   7.536 -24.358  1.00  0.00     0.014 C 
HETATM   36  C   UNL     1       6.693   7.444 -24.220  1.00  0.00     0.012 C 
BRANCH  35  37
HETATM   37  C   UNL     1       8.724   8.816 -23.674  1.00  0.00     0.002 C 
HETATM   38  C   UNL     1       9.112   9.916 -24.653  1.00  0.00     0.005 C 
ENDBRANCH  35  37
ENDBRANCH  13  35
BRANCH  18  39
HETATM   39  C   UNL     1       9.740   0.232 -27.226  1.00  0.00     0.016 C 
HETATM   40  C   UNL     1       9.386  -1.246 -27.363  1.00  0.00     0.012 C 
HETATM   41  C   UNL     1       8.488   1.098 -27.349  1.00  0.00     0.012 C 
ENDBRANCH  18  39
BRANCH  17  42
HETATM   42  C   UNL     1       5.310   3.377 -22.739  1.00  0.00     0.016 C 
HETATM   43  C   UNL     1       4.453   4.601 -23.060  1.00  0.00     0.012 C 
HETATM   44  C   UNL     1       5.666   3.349 -21.253  1.00  0.00     0.012 C 
ENDBRANCH  17  42
BRANCH  15  45
HETATM   45  C   UNL     1       7.063  -1.487 -22.902  1.00  0.00     0.014 C 
HETATM   46  C   UNL     1       6.625  -2.205 -24.183  1.00  0.00     0.012 C 
BRANCH  45  47
HETATM   47  C   UNL     1       7.804  -2.477 -21.981  1.00  0.00     0.002 C 
HETATM   48  C   UNL     1       7.551  -3.935 -22.331  1.00  0.00     0.005 C 
ENDBRANCH  45  47
ENDBRANCH  15  45
TORSDOF 9
ENDMDL
MODEL 13
REMARK VINA RESULT:    -3.307      3.904      8.757
REMARK INTER + INTRA:          -3.118
REMARK INTER:                  -6.808
REMARK INTRA:                   3.690
REMARK UNBOUND:                 1.929
REMARK  9 active torsions:
REMARK  status: ('A' for Active; 'I' for Inactive)
REMARK    1  A    between atoms: C_13  and  C_16 
REMARK    2  A    between atoms: C_14  and  C_17 
REMARK    3  A    between atoms: C_15  and  C_18 
REMARK    4  A    between atoms: C_16  and  C_22 
REMARK    5  A    between atoms: C_17  and  C_23 
REMARK    6  A    between atoms: C_18  and  C_24 
REMARK    7  A    between atoms: C_19  and  C_25 
REMARK    8  A    between atoms: C_20  and  C_26 
REMARK    9  A    between atoms: C_21  and  C_27 
ROOT
HETATM    1  O   UNL     1       9.761   8.714 -23.596  1.00  0.00    -0.304 OA
HETATM    2  O   UNL     1       5.417   6.110 -23.930  1.00  0.00    -0.304 OA
HETATM    3  O   UNL     1      10.008   4.860 -24.832  1.00  0.00    -0.304 OA
HETATM    4  O   UNL     1       7.348   8.785 -22.652  1.00  0.00    -0.270 OA
HETATM    5  O   UNL     1      13.228   5.174 -26.024  1.00  0.00    -0.270 OA
HETATM    6  O   UNL     1       7.689   5.494 -22.748  1.00  0.00    -0.270 OA
HETATM    7  O   UNL     1      11.518   9.139 -25.029  1.00  0.00    -0.263 OA
HETATM    8  O   UNL     1       6.391   6.709 -25.935  1.00  0.00    -0.263 OA
HETATM    9  O   UNL     1      11.565   3.301 -24.169  1.00  0.00    -0.263 OA
HETATM   10  N   UNL     1       6.511   9.258 -24.763  1.00  0.00    -0.340 N 
HETATM   11  N   UNL     1      12.607   6.666 -24.361  1.00  0.00    -0.340 N 
HETATM   12  N   UNL     1       7.997   3.459 -23.820  1.00  0.00    -0.340 N 
HETATM   13  C   UNL     1       5.336   8.395 -24.527  1.00  0.00     0.190 C 
HETATM   14  C   UNL     1      11.585   7.256 -23.471  1.00  0.00     0.190 C 
HETATM   15  C   UNL     1       9.331   3.267 -23.206  1.00  0.00     0.190 C 
HETATM   16  C   UNL     1       8.908   9.703 -24.211  1.00  0.00     0.227 C 
HETATM   17  C   UNL     1       5.850   4.744 -24.085  1.00  0.00     0.227 C 
HETATM   18  C   UNL     1      10.859   5.514 -25.778  1.00  0.00     0.227 C 
HETATM   19  C   UNL     1       7.521   9.235 -23.791  1.00  0.00     0.250 C 
HETATM   20  C   UNL     1      12.335   5.752 -25.392  1.00  0.00     0.250 C 
HETATM   21  C   UNL     1       7.258   4.607 -23.494  1.00  0.00     0.250 C 
HETATM   22  C   UNL     1      10.989   8.483 -24.143  1.00  0.00     0.283 C 
HETATM   23  C   UNL     1       5.784   6.990 -24.910  1.00  0.00     0.283 C 
HETATM   24  C   UNL     1      10.432   3.764 -24.144  1.00  0.00     0.283 C 
HETATM   25  C   UNL     1       6.626   9.967 -26.039  1.00  0.00     0.153 C 
HETATM   26  C   UNL     1      13.999   7.064 -24.152  1.00  0.00     0.153 C 
HETATM   27  C   UNL     1       7.577   2.450 -24.797  1.00  0.00     0.153 C 
ENDROOT
BRANCH  16  28
HETATM   28  C   UNL     1       9.205  11.079 -23.644  1.00  0.00     0.016 C 
HETATM   29  C   UNL     1       8.598  11.231 -22.251  1.00  0.00     0.012 C 
HETATM   30  C   UNL     1       8.683  12.171 -24.577  1.00  0.00     0.012 C 
ENDBRANCH  16  28
BRANCH  14  31
HETATM   31  C   UNL     1      12.078   7.614 -22.070  1.00  0.00     0.014 C 
HETATM   32  C   UNL     1      11.471   8.950 -21.634  1.00  0.00     0.012 C 
BRANCH  31  33
HETATM   33  C   UNL     1      11.742   6.526 -21.036  1.00  0.00     0.002 C 
HETATM   34  C   UNL     1      12.613   5.283 -21.155  1.00  0.00     0.005 C 
ENDBRANCH  31  33
ENDBRANCH  14  31
BRANCH  13  35
HETATM   35  C   UNL     1       4.065   8.755 -25.284  1.00  0.00     0.014 C 
HETATM   36  C   UNL     1       4.344   8.771 -26.789  1.00  0.00     0.012 C 
BRANCH  35  37
HETATM   37  C   UNL     1       2.906   7.788 -24.981  1.00  0.00     0.002 C 
HETATM   38  C   UNL     1       2.469   7.802 -23.522  1.00  0.00     0.005 C 
ENDBRANCH  35  37
ENDBRANCH  13  35
BRANCH  18  39
HETATM   39  C   UNL     1      10.743   4.757 -27.103  1.00  0.00     0.016 C 
HETATM   40  C   UNL     1      11.634   3.517 -27.092  1.00  0.00     0.012 C 
HETATM   41  C   UNL     1       9.290   4.371 -27.374  1.00  0.00     0.012 C 
ENDBRANCH  18  39
BRANCH  17  42
HETATM   42  C   UNL     1       4.869   3.875 -23.311  1.00  0.00     0.016 C 
HETATM   43  C   UNL     1       5.403   3.573 -21.911  1.00  0.00     0.012 C 
HETATM   44  C   UNL     1       4.586   2.576 -24.066  1.00  0.00     0.012 C 
ENDBRANCH  17  42
BRANCH  15  45
HETATM   45  C   UNL     1       9.589   1.832 -22.751  1.00  0.00     0.014 C 
HETATM   46  C   UNL     1      10.797   1.790 -21.809  1.00  0.00     0.012 C 
BRANCH  45  47
HETATM   47  C   UNL     1       8.367   1.204 -22.053  1.00  0.00     0.002 C 
HETATM   48  C   UNL     1       8.085   1.792 -20.680  1.00  0.00     0.005 C 
ENDBRANCH  45  47
ENDBRANCH  15  45
TORSDOF 9
ENDMDL
MODEL 14
REMARK VINA RESULT:    -3.295      2.091      8.080
REMARK INTER + INTRA:          -3.100
REMARK INTER:                  -6.246
REMARK INTRA:                   3.146
REMARK UNBOUND:                 1.929
REMARK  9 active torsions:
REMARK  status: ('A' for Active; 'I' for Inactive)
REMARK    1  A    between atoms: C_13  and  C_16 
REMARK    2  A    between atoms: C_14  and  C_17 
REMARK    3  A    between atoms: C_15  and  C_18 
REMARK    4  A    between atoms: C_16  and  C_22 
REMARK    5  A    between atoms: C_17  and  C_23 
REMARK    6  A    between atoms: C_18  and  C_24 
REMARK    7  A    between atoms: C_19  and  C_25 
REMARK    8  A    between atoms: C_20  and  C_26 
REMARK    9  A    between atoms: C_21  and  C_27 
ROOT
HETATM    1  O   UNL     1       7.673   0.474 -23.217  1.00  0.00    -0.304 OA
HETATM    2  O   UNL     1      12.243   2.615 -23.765  1.00  0.00    -0.304 OA
HETATM    3  O   UNL     1      10.785  -1.997 -24.027  1.00  0.00    -0.304 OA
HETATM    4  O   UNL     1       8.710   2.785 -23.772  1.00  0.00    -0.270 OA
HETATM    5  O   UNL     1       9.079  -4.861 -23.148  1.00  0.00    -0.270 OA
HETATM    6  O   UNL     1      10.961   0.909 -25.311  1.00  0.00    -0.270 OA
HETATM    7  O   UNL     1       6.824  -1.244 -21.935  1.00  0.00    -0.263 OA
HETATM    8  O   UNL     1      11.921   1.406 -21.825  1.00  0.00    -0.263 OA
HETATM    9  O   UNL     1      10.791  -3.758 -25.508  1.00  0.00    -0.263 OA
HETATM   10  N   UNL     1       9.576   2.938 -21.625  1.00  0.00    -0.340 N 
HETATM   11  N   UNL     1       7.776  -3.062 -23.815  1.00  0.00    -0.340 N 
HETATM   12  N   UNL     1      12.644  -0.687 -25.390  1.00  0.00    -0.340 N 
HETATM   13  C   UNL     1      10.817   3.556 -22.134  1.00  0.00     0.190 C 
HETATM   14  C   UNL     1       7.634  -1.644 -24.206  1.00  0.00     0.190 C 
HETATM   15  C   UNL     1      11.793  -1.635 -26.146  1.00  0.00     0.190 C 
HETATM   16  C   UNL     1       7.656   1.415 -22.122  1.00  0.00     0.227 C 
HETATM   17  C   UNL     1      13.047   1.561 -24.332  1.00  0.00     0.227 C 
HETATM   18  C   UNL     1      10.131  -2.705 -22.970  1.00  0.00     0.227 C 
HETATM   19  C   UNL     1       8.668   2.457 -22.580  1.00  0.00     0.250 C 
HETATM   20  C   UNL     1       8.960  -3.644 -23.333  1.00  0.00     0.250 C 
HETATM   21  C   UNL     1      12.121   0.570 -25.049  1.00  0.00     0.250 C 
HETATM   22  C   UNL     1       7.312  -0.818 -22.971  1.00  0.00     0.283 C 
HETATM   23  C   UNL     1      11.718   2.392 -22.523  1.00  0.00     0.283 C 
HETATM   24  C   UNL     1      11.106  -2.616 -25.197  1.00  0.00     0.283 C 
HETATM   25  C   UNL     1       9.426   2.731 -20.183  1.00  0.00     0.153 C 
HETATM   26  C   UNL     1       6.597  -3.920 -23.939  1.00  0.00     0.153 C 
HETATM   27  C   UNL     1      13.966  -1.174 -24.987  1.00  0.00     0.153 C 
ENDROOT
BRANCH  16  28
HETATM   28  C   UNL     1       6.277   2.031 -21.979  1.00  0.00     0.016 C 
HETATM   29  C   UNL     1       6.253   3.442 -22.565  1.00  0.00     0.012 C 
HETATM   30  C   UNL     1       5.846   2.054 -20.514  1.00  0.00     0.012 C 
ENDBRANCH  16  28
BRANCH  14  31
HETATM   31  C   UNL     1       6.602  -1.375 -25.299  1.00  0.00     0.014 C 
HETATM   32  C   UNL     1       6.585   0.117 -25.639  1.00  0.00     0.012 C 
BRANCH  31  33
HETATM   33  C   UNL     1       6.870  -2.197 -26.572  1.00  0.00     0.002 C 
HETATM   34  C   UNL     1       8.173  -1.832 -27.270  1.00  0.00     0.005 C 
ENDBRANCH  31  33
ENDBRANCH  14  31
BRANCH  13  35
HETATM   35  C   UNL     1      11.556   4.484 -21.179  1.00  0.00     0.014 C 
HETATM   36  C   UNL     1      12.925   3.890 -20.836  1.00  0.00     0.012 C 
BRANCH  35  37
HETATM   37  C   UNL     1      11.732   5.900 -21.753  1.00  0.00     0.002 C 
HETATM   38  C   UNL     1      13.146   6.446 -21.604  1.00  0.00     0.005 C 
ENDBRANCH  35  37
ENDBRANCH  13  35
BRANCH  18  39
HETATM   39  C   UNL     1      11.209  -3.440 -22.172  1.00  0.00     0.016 C 
HETATM   40  C   UNL     1      12.480  -2.599 -22.086  1.00  0.00     0.012 C 
HETATM   41  C   UNL     1      10.699  -3.788 -20.774  1.00  0.00     0.012 C 
ENDBRANCH  18  39
BRANCH  17  42
HETATM   42  C   UNL     1      13.994   2.210 -25.331  1.00  0.00     0.016 C 
HETATM   43  C   UNL     1      14.000   3.729 -25.162  1.00  0.00     0.012 C 
HETATM   44  C   UNL     1      13.611   1.833 -26.762  1.00  0.00     0.012 C 
ENDBRANCH  17  42
BRANCH  15  45
HETATM   45  C   UNL     1      12.541  -2.365 -27.261  1.00  0.00     0.014 C 
HETATM   46  C   UNL     1      13.970  -1.824 -27.375  1.00  0.00     0.012 C 
BRANCH  45  47
HETATM   47  C   UNL     1      12.581  -3.890 -27.046  1.00  0.00     0.002 C 
HETATM   48  C   UNL     1      13.965  -4.418 -26.702  1.00  0.00     0.005 C 
ENDBRANCH  45  47
ENDBRANCH  15  45
TORSDOF 9
ENDMDL
