MODEL 1
REMARK VINA RESULT:    -7.904      0.000      0.000
REMARK INTER + INTRA:          -9.997
REMARK INTER:                 -11.880
REMARK INTRA:                   1.883
REMARK UNBOUND:                -0.013
REMARK  5 active torsions:
REMARK  status: ('A' for Active; 'I' for Inactive)
REMARK    1  A    between atoms: C_2  and  C_3 
REMARK    2  A    between atoms: C_2  and  C_6 
REMARK    3  A    between atoms: C_2  and  C_13 
REMARK    4  A    between atoms: C_3  and  C_4 
REMARK    5  A    between atoms: C_14  and  O_23 
ROOT
HETATM    1  C   UNL     1      34.709  32.238  34.519  1.00  0.00     0.032 A 
HETATM    2  C   UNL     1      34.059  31.741  37.149  1.00  0.00     0.298 A 
HETATM    3  C   UNL     1      35.270  32.396  36.881  1.00  0.00     0.060 A 
HETATM    4  C   UNL     1      35.627  32.657  35.588  1.00  0.00     0.091 A 
HETATM    5  C   UNL     1      35.012  32.471  33.176  1.00  0.00     0.017 A 
HETATM    6  C   UNL     1      34.131  32.064  32.199  1.00  0.00     0.001 A 
HETATM    7  C   UNL     1      32.948  31.426  32.544  1.00  0.00     0.003 A 
HETATM    8  C   UNL     1      32.638  31.189  33.866  1.00  0.00     0.038 A 
HETATM    9  C   UNL     1      33.513  31.591  34.867  1.00  0.00     0.092 A 
HETATM   10  O   UNL     1      33.225  31.366  36.166  1.00  0.00    -0.274 OA
HETATM   11  O   UNL     1      33.751  31.515  38.306  1.00  0.00    -0.259 OA
ENDROOT
BRANCH   4  12
HETATM   12  O   UNL     1      36.791  33.284  35.300  1.00  0.00    -0.359 OA
HETATM   13  H   UNL     1      37.262  32.723  34.670  1.00  0.00     0.217 HD
ENDBRANCH   4  12
BRANCH   3  14
HETATM   14  C   UNL     1      36.175  32.806  38.014  1.00  0.00     0.067 C 
BRANCH  14  15
HETATM   15  C   UNL     1      37.121  31.653  38.353  1.00  0.00     0.092 C 
BRANCH  15  16
HETATM   16  C   UNL     1      38.503  31.970  37.843  1.00  0.00     0.124 C 
HETATM   17  C   UNL     1      39.466  32.745  38.704  1.00  0.00     0.091 C 
HETATM   18  O   UNL     1      38.839  31.603  36.744  1.00  0.00    -0.298 OA
ENDBRANCH  15  16
ENDBRANCH  14  15
BRANCH  14  19
HETATM   19  C   UNL     1      35.345  33.147  39.222  1.00  0.00    -0.049 A 
HETATM   20  C   UNL     1      35.006  32.159  40.130  1.00  0.00     0.008 A 
HETATM   21  C   UNL     1      34.244  32.472  41.240  1.00  0.00     0.001 A 
HETATM   22  C   UNL     1      33.821  33.771  41.444  1.00  0.00     0.000 A 
HETATM   23  C   UNL     1      34.159  34.758  40.538  1.00  0.00     0.001 A 
HETATM   24  C   UNL     1      34.925  34.446  39.430  1.00  0.00     0.008 A 
ENDBRANCH  14  19
ENDBRANCH   3  14
TORSDOF 5
ENDMDL
MODEL 2
REMARK VINA RESULT:    -7.813      1.208      3.845
REMARK INTER + INTRA:          -9.882
REMARK INTER:                 -10.729
REMARK INTRA:                   0.847
REMARK UNBOUND:                -0.013
REMARK  5 active torsions:
REMARK  status: ('A' for Active; 'I' for Inactive)
REMARK    1  A    between atoms: C_2  and  C_3 
REMARK    2  A    between atoms: C_2  and  C_6 
REMARK    3  A    between atoms: C_2  and  C_13 
REMARK    4  A    between atoms: C_3  and  C_4 
REMARK    5  A    between atoms: C_14  and  O_23 
ROOT
HETATM    1  C   UNL     1      33.871  31.778  34.513  1.00  0.00     0.032 A 
HETATM    2  C   UNL     1      35.922  33.273  35.583  1.00  0.00     0.298 A 
HETATM    3  C   UNL     1      35.110  32.543  36.463  1.00  0.00     0.060 A 
HETATM    4  C   UNL     1      34.080  31.792  35.969  1.00  0.00     0.091 A 
HETATM    5  C   UNL     1      32.838  31.034  33.940  1.00  0.00     0.017 A 
HETATM    6  C   UNL     1      32.668  31.043  32.574  1.00  0.00     0.001 A 
HETATM    7  C   UNL     1      33.518  31.787  31.768  1.00  0.00     0.003 A 
HETATM    8  C   UNL     1      34.541  32.527  32.321  1.00  0.00     0.038 A 
HETATM    9  C   UNL     1      34.729  32.531  33.698  1.00  0.00     0.092 A 
HETATM   10  O   UNL     1      35.726  33.251  34.255  1.00  0.00    -0.274 OA
HETATM   11  O   UNL     1      36.837  33.939  36.035  1.00  0.00    -0.259 OA
ENDROOT
BRANCH   4  12
HETATM   12  O   UNL     1      33.278  31.081  36.794  1.00  0.00    -0.359 OA
HETATM   13  H   UNL     1      33.584  30.166  36.762  1.00  0.00     0.217 HD
ENDBRANCH   4  12
BRANCH   3  14
HETATM   14  C   UNL     1      35.367  32.591  37.946  1.00  0.00     0.067 C 
BRANCH  14  15
HETATM   15  C   UNL     1      35.038  33.987  38.476  1.00  0.00     0.092 C 
BRANCH  15  16
HETATM   16  C   UNL     1      34.340  33.869  39.807  1.00  0.00     0.124 C 
HETATM   17  C   UNL     1      34.471  34.970  40.827  1.00  0.00     0.091 C 
HETATM   18  O   UNL     1      33.677  32.892  40.056  1.00  0.00    -0.298 OA
ENDBRANCH  15  16
ENDBRANCH  14  15
BRANCH  14  19
HETATM   19  C   UNL     1      36.815  32.281  38.215  1.00  0.00    -0.049 A 
HETATM   20  C   UNL     1      37.453  32.846  39.305  1.00  0.00     0.008 A 
HETATM   21  C   UNL     1      38.783  32.561  39.552  1.00  0.00     0.001 A 
HETATM   22  C   UNL     1      39.475  31.711  38.711  1.00  0.00     0.000 A 
HETATM   23  C   UNL     1      38.838  31.146  37.623  1.00  0.00     0.001 A 
HETATM   24  C   UNL     1      37.507  31.427  37.378  1.00  0.00     0.008 A 
ENDBRANCH  14  19
ENDBRANCH   3  14
TORSDOF 5
ENDMDL
MODEL 3
REMARK VINA RESULT:    -7.783      0.896      2.145
REMARK INTER + INTRA:          -9.843
REMARK INTER:                 -10.871
REMARK INTRA:                   1.028
REMARK UNBOUND:                -0.013
REMARK  5 active torsions:
REMARK  status: ('A' for Active; 'I' for Inactive)
REMARK    1  A    between atoms: C_2  and  C_3 
REMARK    2  A    between atoms: C_2  and  C_6 
REMARK    3  A    between atoms: C_2  and  C_13 
REMARK    4  A    between atoms: C_3  and  C_4 
REMARK    5  A    between atoms: C_14  and  O_23 
ROOT
HETATM    1  C   UNL     1      34.308  32.009  35.520  1.00  0.00     0.032 A 
HETATM    2  C   UNL     1      36.665  33.388  35.878  1.00  0.00     0.298 A 
HETATM    3  C   UNL     1      36.062  32.809  37.004  1.00  0.00     0.060 A 
HETATM    4  C   UNL     1      34.891  32.119  36.865  1.00  0.00     0.091 A 
HETATM    5  C   UNL     1      33.113  31.320  35.306  1.00  0.00     0.017 A 
HETATM    6  C   UNL     1      32.594  31.235  34.033  1.00  0.00     0.001 A 
HETATM    7  C   UNL     1      33.252  31.831  32.967  1.00  0.00     0.003 A 
HETATM    8  C   UNL     1      34.433  32.514  33.165  1.00  0.00     0.038 A 
HETATM    9  C   UNL     1      34.974  32.611  34.441  1.00  0.00     0.092 A 
HETATM   10  O   UNL     1      36.128  33.278  34.652  1.00  0.00    -0.274 OA
HETATM   11  O   UNL     1      37.710  34.000  36.013  1.00  0.00    -0.259 OA
ENDROOT
BRANCH   4  12
HETATM   12  O   UNL     1      34.284  31.554  37.935  1.00  0.00    -0.359 OA
HETATM   13  H   UNL     1      34.286  30.600  37.785  1.00  0.00     0.217 HD
ENDBRANCH   4  12
BRANCH   3  14
HETATM   14  C   UNL     1      36.701  32.952  38.361  1.00  0.00     0.067 C 
BRANCH  14  15
HETATM   15  C   UNL     1      37.354  31.627  38.759  1.00  0.00     0.092 C 
BRANCH  15  16
HETATM   16  C   UNL     1      38.853  31.772  38.714  1.00  0.00     0.124 C 
HETATM   17  C   UNL     1      39.477  33.143  38.666  1.00  0.00     0.091 C 
HETATM   18  O   UNL     1      39.554  30.790  38.717  1.00  0.00    -0.298 OA
ENDBRANCH  15  16
ENDBRANCH  14  15
BRANCH  14  19
HETATM   19  C   UNL     1      35.649  33.317  39.375  1.00  0.00    -0.049 A 
HETATM   20  C   UNL     1      35.067  32.333  40.153  1.00  0.00     0.008 A 
HETATM   21  C   UNL     1      34.102  32.669  41.084  1.00  0.00     0.001 A 
HETATM   22  C   UNL     1      33.719  33.987  41.238  1.00  0.00     0.000 A 
HETATM   23  C   UNL     1      34.301  34.970  40.460  1.00  0.00     0.001 A 
HETATM   24  C   UNL     1      35.270  34.636  39.533  1.00  0.00     0.008 A 
ENDBRANCH  14  19
ENDBRANCH   3  14
TORSDOF 5
ENDMDL
MODEL 4
REMARK VINA RESULT:    -7.363      1.287      3.489
REMARK INTER + INTRA:          -9.313
REMARK INTER:                 -10.001
REMARK INTRA:                   0.688
REMARK UNBOUND:                -0.013
REMARK  5 active torsions:
REMARK  status: ('A' for Active; 'I' for Inactive)
REMARK    1  A    between atoms: C_2  and  C_3 
REMARK    2  A    between atoms: C_2  and  C_6 
REMARK    3  A    between atoms: C_2  and  C_13 
REMARK    4  A    between atoms: C_3  and  C_4 
REMARK    5  A    between atoms: C_14  and  O_23 
ROOT
HETATM    1  C   UNL     1      34.381  32.237  35.158  1.00  0.00     0.032 A 
HETATM    2  C   UNL     1      33.510  31.557  37.681  1.00  0.00     0.298 A 
HETATM    3  C   UNL     1      34.684  32.316  37.571  1.00  0.00     0.060 A 
HETATM    4  C   UNL     1      35.148  32.670  36.335  1.00  0.00     0.091 A 
HETATM    5  C   UNL     1      34.798  32.561  33.865  1.00  0.00     0.017 A 
HETATM    6  C   UNL     1      34.058  32.139  32.784  1.00  0.00     0.001 A 
HETATM    7  C   UNL     1      32.903  31.394  32.975  1.00  0.00     0.003 A 
HETATM    8  C   UNL     1      32.480  31.066  34.245  1.00  0.00     0.038 A 
HETATM    9  C   UNL     1      33.213  31.483  35.350  1.00  0.00     0.092 A 
HETATM   10  O   UNL     1      32.814  31.169  36.600  1.00  0.00    -0.274 OA
HETATM   11  O   UNL     1      33.106  31.248  38.788  1.00  0.00    -0.259 OA
ENDROOT
BRANCH   4  12
HETATM   12  O   UNL     1      36.280  33.399  36.198  1.00  0.00    -0.359 OA
HETATM   13  H   UNL     1      36.940  33.003  36.783  1.00  0.00     0.217 HD
ENDBRANCH   4  12
BRANCH   3  14
HETATM   14  C   UNL     1      35.433  32.736  38.809  1.00  0.00     0.067 C 
BRANCH  14  15
HETATM   15  C   UNL     1      35.273  34.243  39.015  1.00  0.00     0.092 C 
BRANCH  15  16
HETATM   16  C   UNL     1      34.676  34.504  40.374  1.00  0.00     0.124 C 
HETATM   17  C   UNL     1      33.993  33.389  41.124  1.00  0.00     0.091 C 
HETATM   18  O   UNL     1      34.744  35.605  40.862  1.00  0.00    -0.298 OA
ENDBRANCH  15  16
ENDBRANCH  14  15
BRANCH  14  19
HETATM   19  C   UNL     1      36.893  32.404  38.650  1.00  0.00    -0.049 A 
HETATM   20  C   UNL     1      37.852  33.192  39.259  1.00  0.00     0.008 A 
HETATM   21  C   UNL     1      39.192  32.887  39.114  1.00  0.00     0.001 A 
HETATM   22  C   UNL     1      39.574  31.794  38.360  1.00  0.00     0.000 A 
HETATM   23  C   UNL     1      38.616  31.006  37.751  1.00  0.00     0.001 A 
HETATM   24  C   UNL     1      37.276  31.308  37.901  1.00  0.00     0.008 A 
ENDBRANCH  14  19
ENDBRANCH   3  14
TORSDOF 5
ENDMDL
MODEL 5
REMARK VINA RESULT:    -7.151      9.795     12.209
REMARK INTER + INTRA:          -9.045
REMARK INTER:                  -9.000
REMARK INTRA:                  -0.045
REMARK UNBOUND:                -0.013
REMARK  5 active torsions:
REMARK  status: ('A' for Active; 'I' for Inactive)
REMARK    1  A    between atoms: C_2  and  C_3 
REMARK    2  A    between atoms: C_2  and  C_6 
REMARK    3  A    between atoms: C_2  and  C_13 
REMARK    4  A    between atoms: C_3  and  C_4 
REMARK    5  A    between atoms: C_14  and  O_23 
ROOT
HETATM    1  C   UNL     1      26.602  26.267  29.547  1.00  0.00     0.032 A 
HETATM    2  C   UNL     1      27.822  27.094  31.873  1.00  0.00     0.298 A 
HETATM    3  C   UNL     1      26.748  27.853  31.385  1.00  0.00     0.060 A 
HETATM    4  C   UNL     1      26.120  27.475  30.232  1.00  0.00     0.091 A 
HETATM    5  C   UNL     1      26.008  25.823  28.363  1.00  0.00     0.017 A 
HETATM    6  C   UNL     1      26.483  24.689  27.746  1.00  0.00     0.001 A 
HETATM    7  C   UNL     1      27.548  23.987  28.294  1.00  0.00     0.003 A 
HETATM    8  C   UNL     1      28.144  24.414  29.461  1.00  0.00     0.038 A 
HETATM    9  C   UNL     1      27.679  25.557  30.100  1.00  0.00     0.092 A 
HETATM   10  O   UNL     1      28.252  25.989  31.243  1.00  0.00    -0.274 OA
HETATM   11  O   UNL     1      28.374  27.440  32.903  1.00  0.00    -0.259 OA
ENDROOT
BRANCH   4  12
HETATM   12  O   UNL     1      25.085  28.190  29.736  1.00  0.00    -0.359 OA
HETATM   13  H   UNL     1      24.551  28.470  30.491  1.00  0.00     0.217 HD
ENDBRANCH   4  12
BRANCH   3  14
HETATM   14  C   UNL     1      26.293  29.083  32.127  1.00  0.00     0.067 C 
BRANCH  14  15
HETATM   15  C   UNL     1      24.767  29.083  32.226  1.00  0.00     0.092 C 
BRANCH  15  16
HETATM   16  C   UNL     1      24.348  28.459  33.533  1.00  0.00     0.124 C 
HETATM   17  C   UNL     1      24.104  26.975  33.616  1.00  0.00     0.091 C 
HETATM   18  O   UNL     1      24.208  29.149  34.513  1.00  0.00    -0.298 OA
ENDBRANCH  15  16
ENDBRANCH  14  15
BRANCH  14  19
HETATM   19  C   UNL     1      26.747  30.313  31.386  1.00  0.00    -0.049 A 
HETATM   20  C   UNL     1      25.828  31.089  30.705  1.00  0.00     0.008 A 
HETATM   21  C   UNL     1      26.244  32.218  30.025  1.00  0.00     0.001 A 
HETATM   22  C   UNL     1      27.580  32.572  30.026  1.00  0.00     0.000 A 
HETATM   23  C   UNL     1      28.499  31.796  30.707  1.00  0.00     0.001 A 
HETATM   24  C   UNL     1      28.082  30.670  31.391  1.00  0.00     0.008 A 
ENDBRANCH  14  19
ENDBRANCH   3  14
TORSDOF 5
ENDMDL
MODEL 6
REMARK VINA RESULT:    -7.107     10.012     14.157
REMARK INTER + INTRA:          -8.990
REMARK INTER:                  -9.025
REMARK INTRA:                   0.035
REMARK UNBOUND:                -0.013
REMARK  5 active torsions:
REMARK  status: ('A' for Active; 'I' for Inactive)
REMARK    1  A    between atoms: C_2  and  C_3 
REMARK    2  A    between atoms: C_2  and  C_6 
REMARK    3  A    between atoms: C_2  and  C_13 
REMARK    4  A    between atoms: C_3  and  C_4 
REMARK    5  A    between atoms: C_14  and  O_23 
ROOT
HETATM    1  C   UNL     1      25.803  28.154  31.725  1.00  0.00     0.032 A 
HETATM    2  C   UNL     1      27.660  26.318  30.849  1.00  0.00     0.298 A 
HETATM    3  C   UNL     1      26.405  26.337  30.223  1.00  0.00     0.060 A 
HETATM    4  C   UNL     1      25.458  27.233  30.632  1.00  0.00     0.091 A 
HETATM    5  C   UNL     1      24.883  29.094  32.194  1.00  0.00     0.017 A 
HETATM    6  C   UNL     1      25.238  29.941  33.219  1.00  0.00     0.001 A 
HETATM    7  C   UNL     1      26.502  29.865  33.785  1.00  0.00     0.003 A 
HETATM    8  C   UNL     1      27.420  28.942  33.332  1.00  0.00     0.038 A 
HETATM    9  C   UNL     1      27.082  28.077  32.298  1.00  0.00     0.092 A 
HETATM   10  O   UNL     1      27.968  27.166  31.843  1.00  0.00    -0.274 OA
HETATM   11  O   UNL     1      28.497  25.515  30.475  1.00  0.00    -0.259 OA
ENDROOT
BRANCH   4  12
HETATM   12  O   UNL     1      24.237  27.272  30.049  1.00  0.00    -0.359 OA
HETATM   13  H   UNL     1      23.586  27.276  30.763  1.00  0.00     0.217 HD
ENDBRANCH   4  12
BRANCH   3  14
HETATM   14  C   UNL     1      26.101  25.372  29.107  1.00  0.00     0.067 C 
BRANCH  14  15
HETATM   15  C   UNL     1      26.596  23.977  29.491  1.00  0.00     0.092 C 
BRANCH  15  16
HETATM   16  C   UNL     1      25.517  22.964  29.205  1.00  0.00     0.124 C 
HETATM   17  C   UNL     1      24.268  23.380  28.472  1.00  0.00     0.091 C 
HETATM   18  O   UNL     1      25.653  21.820  29.564  1.00  0.00    -0.298 OA
ENDBRANCH  15  16
ENDBRANCH  14  15
BRANCH  14  19
HETATM   19  C   UNL     1      26.796  25.822  27.850  1.00  0.00    -0.049 A 
HETATM   20  C   UNL     1      26.377  26.969  27.200  1.00  0.00     0.008 A 
HETATM   21  C   UNL     1      27.015  27.383  26.046  1.00  0.00     0.001 A 
HETATM   22  C   UNL     1      28.073  26.652  25.541  1.00  0.00     0.000 A 
HETATM   23  C   UNL     1      28.492  25.506  26.190  1.00  0.00     0.001 A 
HETATM   24  C   UNL     1      27.858  25.095  27.347  1.00  0.00     0.008 A 
ENDBRANCH  14  19
ENDBRANCH   3  14
TORSDOF 5
ENDMDL
MODEL 7
REMARK VINA RESULT:    -7.094      2.003      7.321
REMARK INTER + INTRA:          -8.974
REMARK INTER:                 -10.655
REMARK INTRA:                   1.681
REMARK UNBOUND:                -0.013
REMARK  5 active torsions:
REMARK  status: ('A' for Active; 'I' for Inactive)
REMARK    1  A    between atoms: C_2  and  C_3 
REMARK    2  A    between atoms: C_2  and  C_6 
REMARK    3  A    between atoms: C_2  and  C_13 
REMARK    4  A    between atoms: C_3  and  C_4 
REMARK    5  A    between atoms: C_14  and  O_23 
ROOT
HETATM    1  C   UNL     1      34.981  32.269  36.467  1.00  0.00     0.032 A 
HETATM    2  C   UNL     1      34.870  32.692  33.748  1.00  0.00     0.298 A 
HETATM    3  C   UNL     1      33.824  31.976  34.348  1.00  0.00     0.060 A 
HETATM    4  C   UNL     1      33.846  31.744  35.694  1.00  0.00     0.091 A 
HETATM    5  C   UNL     1      35.069  32.067  37.846  1.00  0.00     0.017 A 
HETATM    6  C   UNL     1      36.146  32.571  38.541  1.00  0.00     0.001 A 
HETATM    7  C   UNL     1      37.140  33.276  37.877  1.00  0.00     0.003 A 
HETATM    8  C   UNL     1      37.066  33.481  36.516  1.00  0.00     0.038 A 
HETATM    9  C   UNL     1      35.988  32.980  35.797  1.00  0.00     0.092 A 
HETATM   10  O   UNL     1      35.900  33.171  34.463  1.00  0.00    -0.274 OA
HETATM   11  O   UNL     1      34.839  32.893  32.547  1.00  0.00    -0.259 OA
ENDROOT
BRANCH   4  12
HETATM   12  O   UNL     1      32.853  31.052  36.299  1.00  0.00    -0.359 OA
HETATM   13  H   UNL     1      33.002  30.118  36.102  1.00  0.00     0.217 HD
ENDBRANCH   4  12
BRANCH   3  14
HETATM   14  C   UNL     1      32.683  31.459  33.510  1.00  0.00     0.067 C 
BRANCH  14  15
HETATM   15  C   UNL     1      31.889  30.426  34.311  1.00  0.00     0.092 C 
BRANCH  15  16
HETATM   16  C   UNL     1      30.428  30.795  34.301  1.00  0.00     0.124 C 
HETATM   17  C   UNL     1      29.648  30.750  33.013  1.00  0.00     0.091 C 
HETATM   18  O   UNL     1      29.883  31.127  35.325  1.00  0.00    -0.298 OA
ENDBRANCH  15  16
ENDBRANCH  14  15
BRANCH  14  19
HETATM   19  C   UNL     1      33.226  30.818  32.261  1.00  0.00    -0.049 A 
HETATM   20  C   UNL     1      34.000  29.675  32.351  1.00  0.00     0.008 A 
HETATM   21  C   UNL     1      34.499  29.086  31.205  1.00  0.00     0.001 A 
HETATM   22  C   UNL     1      34.225  29.638  29.968  1.00  0.00     0.000 A 
HETATM   23  C   UNL     1      33.451  30.780  29.878  1.00  0.00     0.001 A 
HETATM   24  C   UNL     1      32.948  31.366  31.024  1.00  0.00     0.008 A 
ENDBRANCH  14  19
ENDBRANCH   3  14
TORSDOF 5
ENDMDL
MODEL 8
REMARK VINA RESULT:    -7.025      2.118      4.571
REMARK INTER + INTRA:          -8.886
REMARK INTER:                  -9.084
REMARK INTRA:                   0.198
REMARK UNBOUND:                -0.013
REMARK  5 active torsions:
REMARK  status: ('A' for Active; 'I' for Inactive)
REMARK    1  A    between atoms: C_2  and  C_3 
REMARK    2  A    between atoms: C_2  and  C_6 
REMARK    3  A    between atoms: C_2  and  C_13 
REMARK    4  A    between atoms: C_3  and  C_4 
REMARK    5  A    between atoms: C_14  and  O_23 
ROOT
HETATM    1  C   UNL     1      33.470  30.930  33.095  1.00  0.00     0.032 A 
HETATM    2  C   UNL     1      34.075  33.131  34.636  1.00  0.00     0.298 A 
HETATM    3  C   UNL     1      33.290  32.120  35.209  1.00  0.00     0.060 A 
HETATM    4  C   UNL     1      32.968  31.014  34.474  1.00  0.00     0.091 A 
HETATM    5  C   UNL     1      33.178  29.829  32.287  1.00  0.00     0.017 A 
HETATM    6  C   UNL     1      33.663  29.781  30.999  1.00  0.00     0.001 A 
HETATM    7  C   UNL     1      34.439  30.820  30.504  1.00  0.00     0.003 A 
HETATM    8  C   UNL     1      34.734  31.912  31.292  1.00  0.00     0.038 A 
HETATM    9  C   UNL     1      34.254  31.980  32.593  1.00  0.00     0.092 A 
HETATM   10  O   UNL     1      34.533  33.043  33.377  1.00  0.00    -0.274 OA
HETATM   11  O   UNL     1      34.357  34.112  35.301  1.00  0.00    -0.259 OA
ENDROOT
BRANCH   4  12
HETATM   12  O   UNL     1      32.208  30.025  35.000  1.00  0.00    -0.359 OA
HETATM   13  H   UNL     1      32.654  29.729  35.804  1.00  0.00     0.217 HD
ENDBRANCH   4  12
BRANCH   3  14
HETATM   14  C   UNL     1      32.800  32.255  36.628  1.00  0.00     0.067 C 
BRANCH  14  15
HETATM   15  C   UNL     1      31.857  33.455  36.729  1.00  0.00     0.092 C 
BRANCH  15  16
HETATM   16  C   UNL     1      30.458  32.972  37.015  1.00  0.00     0.124 C 
HETATM   17  C   UNL     1      29.429  33.926  37.564  1.00  0.00     0.091 C 
HETATM   18  O   UNL     1      30.163  31.821  36.806  1.00  0.00    -0.298 OA
ENDBRANCH  15  16
ENDBRANCH  14  15
BRANCH  14  19
HETATM   19  C   UNL     1      33.975  32.461  37.547  1.00  0.00    -0.049 A 
HETATM   20  C   UNL     1      33.847  33.270  38.662  1.00  0.00     0.008 A 
HETATM   21  C   UNL     1      34.925  33.458  39.506  1.00  0.00     0.001 A 
HETATM   22  C   UNL     1      36.130  32.838  39.238  1.00  0.00     0.000 A 
HETATM   23  C   UNL     1      36.257  32.030  38.124  1.00  0.00     0.001 A 
HETATM   24  C   UNL     1      35.178  31.837  37.282  1.00  0.00     0.008 A 
ENDBRANCH  14  19
ENDBRANCH   3  14
TORSDOF 5
ENDMDL
MODEL 9
REMARK VINA RESULT:    -7.014      2.087      6.592
REMARK INTER + INTRA:          -8.872
REMARK INTER:                 -10.926
REMARK INTRA:                   2.054
REMARK UNBOUND:                -0.013
REMARK  5 active torsions:
REMARK  status: ('A' for Active; 'I' for Inactive)
REMARK    1  A    between atoms: C_2  and  C_3 
REMARK    2  A    between atoms: C_2  and  C_6 
REMARK    3  A    between atoms: C_2  and  C_13 
REMARK    4  A    between atoms: C_3  and  C_4 
REMARK    5  A    between atoms: C_14  and  O_23 
ROOT
HETATM    1  C   UNL     1      36.728  32.452  37.717  1.00  0.00     0.032 A 
HETATM    2  C   UNL     1      36.093  33.500  35.250  1.00  0.00     0.298 A 
HETATM    3  C   UNL     1      35.107  32.772  35.931  1.00  0.00     0.060 A 
HETATM    4  C   UNL     1      35.386  32.234  37.157  1.00  0.00     0.091 A 
HETATM    5  C   UNL     1      37.083  31.931  38.963  1.00  0.00     0.017 A 
HETATM    6  C   UNL     1      38.348  32.152  39.459  1.00  0.00     0.001 A 
HETATM    7  C   UNL     1      39.268  32.888  38.727  1.00  0.00     0.003 A 
HETATM    8  C   UNL     1      38.931  33.408  37.496  1.00  0.00     0.038 A 
HETATM    9  C   UNL     1      37.660  33.196  36.977  1.00  0.00     0.092 A 
HETATM   10  O   UNL     1      37.314  33.697  35.772  1.00  0.00    -0.274 OA
HETATM   11  O   UNL     1      35.832  33.975  34.159  1.00  0.00    -0.259 OA
ENDROOT
BRANCH   4  12
HETATM   12  O   UNL     1      34.456  31.524  37.834  1.00  0.00    -0.359 OA
HETATM   13  H   UNL     1      33.882  32.163  38.275  1.00  0.00     0.217 HD
ENDBRANCH   4  12
BRANCH   3  14
HETATM   14  C   UNL     1      33.747  32.578  35.313  1.00  0.00     0.067 C 
BRANCH  14  15
HETATM   15  C   UNL     1      32.777  32.048  36.370  1.00  0.00     0.092 C 
BRANCH  15  16
HETATM   16  C   UNL     1      31.474  32.800  36.279  1.00  0.00     0.124 C 
HETATM   17  C   UNL     1      30.251  32.279  36.989  1.00  0.00     0.091 C 
HETATM   18  O   UNL     1      31.410  33.820  35.638  1.00  0.00    -0.298 OA
ENDBRANCH  15  16
ENDBRANCH  14  15
BRANCH  14  19
HETATM   19  C   UNL     1      33.845  31.589  34.182  1.00  0.00    -0.049 A 
HETATM   20  C   UNL     1      34.896  31.666  33.286  1.00  0.00     0.008 A 
HETATM   21  C   UNL     1      34.987  30.758  32.248  1.00  0.00     0.001 A 
HETATM   22  C   UNL     1      34.029  29.773  32.105  1.00  0.00     0.000 A 
HETATM   23  C   UNL     1      32.979  29.696  33.000  1.00  0.00     0.001 A 
HETATM   24  C   UNL     1      32.891  30.601  34.041  1.00  0.00     0.008 A 
ENDBRANCH  14  19
ENDBRANCH   3  14
TORSDOF 5
ENDMDL
MODEL 10
REMARK VINA RESULT:    -6.948      9.129     12.516
REMARK INTER + INTRA:          -8.789
REMARK INTER:                  -8.877
REMARK INTRA:                   0.088
REMARK UNBOUND:                -0.013
REMARK  5 active torsions:
REMARK  status: ('A' for Active; 'I' for Inactive)
REMARK    1  A    between atoms: C_2  and  C_3 
REMARK    2  A    between atoms: C_2  and  C_6 
REMARK    3  A    between atoms: C_2  and  C_13 
REMARK    4  A    between atoms: C_3  and  C_4 
REMARK    5  A    between atoms: C_14  and  O_23 
ROOT
HETATM    1  C   UNL     1      25.430  26.308  29.743  1.00  0.00     0.032 A 
HETATM    2  C   UNL     1      24.532  27.224  32.181  1.00  0.00     0.298 A 
HETATM    3  C   UNL     1      25.142  28.143  31.314  1.00  0.00     0.060 A 
HETATM    4  C   UNL     1      25.602  27.725  30.097  1.00  0.00     0.091 A 
HETATM    5  C   UNL     1      25.878  25.811  28.517  1.00  0.00     0.017 A 
HETATM    6  C   UNL     1      25.702  24.479  28.217  1.00  0.00     0.001 A 
HETATM    7  C   UNL     1      25.083  23.632  29.125  1.00  0.00     0.003 A 
HETATM    8  C   UNL     1      24.637  24.110  30.339  1.00  0.00     0.038 A 
HETATM    9  C   UNL     1      24.805  25.450  30.661  1.00  0.00     0.092 A 
HETATM   10  O   UNL     1      24.375  25.933  31.846  1.00  0.00    -0.274 OA
HETATM   11  O   UNL     1      24.125  27.610  33.262  1.00  0.00    -0.259 OA
ENDROOT
BRANCH   4  12
HETATM   12  O   UNL     1      26.198  28.588  29.243  1.00  0.00    -0.359 OA
HETATM   13  H   UNL     1      27.086  28.247  29.075  1.00  0.00     0.217 HD
ENDBRANCH   4  12
BRANCH   3  14
HETATM   14  C   UNL     1      25.293  29.585  31.725  1.00  0.00     0.067 C 
BRANCH  14  15
HETATM   15  C   UNL     1      24.970  30.491  30.536  1.00  0.00     0.092 C 
BRANCH  15  16
HETATM   16  C   UNL     1      24.190  31.689  31.013  1.00  0.00     0.124 C 
HETATM   17  C   UNL     1      23.825  32.785  30.046  1.00  0.00     0.091 C 
HETATM   18  O   UNL     1      23.859  31.771  32.170  1.00  0.00    -0.298 OA
ENDBRANCH  15  16
ENDBRANCH  14  15
BRANCH  14  19
HETATM   19  C   UNL     1      26.709  29.833  32.175  1.00  0.00    -0.049 A 
HETATM   20  C   UNL     1      27.212  29.162  33.274  1.00  0.00     0.008 A 
HETATM   21  C   UNL     1      28.512  29.389  33.687  1.00  0.00     0.001 A 
HETATM   22  C   UNL     1      29.308  30.286  33.002  1.00  0.00     0.000 A 
HETATM   23  C   UNL     1      28.805  30.956  31.903  1.00  0.00     0.001 A 
HETATM   24  C   UNL     1      27.507  30.725  31.487  1.00  0.00     0.008 A 
ENDBRANCH  14  19
ENDBRANCH   3  14
TORSDOF 5
ENDMDL
MODEL 11
REMARK VINA RESULT:    -6.903      2.589      5.445
REMARK INTER + INTRA:          -8.732
REMARK INTER:                  -9.786
REMARK INTRA:                   1.054
REMARK UNBOUND:                -0.013
REMARK  5 active torsions:
REMARK  status: ('A' for Active; 'I' for Inactive)
REMARK    1  A    between atoms: C_2  and  C_3 
REMARK    2  A    between atoms: C_2  and  C_6 
REMARK    3  A    between atoms: C_2  and  C_13 
REMARK    4  A    between atoms: C_3  and  C_4 
REMARK    5  A    between atoms: C_14  and  O_23 
ROOT
HETATM    1  C   UNL     1      33.955  30.139  31.400  1.00  0.00     0.032 A 
HETATM    2  C   UNL     1      33.981  32.499  32.820  1.00  0.00     0.298 A 
HETATM    3  C   UNL     1      33.549  31.338  33.478  1.00  0.00     0.060 A 
HETATM    4  C   UNL     1      33.520  30.149  32.804  1.00  0.00     0.091 A 
HETATM    5  C   UNL     1      33.950  28.961  30.651  1.00  0.00     0.017 A 
HETATM    6  C   UNL     1      34.363  28.986  29.338  1.00  0.00     0.001 A 
HETATM    7  C   UNL     1      34.784  30.174  28.759  1.00  0.00     0.003 A 
HETATM    8  C   UNL     1      34.793  31.345  29.487  1.00  0.00     0.038 A 
HETATM    9  C   UNL     1      34.380  31.341  30.813  1.00  0.00     0.092 A 
HETATM   10  O   UNL     1      34.382  32.479  31.539  1.00  0.00    -0.274 OA
HETATM   11  O   UNL     1      34.004  33.553  33.431  1.00  0.00    -0.259 OA
ENDROOT
BRANCH   4  12
HETATM   12  O   UNL     1      33.102  29.015  33.411  1.00  0.00    -0.359 OA
HETATM   13  H   UNL     1      32.165  28.913  33.200  1.00  0.00     0.217 HD
ENDBRANCH   4  12
BRANCH   3  14
HETATM   14  C   UNL     1      33.113  31.402  34.918  1.00  0.00     0.067 C 
BRANCH  14  15
HETATM   15  C   UNL     1      31.910  32.339  35.046  1.00  0.00     0.092 C 
BRANCH  15  16
HETATM   16  C   UNL     1      30.691  31.542  35.433  1.00  0.00     0.124 C 
HETATM   17  C   UNL     1      29.941  30.756  34.389  1.00  0.00     0.091 C 
HETATM   18  O   UNL     1      30.315  31.534  36.580  1.00  0.00    -0.298 OA
ENDBRANCH  15  16
ENDBRANCH  14  15
BRANCH  14  19
HETATM   19  C   UNL     1      34.245  31.922  35.763  1.00  0.00    -0.049 A 
HETATM   20  C   UNL     1      34.030  32.232  37.094  1.00  0.00     0.008 A 
HETATM   21  C   UNL     1      35.070  32.708  37.870  1.00  0.00     0.001 A 
HETATM   22  C   UNL     1      36.325  32.875  37.317  1.00  0.00     0.000 A 
HETATM   23  C   UNL     1      36.540  32.565  35.988  1.00  0.00     0.001 A 
HETATM   24  C   UNL     1      35.502  32.084  35.213  1.00  0.00     0.008 A 
ENDBRANCH  14  19
ENDBRANCH   3  14
TORSDOF 5
ENDMDL
MODEL 12
REMARK VINA RESULT:    -6.847      9.502     13.886
REMARK INTER + INTRA:          -8.662
REMARK INTER:                  -8.501
REMARK INTRA:                  -0.161
REMARK UNBOUND:                -0.013
REMARK  5 active torsions:
REMARK  status: ('A' for Active; 'I' for Inactive)
REMARK    1  A    between atoms: C_2  and  C_3 
REMARK    2  A    between atoms: C_2  and  C_6 
REMARK    3  A    between atoms: C_2  and  C_13 
REMARK    4  A    between atoms: C_3  and  C_4 
REMARK    5  A    between atoms: C_14  and  O_23 
ROOT
HETATM    1  C   UNL     1      27.146  27.856  32.015  1.00  0.00     0.032 A 
HETATM    2  C   UNL     1      24.870  27.231  30.596  1.00  0.00     0.298 A 
HETATM    3  C   UNL     1      26.023  26.468  30.362  1.00  0.00     0.060 A 
HETATM    4  C   UNL     1      27.172  26.751  31.045  1.00  0.00     0.091 A 
HETATM    5  C   UNL     1      28.285  28.200  32.746  1.00  0.00     0.017 A 
HETATM    6  C   UNL     1      28.227  29.241  33.646  1.00  0.00     0.001 A 
HETATM    7  C   UNL     1      27.046  29.946  33.826  1.00  0.00     0.003 A 
HETATM    8  C   UNL     1      25.915  29.617  33.110  1.00  0.00     0.038 A 
HETATM    9  C   UNL     1      25.952  28.570  32.197  1.00  0.00     0.092 A 
HETATM   10  O   UNL     1      24.854  28.236  31.487  1.00  0.00    -0.274 OA
HETATM   11  O   UNL     1      23.851  26.969  29.981  1.00  0.00    -0.259 OA
ENDROOT
BRANCH   4  12
HETATM   12  O   UNL     1      28.301  26.035  30.836  1.00  0.00    -0.359 OA
HETATM   13  H   UNL     1      28.037  25.220  30.389  1.00  0.00     0.217 HD
ENDBRANCH   4  12
BRANCH   3  14
HETATM   14  C   UNL     1      25.997  25.346  29.357  1.00  0.00     0.067 C 
BRANCH  14  15
HETATM   15  C   UNL     1      26.700  24.121  29.943  1.00  0.00     0.092 C 
BRANCH  15  16
HETATM   16  C   UNL     1      25.678  23.066  30.280  1.00  0.00     0.124 C 
HETATM   17  C   UNL     1      25.652  21.770  29.512  1.00  0.00     0.091 C 
HETATM   18  O   UNL     1      24.880  23.260  31.163  1.00  0.00    -0.298 OA
ENDBRANCH  15  16
ENDBRANCH  14  15
BRANCH  14  19
HETATM   19  C   UNL     1      26.705  25.778  28.101  1.00  0.00    -0.049 A 
HETATM   20  C   UNL     1      26.295  26.918  27.434  1.00  0.00     0.008 A 
HETATM   21  C   UNL     1      26.945  27.316  26.281  1.00  0.00     0.001 A 
HETATM   22  C   UNL     1      28.006  26.575  25.795  1.00  0.00     0.000 A 
HETATM   23  C   UNL     1      28.416  25.437  26.462  1.00  0.00     0.001 A 
HETATM   24  C   UNL     1      27.769  25.042  27.618  1.00  0.00     0.008 A 
ENDBRANCH  14  19
ENDBRANCH   3  14
TORSDOF 5
ENDMDL
MODEL 13
REMARK VINA RESULT:    -6.822      1.695      2.793
REMARK INTER + INTRA:          -8.630
REMARK INTER:                 -10.954
REMARK INTRA:                   2.324
REMARK UNBOUND:                -0.013
REMARK  5 active torsions:
REMARK  status: ('A' for Active; 'I' for Inactive)
REMARK    1  A    between atoms: C_2  and  C_3 
REMARK    2  A    between atoms: C_2  and  C_6 
REMARK    3  A    between atoms: C_2  and  C_13 
REMARK    4  A    between atoms: C_3  and  C_4 
REMARK    5  A    between atoms: C_14  and  O_23 
ROOT
HETATM    1  C   UNL     1      31.872  31.664  35.293  1.00  0.00     0.032 A 
HETATM    2  C   UNL     1      34.536  31.881  34.626  1.00  0.00     0.298 A 
HETATM    3  C   UNL     1      34.132  32.340  35.888  1.00  0.00     0.060 A 
HETATM    4  C   UNL     1      32.818  32.251  36.253  1.00  0.00     0.091 A 
HETATM    5  C   UNL     1      30.515  31.543  35.599  1.00  0.00     0.017 A 
HETATM    6  C   UNL     1      29.656  30.990  34.677  1.00  0.00     0.001 A 
HETATM    7  C   UNL     1      30.132  30.553  33.449  1.00  0.00     0.003 A 
HETATM    8  C   UNL     1      31.469  30.667  33.134  1.00  0.00     0.038 A 
HETATM    9  C   UNL     1      32.353  31.222  34.050  1.00  0.00     0.092 A 
HETATM   10  O   UNL     1      33.665  31.342  33.757  1.00  0.00    -0.274 OA
HETATM   11  O   UNL     1      35.710  31.965  34.312  1.00  0.00    -0.259 OA
ENDROOT
BRANCH   4  12
HETATM   12  O   UNL     1      32.400  32.689  37.463  1.00  0.00    -0.359 OA
HETATM   13  H   UNL     1      33.112  32.505  38.088  1.00  0.00     0.217 HD
ENDBRANCH   4  12
BRANCH   3  14
HETATM   14  C   UNL     1      35.142  32.933  36.836  1.00  0.00     0.067 C 
BRANCH  14  15
HETATM   15  C   UNL     1      36.517  32.319  36.567  1.00  0.00     0.092 C 
BRANCH  15  16
HETATM   16  C   UNL     1      37.587  33.349  36.821  1.00  0.00     0.124 C 
HETATM   17  C   UNL     1      38.485  33.221  38.024  1.00  0.00     0.091 C 
HETATM   18  O   UNL     1      37.724  34.276  36.062  1.00  0.00    -0.298 OA
ENDBRANCH  15  16
ENDBRANCH  14  15
BRANCH  14  19
HETATM   19  C   UNL     1      34.731  32.642  38.255  1.00  0.00    -0.049 A 
HETATM   20  C   UNL     1      34.581  31.333  38.676  1.00  0.00     0.008 A 
HETATM   21  C   UNL     1      34.204  31.065  39.979  1.00  0.00     0.001 A 
HETATM   22  C   UNL     1      33.978  32.104  40.860  1.00  0.00     0.000 A 
HETATM   23  C   UNL     1      34.128  33.412  40.439  1.00  0.00     0.001 A 
HETATM   24  C   UNL     1      34.510  33.680  39.138  1.00  0.00     0.008 A 
ENDBRANCH  14  19
ENDBRANCH   3  14
TORSDOF 5
ENDMDL
MODEL 14
REMARK VINA RESULT:    -6.756     10.397     13.196
REMARK INTER + INTRA:          -8.546
REMARK INTER:                  -8.583
REMARK INTRA:                   0.037
REMARK UNBOUND:                -0.013
REMARK  5 active torsions:
REMARK  status: ('A' for Active; 'I' for Inactive)
REMARK    1  A    between atoms: C_2  and  C_3 
REMARK    2  A    between atoms: C_2  and  C_6 
REMARK    3  A    between atoms: C_2  and  C_13 
REMARK    4  A    between atoms: C_3  and  C_4 
REMARK    5  A    between atoms: C_14  and  O_23 
ROOT
HETATM    1  C   UNL     1      24.981  26.006  33.984  1.00  0.00     0.032 A 
HETATM    2  C   UNL     1      27.291  27.354  33.324  1.00  0.00     0.298 A 
HETATM    3  C   UNL     1      26.163  27.541  32.512  1.00  0.00     0.060 A 
HETATM    4  C   UNL     1      25.000  26.886  32.807  1.00  0.00     0.091 A 
HETATM    5  C   UNL     1      23.828  25.305  34.343  1.00  0.00     0.017 A 
HETATM    6  C   UNL     1      23.844  24.488  35.450  1.00  0.00     0.001 A 
HETATM    7  C   UNL     1      24.999  24.358  36.209  1.00  0.00     0.003 A 
HETATM    8  C   UNL     1      26.144  25.044  35.865  1.00  0.00     0.038 A 
HETATM    9  C   UNL     1      26.149  25.874  34.751  1.00  0.00     0.092 A 
HETATM   10  O   UNL     1      27.263  26.551  34.400  1.00  0.00    -0.274 OA
HETATM   11  O   UNL     1      28.322  27.943  33.052  1.00  0.00    -0.259 OA
ENDROOT
BRANCH   4  12
HETATM   12  O   UNL     1      23.897  27.044  32.038  1.00  0.00    -0.359 OA
HETATM   13  H   UNL     1      23.430  26.199  32.043  1.00  0.00     0.217 HD
ENDBRANCH   4  12
BRANCH   3  14
HETATM   14  C   UNL     1      26.234  28.455  31.317  1.00  0.00     0.067 C 
BRANCH  14  15
HETATM   15  C   UNL     1      24.994  29.350  31.285  1.00  0.00     0.092 C 
BRANCH  15  16
HETATM   16  C   UNL     1      25.414  30.785  31.097  1.00  0.00     0.124 C 
HETATM   17  C   UNL     1      26.848  31.114  30.769  1.00  0.00     0.091 C 
HETATM   18  O   UNL     1      24.603  31.671  31.210  1.00  0.00    -0.298 OA
ENDBRANCH  15  16
ENDBRANCH  14  15
BRANCH  14  19
HETATM   19  C   UNL     1      26.292  27.632  30.058  1.00  0.00    -0.049 A 
HETATM   20  C   UNL     1      26.977  26.430  30.048  1.00  0.00     0.008 A 
HETATM   21  C   UNL     1      27.030  25.675  28.892  1.00  0.00     0.001 A 
HETATM   22  C   UNL     1      26.399  26.119  27.746  1.00  0.00     0.000 A 
HETATM   23  C   UNL     1      25.715  27.320  27.756  1.00  0.00     0.001 A 
HETATM   24  C   UNL     1      25.657  28.073  28.913  1.00  0.00     0.008 A 
ENDBRANCH  14  19
ENDBRANCH   3  14
TORSDOF 5
ENDMDL
MODEL 15
REMARK VINA RESULT:    -6.733     10.919     13.613
REMARK INTER + INTRA:          -8.518
REMARK INTER:                  -8.354
REMARK INTRA:                  -0.163
REMARK UNBOUND:                -0.013
REMARK  5 active torsions:
REMARK  status: ('A' for Active; 'I' for Inactive)
REMARK    1  A    between atoms: C_2  and  C_3 
REMARK    2  A    between atoms: C_2  and  C_6 
REMARK    3  A    between atoms: C_2  and  C_13 
REMARK    4  A    between atoms: C_3  and  C_4 
REMARK    5  A    between atoms: C_14  and  O_23 
ROOT
HETATM    1  C   UNL     1      25.774  26.061  33.683  1.00  0.00     0.032 A 
HETATM    2  C   UNL     1      24.434  26.580  31.333  1.00  0.00     0.298 A 
HETATM    3  C   UNL     1      25.704  27.148  31.507  1.00  0.00     0.060 A 
HETATM    4  C   UNL     1      26.398  26.914  32.661  1.00  0.00     0.091 A 
HETATM    5  C   UNL     1      26.425  25.782  34.886  1.00  0.00     0.017 A 
HETATM    6  C   UNL     1      25.813  24.979  35.822  1.00  0.00     0.001 A 
HETATM    7  C   UNL     1      24.555  24.449  35.575  1.00  0.00     0.003 A 
HETATM    8  C   UNL     1      23.901  24.717  34.391  1.00  0.00     0.038 A 
HETATM    9  C   UNL     1      24.501  25.525  33.433  1.00  0.00     0.092 A 
HETATM   10  O   UNL     1      23.874  25.798  32.270  1.00  0.00    -0.274 OA
HETATM   11  O   UNL     1      23.825  26.795  30.300  1.00  0.00    -0.259 OA
ENDROOT
BRANCH   4  12
HETATM   12  O   UNL     1      27.624  27.452  32.858  1.00  0.00    -0.359 OA
HETATM   13  H   UNL     1      27.824  27.985  32.078  1.00  0.00     0.217 HD
ENDBRANCH   4  12
BRANCH   3  14
HETATM   14  C   UNL     1      26.300  28.015  30.429  1.00  0.00     0.067 C 
BRANCH  14  15
HETATM   15  C   UNL     1      25.308  29.118  30.057  1.00  0.00     0.092 C 
BRANCH  15  16
HETATM   16  C   UNL     1      25.708  30.404  30.733  1.00  0.00     0.124 C 
HETATM   17  C   UNL     1      26.999  31.083  30.357  1.00  0.00     0.091 C 
HETATM   18  O   UNL     1      24.995  30.890  31.576  1.00  0.00    -0.298 OA
ENDBRANCH  15  16
ENDBRANCH  14  15
BRANCH  14  19
HETATM   19  C   UNL     1      26.596  27.175  29.215  1.00  0.00    -0.049 A 
HETATM   20  C   UNL     1      26.171  27.591  27.966  1.00  0.00     0.008 A 
HETATM   21  C   UNL     1      26.443  26.820  26.852  1.00  0.00     0.001 A 
HETATM   22  C   UNL     1      27.140  25.635  26.984  1.00  0.00     0.000 A 
HETATM   23  C   UNL     1      27.565  25.220  28.232  1.00  0.00     0.001 A 
HETATM   24  C   UNL     1      27.298  25.993  29.346  1.00  0.00     0.008 A 
ENDBRANCH  14  19
ENDBRANCH   3  14
TORSDOF 5
ENDMDL
MODEL 16
REMARK VINA RESULT:    -6.727     11.169     12.722
REMARK INTER + INTRA:          -8.509
REMARK INTER:                  -8.303
REMARK INTRA:                  -0.206
REMARK UNBOUND:                -0.013
REMARK  5 active torsions:
REMARK  status: ('A' for Active; 'I' for Inactive)
REMARK    1  A    between atoms: C_2  and  C_3 
REMARK    2  A    between atoms: C_2  and  C_6 
REMARK    3  A    between atoms: C_2  and  C_13 
REMARK    4  A    between atoms: C_3  and  C_4 
REMARK    5  A    between atoms: C_14  and  O_23 
ROOT
HETATM    1  C   UNL     1      27.669  25.416  30.072  1.00  0.00     0.032 A 
HETATM    2  C   UNL     1      25.274  26.774  30.118  1.00  0.00     0.298 A 
HETATM    3  C   UNL     1      26.223  27.077  31.105  1.00  0.00     0.060 A 
HETATM    4  C   UNL     1      27.422  26.422  31.115  1.00  0.00     0.091 A 
HETATM    5  C   UNL     1      28.872  24.707  30.023  1.00  0.00     0.017 A 
HETATM    6  C   UNL     1      29.071  23.771  29.033  1.00  0.00     0.001 A 
HETATM    7  C   UNL     1      28.085  23.531  28.087  1.00  0.00     0.003 A 
HETATM    8  C   UNL     1      26.893  24.223  28.125  1.00  0.00     0.038 A 
HETATM    9  C   UNL     1      26.672  25.172  29.115  1.00  0.00     0.092 A 
HETATM   10  O   UNL     1      25.510  25.857  29.166  1.00  0.00    -0.274 OA
HETATM   11  O   UNL     1      24.209  27.366  30.119  1.00  0.00    -0.259 OA
ENDROOT
BRANCH   4  12
HETATM   12  O   UNL     1      28.355  26.690  32.058  1.00  0.00    -0.359 OA
HETATM   13  H   UNL     1      27.913  26.630  32.914  1.00  0.00     0.217 HD
ENDBRANCH   4  12
BRANCH   3  14
HETATM   14  C   UNL     1      25.921  28.117  32.152  1.00  0.00     0.067 C 
BRANCH  14  15
HETATM   15  C   UNL     1      24.592  27.784  32.833  1.00  0.00     0.092 C 
BRANCH  15  16
HETATM   16  C   UNL     1      24.789  26.632  33.784  1.00  0.00     0.124 C 
HETATM   17  C   UNL     1      23.974  25.375  33.623  1.00  0.00     0.091 C 
HETATM   18  O   UNL     1      25.598  26.717  34.674  1.00  0.00    -0.298 OA
ENDBRANCH  15  16
ENDBRANCH  14  15
BRANCH  14  19
HETATM   19  C   UNL     1      25.827  29.472  31.502  1.00  0.00    -0.049 A 
HETATM   20  C   UNL     1      24.717  30.268  31.721  1.00  0.00     0.008 A 
HETATM   21  C   UNL     1      24.630  31.512  31.125  1.00  0.00     0.001 A 
HETATM   22  C   UNL     1      25.652  31.961  30.310  1.00  0.00     0.000 A 
HETATM   23  C   UNL     1      26.761  31.166  30.092  1.00  0.00     0.001 A 
HETATM   24  C   UNL     1      26.850  29.924  30.692  1.00  0.00     0.008 A 
ENDBRANCH  14  19
ENDBRANCH   3  14
TORSDOF 5
ENDMDL
MODEL 17
REMARK VINA RESULT:    -6.634     10.554     13.158
REMARK INTER + INTRA:          -8.393
REMARK INTER:                  -8.380
REMARK INTRA:                  -0.013
REMARK UNBOUND:                -0.013
REMARK  5 active torsions:
REMARK  status: ('A' for Active; 'I' for Inactive)
REMARK    1  A    between atoms: C_2  and  C_3 
REMARK    2  A    between atoms: C_2  and  C_6 
REMARK    3  A    between atoms: C_2  and  C_13 
REMARK    4  A    between atoms: C_3  and  C_4 
REMARK    5  A    between atoms: C_14  and  O_23 
ROOT
HETATM    1  C   UNL     1      27.305  25.976  27.882  1.00  0.00     0.032 A 
HETATM    2  C   UNL     1      25.365  27.428  29.191  1.00  0.00     0.298 A 
HETATM    3  C   UNL     1      26.080  26.471  29.925  1.00  0.00     0.060 A 
HETATM    4  C   UNL     1      27.048  25.729  29.309  1.00  0.00     0.091 A 
HETATM    5  C   UNL     1      28.279  25.253  27.190  1.00  0.00     0.017 A 
HETATM    6  C   UNL     1      28.494  25.508  25.854  1.00  0.00     0.001 A 
HETATM    7  C   UNL     1      27.750  26.476  25.197  1.00  0.00     0.003 A 
HETATM    8  C   UNL     1      26.785  27.196  25.869  1.00  0.00     0.038 A 
HETATM    9  C   UNL     1      26.552  26.955  27.217  1.00  0.00     0.092 A 
HETATM   10  O   UNL     1      25.610  27.650  27.889  1.00  0.00    -0.274 OA
HETATM   11  O   UNL     1      24.505  28.084  29.751  1.00  0.00    -0.259 OA
ENDROOT
BRANCH   4  12
HETATM   12  O   UNL     1      27.750  24.795  29.991  1.00  0.00    -0.359 OA
HETATM   13  H   UNL     1      27.108  24.265  30.481  1.00  0.00     0.217 HD
ENDBRANCH   4  12
BRANCH   3  14
HETATM   14  C   UNL     1      25.778  26.257  31.385  1.00  0.00     0.067 C 
BRANCH  14  15
HETATM   15  C   UNL     1      24.327  25.798  31.544  1.00  0.00     0.092 C 
BRANCH  15  16
HETATM   16  C   UNL     1      24.286  24.540  32.373  1.00  0.00     0.124 C 
HETATM   17  C   UNL     1      23.868  24.604  33.820  1.00  0.00     0.091 C 
HETATM   18  O   UNL     1      24.588  23.482  31.879  1.00  0.00    -0.298 OA
ENDBRANCH  15  16
ENDBRANCH  14  15
BRANCH  14  19
HETATM   19  C   UNL     1      25.981  27.548  32.134  1.00  0.00    -0.049 A 
HETATM   20  C   UNL     1      27.198  28.201  32.068  1.00  0.00     0.008 A 
HETATM   21  C   UNL     1      27.384  29.386  32.755  1.00  0.00     0.001 A 
HETATM   22  C   UNL     1      26.355  29.918  33.508  1.00  0.00     0.000 A 
HETATM   23  C   UNL     1      25.139  29.265  33.574  1.00  0.00     0.001 A 
HETATM   24  C   UNL     1      24.950  28.083  32.883  1.00  0.00     0.008 A 
ENDBRANCH  14  19
ENDBRANCH   3  14
TORSDOF 5
ENDMDL
MODEL 18
REMARK VINA RESULT:    -6.634     10.376     12.471
REMARK INTER + INTRA:          -8.392
REMARK INTER:                  -8.171
REMARK INTRA:                  -0.221
REMARK UNBOUND:                -0.013
REMARK  5 active torsions:
REMARK  status: ('A' for Active; 'I' for Inactive)
REMARK    1  A    between atoms: C_2  and  C_3 
REMARK    2  A    between atoms: C_2  and  C_6 
REMARK    3  A    between atoms: C_2  and  C_13 
REMARK    4  A    between atoms: C_3  and  C_4 
REMARK    5  A    between atoms: C_14  and  O_23 
ROOT
HETATM    1  C   UNL     1      26.091  29.292  31.412  1.00  0.00     0.032 A 
HETATM    2  C   UNL     1      24.552  28.039  33.322  1.00  0.00     0.298 A 
HETATM    3  C   UNL     1      25.648  27.339  32.795  1.00  0.00     0.060 A 
HETATM    4  C   UNL     1      26.432  27.928  31.843  1.00  0.00     0.091 A 
HETATM    5  C   UNL     1      26.849  29.953  30.443  1.00  0.00     0.017 A 
HETATM    6  C   UNL     1      26.502  31.229  30.061  1.00  0.00     0.001 A 
HETATM    7  C   UNL     1      25.406  31.858  30.634  1.00  0.00     0.003 A 
HETATM    8  C   UNL     1      24.650  31.217  31.591  1.00  0.00     0.038 A 
HETATM    9  C   UNL     1      24.983  29.929  31.991  1.00  0.00     0.092 A 
HETATM   10  O   UNL     1      24.251  29.286  32.926  1.00  0.00    -0.274 OA
HETATM   11  O   UNL     1      23.860  27.504  34.171  1.00  0.00    -0.259 OA
ENDROOT
BRANCH   4  12
HETATM   12  O   UNL     1      27.493  27.275  31.313  1.00  0.00    -0.359 OA
HETATM   13  H   UNL     1      28.133  27.157  32.027  1.00  0.00     0.217 HD
ENDBRANCH   4  12
BRANCH   3  14
HETATM   14  C   UNL     1      25.954  25.943  33.271  1.00  0.00     0.067 C 
BRANCH  14  15
HETATM   15  C   UNL     1      27.373  25.900  33.842  1.00  0.00     0.092 C 
BRANCH  15  16
HETATM   16  C   UNL     1      27.333  26.217  35.314  1.00  0.00     0.124 C 
HETATM   17  C   UNL     1      27.027  25.130  36.312  1.00  0.00     0.091 C 
HETATM   18  O   UNL     1      27.544  27.342  35.695  1.00  0.00    -0.298 OA
ENDBRANCH  15  16
ENDBRANCH  14  15
BRANCH  14  19
HETATM   19  C   UNL     1      25.848  24.984  32.116  1.00  0.00    -0.049 A 
HETATM   20  C   UNL     1      26.847  24.053  31.896  1.00  0.00     0.008 A 
HETATM   21  C   UNL     1      26.750  23.171  30.835  1.00  0.00     0.001 A 
HETATM   22  C   UNL     1      25.654  23.220  29.995  1.00  0.00     0.000 A 
HETATM   23  C   UNL     1      24.656  24.150  30.215  1.00  0.00     0.001 A 
HETATM   24  C   UNL     1      24.751  25.028  31.278  1.00  0.00     0.008 A 
ENDBRANCH  14  19
ENDBRANCH   3  14
TORSDOF 5
ENDMDL
MODEL 19
REMARK VINA RESULT:    -6.513      9.881     12.535
REMARK INTER + INTRA:          -8.239
REMARK INTER:                  -8.102
REMARK INTRA:                  -0.137
REMARK UNBOUND:                -0.013
REMARK  5 active torsions:
REMARK  status: ('A' for Active; 'I' for Inactive)
REMARK    1  A    between atoms: C_2  and  C_3 
REMARK    2  A    between atoms: C_2  and  C_6 
REMARK    3  A    between atoms: C_2  and  C_13 
REMARK    4  A    between atoms: C_3  and  C_4 
REMARK    5  A    between atoms: C_14  and  O_23 
ROOT
HETATM    1  C   UNL     1      28.028  25.523  33.860  1.00  0.00     0.032 A 
HETATM    2  C   UNL     1      25.542  24.916  32.843  1.00  0.00     0.298 A 
HETATM    3  C   UNL     1      26.188  26.065  32.364  1.00  0.00     0.060 A 
HETATM    4  C   UNL     1      27.421  26.399  32.848  1.00  0.00     0.091 A 
HETATM    5  C   UNL     1      29.285  25.806  34.399  1.00  0.00     0.017 A 
HETATM    6  C   UNL     1      29.825  24.965  35.346  1.00  0.00     0.001 A 
HETATM    7  C   UNL     1      29.126  23.842  35.766  1.00  0.00     0.003 A 
HETATM    8  C   UNL     1      27.884  23.552  35.243  1.00  0.00     0.038 A 
HETATM    9  C   UNL     1      27.321  24.388  34.286  1.00  0.00     0.092 A 
HETATM   10  O   UNL     1      26.106  24.119  33.765  1.00  0.00    -0.274 OA
HETATM   11  O   UNL     1      24.442  24.627  32.404  1.00  0.00    -0.259 OA
ENDROOT
BRANCH   4  12
HETATM   12  O   UNL     1      28.066  27.505  32.407  1.00  0.00    -0.359 OA
HETATM   13  H   UNL     1      28.773  27.202  31.823  1.00  0.00     0.217 HD
ENDBRANCH   4  12
BRANCH   3  14
HETATM   14  C   UNL     1      25.522  26.929  31.325  1.00  0.00     0.067 C 
BRANCH  14  15
HETATM   15  C   UNL     1      26.470  27.123  30.140  1.00  0.00     0.092 C 
BRANCH  15  16
HETATM   16  C   UNL     1      25.806  26.633  28.879  1.00  0.00     0.124 C 
HETATM   17  C   UNL     1      26.075  27.325  27.568  1.00  0.00     0.091 C 
HETATM   18  O   UNL     1      25.058  25.687  28.920  1.00  0.00    -0.298 OA
ENDBRANCH  15  16
ENDBRANCH  14  15
BRANCH  14  19
HETATM   19  C   UNL     1      25.188  28.269  31.925  1.00  0.00    -0.049 A 
HETATM   20  C   UNL     1      24.685  28.345  33.211  1.00  0.00     0.008 A 
HETATM   21  C   UNL     1      24.378  29.574  33.762  1.00  0.00     0.001 A 
HETATM   22  C   UNL     1      24.575  30.729  33.029  1.00  0.00     0.000 A 
HETATM   23  C   UNL     1      25.078  30.653  31.745  1.00  0.00     0.001 A 
HETATM   24  C   UNL     1      25.390  29.424  31.195  1.00  0.00     0.008 A 
ENDBRANCH  14  19
ENDBRANCH   3  14
TORSDOF 5
ENDMDL
