MODEL 1
REMARK VINA RESULT:   -10.759      0.000      0.000
REMARK INTER + INTRA:          -8.333
REMARK INTER:                  -9.231
REMARK INTRA:                   0.898
REMARK UNBOUND:                 6.200
REMARK  6 active torsions:
REMARK  status: ('A' for Active; 'I' for Inactive)
REMARK    1  A    between atoms: C_13  and  C_16 
REMARK    2  A    between atoms: C_14  and  C_17 
REMARK    3  A    between atoms: C_15  and  C_18 
REMARK    4  A    between atoms: C_19  and  C_22 
REMARK    5  A    between atoms: C_20  and  C_23 
REMARK    6  A    between atoms: C_21  and  C_24 
ROOT
HETATM    1  O   UNL     1      13.097  -3.790   3.733  1.00  0.00    -0.304 OA
HETATM    2  O   UNL     1       9.785  -3.331  -0.217  1.00  0.00    -0.304 OA
HETATM    3  O   UNL     1      12.366   0.490   0.827  1.00  0.00    -0.304 OA
HETATM    4  O   UNL     1      13.124  -3.746   1.142  1.00  0.00    -0.270 OA
HETATM    5  O   UNL     1      14.737  -1.387   1.853  1.00  0.00    -0.270 OA
HETATM    6  O   UNL     1       9.677  -0.658  -2.048  1.00  0.00    -0.270 OA
HETATM    7  O   UNL     1      11.343  -2.304   3.918  1.00  0.00    -0.263 OA
HETATM    8  O   UNL     1      10.691  -3.430  -2.332  1.00  0.00    -0.263 OA
HETATM    9  O   UNL     1      12.124   2.725   0.357  1.00  0.00    -0.263 OA
HETATM   10  N   UNL     1      11.349  -5.187   0.795  1.00  0.00    -0.340 N 
HETATM   11  N   UNL     1      13.424  -0.415   3.501  1.00  0.00    -0.340 N 
HETATM   12  N   UNL     1       9.833  -0.146   0.215  1.00  0.00    -0.340 N 
HETATM   13  C   UNL     1      11.455  -4.998  -0.667  1.00  0.00     0.190 C 
HETATM   14  C   UNL     1      13.620  -1.583   4.384  1.00  0.00     0.190 C 
HETATM   15  C   UNL     1      10.256   1.246  -0.046  1.00  0.00     0.190 C 
HETATM   16  C   UNL     1      12.251  -4.783   3.113  1.00  0.00     0.227 C 
HETATM   17  C   UNL     1       8.821  -2.312  -0.533  1.00  0.00     0.227 C 
HETATM   18  C   UNL     1      13.721   0.699   1.271  1.00  0.00     0.227 C 
HETATM   19  C   UNL     1      12.280  -4.521   1.605  1.00  0.00     0.250 C 
HETATM   20  C   UNL     1      14.013  -0.458   2.225  1.00  0.00     0.250 C 
HETATM   21  C   UNL     1       9.490  -0.971  -0.869  1.00  0.00     0.250 C 
HETATM   22  C   UNL     1      12.533  -2.575   4.003  1.00  0.00     0.283 C 
HETATM   23  C   UNL     1      10.620  -3.823  -1.173  1.00  0.00     0.283 C 
HETATM   24  C   UNL     1      11.673   1.586   0.410  1.00  0.00     0.283 C 
HETATM   25  C   UNL     1      10.258  -6.026   1.300  1.00  0.00     0.153 C 
HETATM   26  C   UNL     1      12.603   0.692   4.002  1.00  0.00     0.153 C 
HETATM   27  C   UNL     1       9.622  -0.538   1.610  1.00  0.00     0.153 C 
ENDROOT
BRANCH  16  28
HETATM   28  C   UNL     1      12.857  -6.141   3.435  1.00  0.00     0.016 C 
HETATM   29  C   UNL     1      14.256  -5.980   4.030  1.00  0.00     0.012 C 
HETATM   30  C   UNL     1      11.957  -6.922   4.392  1.00  0.00     0.012 C 
ENDBRANCH  16  28
BRANCH  14  31
HETATM   31  C   UNL     1      13.577  -1.304   5.881  1.00  0.00     0.010 C 
HETATM   32  C   UNL     1      13.644  -2.609   6.672  1.00  0.00     0.012 C 
HETATM   33  C   UNL     1      14.716  -0.372   6.287  1.00  0.00     0.012 C 
ENDBRANCH  14  31
BRANCH  13  34
HETATM   34  C   UNL     1      11.124  -6.251  -1.476  1.00  0.00     0.010 C 
HETATM   35  C   UNL     1      12.313  -6.660  -2.346  1.00  0.00     0.012 C 
HETATM   36  C   UNL     1       9.883  -6.028  -2.338  1.00  0.00     0.012 C 
ENDBRANCH  13  34
BRANCH  18  37
HETATM   37  C   UNL     1      14.643   0.674   0.055  1.00  0.00     0.016 C 
HETATM   38  C   UNL     1      13.957  -0.012  -1.127  1.00  0.00     0.012 C 
HETATM   39  C   UNL     1      15.075   2.088  -0.325  1.00  0.00     0.012 C 
ENDBRANCH  18  37
BRANCH  17  40
HETATM   40  C   UNL     1       7.843  -2.772  -1.614  1.00  0.00     0.016 C 
HETATM   41  C   UNL     1       6.819  -1.678  -1.913  1.00  0.00     0.012 C 
HETATM   42  C   UNL     1       7.142  -4.062  -1.192  1.00  0.00     0.012 C 
ENDBRANCH  17  40
BRANCH  15  43
HETATM   43  C   UNL     1       9.254   2.249   0.530  1.00  0.00     0.010 C 
HETATM   44  C   UNL     1       9.838   2.941   1.758  1.00  0.00     0.012 C 
HETATM   45  C   UNL     1       8.857   3.273  -0.529  1.00  0.00     0.012 C 
ENDBRANCH  15  43
TORSDOF 6
ENDMDL
MODEL 2
REMARK VINA RESULT:   -10.152      0.916      1.150
REMARK INTER + INTRA:          -7.513
REMARK INTER:                  -9.246
REMARK INTRA:                   1.733
REMARK UNBOUND:                 6.200
REMARK  6 active torsions:
REMARK  status: ('A' for Active; 'I' for Inactive)
REMARK    1  A    between atoms: C_13  and  C_16 
REMARK    2  A    between atoms: C_14  and  C_17 
REMARK    3  A    between atoms: C_15  and  C_18 
REMARK    4  A    between atoms: C_19  and  C_22 
REMARK    5  A    between atoms: C_20  and  C_23 
REMARK    6  A    between atoms: C_21  and  C_24 
ROOT
HETATM    1  O   UNL     1      12.750  -3.043   3.717  1.00  0.00    -0.304 OA
HETATM    2  O   UNL     1       9.556  -3.329  -0.346  1.00  0.00    -0.304 OA
HETATM    3  O   UNL     1      11.473   0.902   0.537  1.00  0.00    -0.304 OA
HETATM    4  O   UNL     1      12.867  -3.139   1.129  1.00  0.00    -0.270 OA
HETATM    5  O   UNL     1      14.066  -0.520   1.741  1.00  0.00    -0.270 OA
HETATM    6  O   UNL     1       9.103  -0.813  -2.338  1.00  0.00    -0.270 OA
HETATM    7  O   UNL     1      10.781  -1.843   3.762  1.00  0.00    -0.263 OA
HETATM    8  O   UNL     1      10.544  -3.402  -2.424  1.00  0.00    -0.263 OA
HETATM    9  O   UNL     1      10.905   3.041  -0.075  1.00  0.00    -0.263 OA
HETATM   10  N   UNL     1      11.350  -4.858   0.821  1.00  0.00    -0.340 N 
HETATM   11  N   UNL     1      12.559   0.324   3.290  1.00  0.00    -0.340 N 
HETATM   12  N   UNL     1       9.093  -0.157  -0.106  1.00  0.00    -0.340 N 
HETATM   13  C   UNL     1      11.479  -4.736  -0.646  1.00  0.00     0.190 C 
HETATM   14  C   UNL     1      12.900  -0.749   4.247  1.00  0.00     0.190 C 
HETATM   15  C   UNL     1       9.305   1.267  -0.439  1.00  0.00     0.190 C 
HETATM   16  C   UNL     1      12.092  -4.190   3.134  1.00  0.00     0.227 C 
HETATM   17  C   UNL     1       8.458  -2.494  -0.749  1.00  0.00     0.227 C 
HETATM   18  C   UNL     1      12.761   1.344   1.005  1.00  0.00     0.227 C 
HETATM   19  C   UNL     1      12.136  -4.011   1.614  1.00  0.00     0.250 C 
HETATM   20  C   UNL     1      13.193   0.303   2.035  1.00  0.00     0.250 C 
HETATM   21  C   UNL     1       8.923  -1.086  -1.147  1.00  0.00     0.250 C 
HETATM   22  C   UNL     1      11.995  -1.918   3.897  1.00  0.00     0.283 C 
HETATM   23  C   UNL     1      10.492  -3.737  -1.246  1.00  0.00     0.283 C 
HETATM   24  C   UNL     1      10.634   1.849   0.035  1.00  0.00     0.283 C 
HETATM   25  C   UNL     1      10.384  -5.829   1.345  1.00  0.00     0.153 C 
HETATM   26  C   UNL     1      11.557   1.313   3.699  1.00  0.00     0.153 C 
HETATM   27  C   UNL     1       8.894  -0.500   1.304  1.00  0.00     0.153 C 
ENDROOT
BRANCH  16  28
HETATM   28  C   UNL     1      12.889  -5.415   3.555  1.00  0.00     0.016 C 
HETATM   29  C   UNL     1      14.150  -5.004   4.314  1.00  0.00     0.012 C 
HETATM   30  C   UNL     1      12.033  -6.351   4.408  1.00  0.00     0.012 C 
ENDBRANCH  16  28
BRANCH  14  31
HETATM   31  C   UNL     1      12.758  -0.398   5.722  1.00  0.00     0.010 C 
HETATM   32  C   UNL     1      13.274  -1.538   6.598  1.00  0.00     0.012 C 
HETATM   33  C   UNL     1      13.500   0.899   6.039  1.00  0.00     0.012 C 
ENDBRANCH  14  31
BRANCH  13  34
HETATM   34  C   UNL     1      11.378  -6.069  -1.387  1.00  0.00     0.010 C 
HETATM   35  C   UNL     1      12.574  -6.261  -2.318  1.00  0.00     0.012 C 
HETATM   36  C   UNL     1      10.071  -6.153  -2.172  1.00  0.00     0.012 C 
ENDBRANCH  13  34
BRANCH  18  37
HETATM   37  C   UNL     1      13.721   1.397  -0.181  1.00  0.00     0.016 C 
HETATM   38  C   UNL     1      15.063   1.995   0.239  1.00  0.00     0.012 C 
HETATM   39  C   UNL     1      13.918   0.005  -0.778  1.00  0.00     0.012 C 
ENDBRANCH  18  37
BRANCH  17  40
HETATM   40  C   UNL     1       7.603  -3.160  -1.827  1.00  0.00     0.016 C 
HETATM   41  C   UNL     1       6.478  -2.229  -2.274  1.00  0.00     0.012 C 
HETATM   42  C   UNL     1       7.035  -4.485  -1.321  1.00  0.00     0.012 C 
ENDBRANCH  17  40
BRANCH  15  43
HETATM   43  C   UNL     1       8.139   2.130   0.046  1.00  0.00     0.010 C 
HETATM   44  C   UNL     1       8.258   3.548  -0.508  1.00  0.00     0.012 C 
HETATM   45  C   UNL     1       6.807   1.504  -0.357  1.00  0.00     0.012 C 
ENDBRANCH  15  43
TORSDOF 6
ENDMDL
MODEL 3
REMARK VINA RESULT:   -10.055      1.922      8.020
REMARK INTER + INTRA:          -7.382
REMARK INTER:                  -9.457
REMARK INTRA:                   2.075
REMARK UNBOUND:                 6.200
REMARK  6 active torsions:
REMARK  status: ('A' for Active; 'I' for Inactive)
REMARK    1  A    between atoms: C_13  and  C_16 
REMARK    2  A    between atoms: C_14  and  C_17 
REMARK    3  A    between atoms: C_15  and  C_18 
REMARK    4  A    between atoms: C_19  and  C_22 
REMARK    5  A    between atoms: C_20  and  C_23 
REMARK    6  A    between atoms: C_21  and  C_24 
ROOT
HETATM    1  O   UNL     1       8.625  -3.114  -1.102  1.00  0.00    -0.304 OA
HETATM    2  O   UNL     1      12.197  -1.646   2.343  1.00  0.00    -0.304 OA
HETATM    3  O   UNL     1      13.158  -5.538  -0.163  1.00  0.00    -0.304 OA
HETATM    4  O   UNL     1      10.938  -1.945  -1.047  1.00  0.00    -0.270 OA
HETATM    5  O   UNL     1      11.473  -4.380  -2.615  1.00  0.00    -0.270 OA
HETATM    6  O   UNL     1      15.055  -3.155   2.583  1.00  0.00    -0.270 OA
HETATM    7  O   UNL     1       9.082  -4.498   0.686  1.00  0.00    -0.263 OA
HETATM    8  O   UNL     1      14.057  -0.581   1.502  1.00  0.00    -0.263 OA
HETATM    9  O   UNL     1      14.604  -7.293   0.156  1.00  0.00    -0.263 OA
HETATM   10  N   UNL     1      10.501  -0.491   0.698  1.00  0.00    -0.340 N 
HETATM   11  N   UNL     1      10.415  -5.995  -1.329  1.00  0.00    -0.340 N 
HETATM   12  N   UNL     1      13.299  -4.666   2.370  1.00  0.00    -0.340 N 
HETATM   13  C   UNL     1      11.886   0.022   0.643  1.00  0.00     0.190 C 
HETATM   14  C   UNL     1       9.099  -5.375  -1.584  1.00  0.00     0.190 C 
HETATM   15  C   UNL     1      14.195  -5.779   1.995  1.00  0.00     0.190 C 
HETATM   16  C   UNL     1       8.677  -1.938  -0.265  1.00  0.00     0.227 C 
HETATM   17  C   UNL     1      12.910  -2.390   3.345  1.00  0.00     0.227 C 
HETATM   18  C   UNL     1      12.917  -5.943  -1.524  1.00  0.00     0.227 C 
HETATM   19  C   UNL     1      10.133  -1.467  -0.240  1.00  0.00     0.250 C 
HETATM   20  C   UNL     1      11.548  -5.367  -1.878  1.00  0.00     0.250 C 
HETATM   21  C   UNL     1      13.859  -3.426   2.725  1.00  0.00     0.250 C 
HETATM   22  C   UNL     1       8.929  -4.310  -0.514  1.00  0.00     0.283 C 
HETATM   23  C   UNL     1      12.846  -0.773   1.526  1.00  0.00     0.283 C 
HETATM   24  C   UNL     1      14.009  -6.305   0.574  1.00  0.00     0.283 C 
HETATM   25  C   UNL     1       9.619   0.026   1.749  1.00  0.00     0.153 C 
HETATM   26  C   UNL     1      10.455  -7.199  -0.493  1.00  0.00     0.153 C 
HETATM   27  C   UNL     1      11.875  -4.967   2.526  1.00  0.00     0.153 C 
ENDROOT
BRANCH  16  28
HETATM   28  C   UNL     1       7.784  -0.894  -0.919  1.00  0.00     0.016 C 
HETATM   29  C   UNL     1       6.920  -1.528  -2.008  1.00  0.00     0.012 C 
HETATM   30  C   UNL     1       6.907  -0.203   0.125  1.00  0.00     0.012 C 
ENDBRANCH  16  28
BRANCH  14  31
HETATM   31  C   UNL     1       7.904  -6.320  -1.580  1.00  0.00     0.010 C 
HETATM   32  C   UNL     1       6.698  -5.662  -2.247  1.00  0.00     0.012 C 
HETATM   33  C   UNL     1       8.253  -7.631  -2.279  1.00  0.00     0.012 C 
ENDBRANCH  14  31
BRANCH  13  34
HETATM   34  C   UNL     1      12.004   1.511   0.964  1.00  0.00     0.010 C 
HETATM   35  C   UNL     1      13.158   2.141   0.185  1.00  0.00     0.012 C 
HETATM   36  C   UNL     1      12.191   1.728   2.464  1.00  0.00     0.012 C 
ENDBRANCH  13  34
BRANCH  18  37
HETATM   37  C   UNL     1      14.018  -5.363  -2.407  1.00  0.00     0.016 C 
HETATM   38  C   UNL     1      14.685  -4.169  -1.724  1.00  0.00     0.012 C 
HETATM   39  C   UNL     1      15.055  -6.430  -2.751  1.00  0.00     0.012 C 
ENDBRANCH  18  37
BRANCH  17  40
HETATM   40  C   UNL     1      13.613  -1.470   4.344  1.00  0.00     0.016 C 
HETATM   41  C   UNL     1      14.414  -2.286   5.356  1.00  0.00     0.012 C 
HETATM   42  C   UNL     1      12.599  -0.577   5.057  1.00  0.00     0.012 C 
ENDBRANCH  17  40
BRANCH  15  43
HETATM   43  C   UNL     1      14.113  -6.924   3.005  1.00  0.00     0.010 C 
HETATM   44  C   UNL     1      15.067  -8.050   2.615  1.00  0.00     0.012 C 
HETATM   45  C   UNL     1      14.422  -6.419   4.411  1.00  0.00     0.012 C 
ENDBRANCH  15  43
TORSDOF 6
ENDMDL
MODEL 4
REMARK VINA RESULT:    -9.960      1.860      7.506
REMARK INTER + INTRA:          -7.254
REMARK INTER:                  -9.563
REMARK INTRA:                   2.310
REMARK UNBOUND:                 6.200
REMARK  6 active torsions:
REMARK  status: ('A' for Active; 'I' for Inactive)
REMARK    1  A    between atoms: C_13  and  C_16 
REMARK    2  A    between atoms: C_14  and  C_17 
REMARK    3  A    between atoms: C_15  and  C_18 
REMARK    4  A    between atoms: C_19  and  C_22 
REMARK    5  A    between atoms: C_20  and  C_23 
REMARK    6  A    between atoms: C_21  and  C_24 
ROOT
HETATM    1  O   UNL     1       8.740  -3.657  -1.369  1.00  0.00    -0.304 OA
HETATM    2  O   UNL     1      10.754  -0.653   2.333  1.00  0.00    -0.304 OA
HETATM    3  O   UNL     1      13.345  -4.374   0.993  1.00  0.00    -0.304 OA
HETATM    4  O   UNL     1      10.556  -1.828  -1.095  1.00  0.00    -0.270 OA
HETATM    5  O   UNL     1      12.116  -4.175  -1.947  1.00  0.00    -0.270 OA
HETATM    6  O   UNL     1      13.746  -1.139   3.482  1.00  0.00    -0.270 OA
HETATM    7  O   UNL     1       9.066  -4.548   0.733  1.00  0.00    -0.263 OA
HETATM    8  O   UNL     1      12.414   0.804   1.682  1.00  0.00    -0.263 OA
HETATM    9  O   UNL     1      15.073  -5.521   1.979  1.00  0.00    -0.263 OA
HETATM   10  N   UNL     1       9.304  -0.343   0.161  1.00  0.00    -0.340 N 
HETATM   11  N   UNL     1      11.231  -5.833  -0.585  1.00  0.00    -0.340 N 
HETATM   12  N   UNL     1      12.579  -3.137   3.247  1.00  0.00    -0.340 N 
HETATM   13  C   UNL     1      10.464   0.564   0.283  1.00  0.00     0.190 C 
HETATM   14  C   UNL     1       9.911  -5.700  -1.236  1.00  0.00     0.190 C 
HETATM   15  C   UNL     1      13.806  -3.957   3.317  1.00  0.00     0.190 C 
HETATM   16  C   UNL     1       8.253  -2.414  -0.817  1.00  0.00     0.227 C 
HETATM   17  C   UNL     1      11.353  -0.980   3.599  1.00  0.00     0.227 C 
HETATM   18  C   UNL     1      13.588  -5.030  -0.267  1.00  0.00     0.227 C 
HETATM   19  C   UNL     1       9.470  -1.512  -0.595  1.00  0.00     0.250 C 
HETATM   20  C   UNL     1      12.257  -4.970  -1.012  1.00  0.00     0.250 C 
HETATM   21  C   UNL     1      12.673  -1.747   3.429  1.00  0.00     0.250 C 
HETATM   22  C   UNL     1       9.188  -4.597  -0.484  1.00  0.00     0.283 C 
HETATM   23  C   UNL     1      11.336   0.249   1.497  1.00  0.00     0.283 C 
HETATM   24  C   UNL     1      14.147  -4.719   2.038  1.00  0.00     0.283 C 
HETATM   25  C   UNL     1       8.073   0.021   0.868  1.00  0.00     0.153 C 
HETATM   26  C   UNL     1      11.371  -6.827   0.483  1.00  0.00     0.153 C 
HETATM   27  C   UNL     1      11.298  -3.843   3.168  1.00  0.00     0.153 C 
ENDROOT
BRANCH  16  28
HETATM   28  C   UNL     1       7.317  -1.809  -1.853  1.00  0.00     0.016 C 
HETATM   29  C   UNL     1       6.646  -2.906  -2.679  1.00  0.00     0.012 C 
HETATM   30  C   UNL     1       6.265  -0.927  -1.182  1.00  0.00     0.012 C 
ENDBRANCH  16  28
BRANCH  14  31
HETATM   31  C   UNL     1       9.055  -6.960  -1.273  1.00  0.00     0.010 C 
HETATM   32  C   UNL     1       7.598  -6.611  -1.567  1.00  0.00     0.012 C 
HETATM   33  C   UNL     1       9.591  -7.944  -2.311  1.00  0.00     0.012 C 
ENDBRANCH  14  31
BRANCH  13  34
HETATM   34  C   UNL     1      10.091   2.046   0.288  1.00  0.00     0.010 C 
HETATM   35  C   UNL     1       9.339   2.416  -0.990  1.00  0.00     0.012 C 
HETATM   36  C   UNL     1      11.335   2.917   0.448  1.00  0.00     0.012 C 
ENDBRANCH  13  34
BRANCH  18  37
HETATM   37  C   UNL     1      14.684  -4.271  -1.009  1.00  0.00     0.016 C 
HETATM   38  C   UNL     1      14.988  -4.939  -2.350  1.00  0.00     0.012 C 
HETATM   39  C   UNL     1      14.287  -2.811  -1.216  1.00  0.00     0.012 C 
ENDBRANCH  18  37
BRANCH  17  40
HETATM   40  C   UNL     1      11.495   0.250   4.495  1.00  0.00     0.016 C 
HETATM   41  C   UNL     1      11.983  -0.151   5.885  1.00  0.00     0.012 C 
HETATM   42  C   UNL     1      10.170   1.004   4.587  1.00  0.00     0.012 C 
ENDBRANCH  17  40
BRANCH  15  43
HETATM   43  C   UNL     1      13.772  -4.908   4.514  1.00  0.00     0.010 C 
HETATM   44  C   UNL     1      13.531  -6.342   4.049  1.00  0.00     0.012 C 
HETATM   45  C   UNL     1      15.069  -4.811   5.311  1.00  0.00     0.012 C 
ENDBRANCH  15  43
TORSDOF 6
ENDMDL
MODEL 5
REMARK VINA RESULT:    -9.708      2.282      7.026
REMARK INTER + INTRA:          -6.914
REMARK INTER:                  -9.960
REMARK INTRA:                   3.046
REMARK UNBOUND:                 6.200
REMARK  6 active torsions:
REMARK  status: ('A' for Active; 'I' for Inactive)
REMARK    1  A    between atoms: C_13  and  C_16 
REMARK    2  A    between atoms: C_14  and  C_17 
REMARK    3  A    between atoms: C_15  and  C_18 
REMARK    4  A    between atoms: C_19  and  C_22 
REMARK    5  A    between atoms: C_20  and  C_23 
REMARK    6  A    between atoms: C_21  and  C_24 
ROOT
HETATM    1  O   UNL     1      12.952  -7.377   0.573  1.00  0.00    -0.304 OA
HETATM    2  O   UNL     1      12.052  -2.480   1.987  1.00  0.00    -0.304 OA
HETATM    3  O   UNL     1       8.521  -4.723  -0.217  1.00  0.00    -0.304 OA
HETATM    4  O   UNL     1      11.673  -6.065   2.407  1.00  0.00    -0.270 OA
HETATM    5  O   UNL     1       9.517  -7.500   1.005  1.00  0.00    -0.270 OA
HETATM    6  O   UNL     1       9.137  -1.110   1.624  1.00  0.00    -0.270 OA
HETATM    7  O   UNL     1      12.589  -5.794  -1.065  1.00  0.00    -0.263 OA
HETATM    8  O   UNL     1      10.757  -2.177   3.866  1.00  0.00    -0.263 OA
HETATM    9  O   UNL     1       6.649  -3.993  -1.329  1.00  0.00    -0.263 OA
HETATM   10  N   UNL     1      13.352  -4.563   2.931  1.00  0.00    -0.340 N 
HETATM   11  N   UNL     1      10.073  -7.108  -1.214  1.00  0.00    -0.340 N 
HETATM   12  N   UNL     1       9.751  -2.339  -0.254  1.00  0.00    -0.340 N 
HETATM   13  C   UNL     1      12.465  -3.878   3.895  1.00  0.00     0.190 C 
HETATM   14  C   UNL     1      11.327  -7.875  -1.063  1.00  0.00     0.190 C 
HETATM   15  C   UNL     1       8.368  -2.388  -0.774  1.00  0.00     0.190 C 
HETATM   16  C   UNL     1      13.775  -6.466   1.335  1.00  0.00     0.227 C 
HETATM   17  C   UNL     1      11.496  -1.371   1.261  1.00  0.00     0.227 C 
HETATM   18  C   UNL     1       8.022  -6.074  -0.200  1.00  0.00     0.227 C 
HETATM   19  C   UNL     1      12.841  -5.684   2.262  1.00  0.00     0.250 C 
HETATM   20  C   UNL     1       9.261  -6.958  -0.075  1.00  0.00     0.250 C 
HETATM   21  C   UNL     1      10.018  -1.596   0.909  1.00  0.00     0.250 C 
HETATM   22  C   UNL     1      12.359  -6.883  -0.555  1.00  0.00     0.283 C 
HETATM   23  C   UNL     1      11.645  -2.761   3.254  1.00  0.00     0.283 C 
HETATM   24  C   UNL     1       7.747  -3.782  -0.824  1.00  0.00     0.283 C 
HETATM   25  C   UNL     1      14.688  -4.002   2.711  1.00  0.00     0.153 C 
HETATM   26  C   UNL     1       9.779  -6.527  -2.527  1.00  0.00     0.153 C 
HETATM   27  C   UNL     1      10.806  -2.925  -1.082  1.00  0.00     0.153 C 
ENDROOT
BRANCH  16  28
HETATM   28  C   UNL     1      14.743  -7.318   2.141  1.00  0.00     0.016 C 
HETATM   29  C   UNL     1      14.168  -7.630   3.522  1.00  0.00     0.012 C 
HETATM   30  C   UNL     1      15.075  -8.611   1.397  1.00  0.00     0.012 C 
ENDBRANCH  16  28
BRANCH  14  31
HETATM   31  C   UNL     1      11.838  -8.571  -2.318  1.00  0.00     0.010 C 
HETATM   32  C   UNL     1      13.237  -9.139  -2.084  1.00  0.00     0.012 C 
HETATM   33  C   UNL     1      10.877  -9.675  -2.750  1.00  0.00     0.012 C 
ENDBRANCH  14  31
BRANCH  13  34
HETATM   34  C   UNL     1      13.193  -3.341   5.127  1.00  0.00     0.010 C 
HETATM   35  C   UNL     1      13.935  -2.047   4.794  1.00  0.00     0.012 C 
HETATM   36  C   UNL     1      14.161  -4.385   5.682  1.00  0.00     0.012 C 
ENDBRANCH  13  34
BRANCH  18  37
HETATM   37  C   UNL     1       7.090  -6.236   0.998  1.00  0.00     0.016 C 
HETATM   38  C   UNL     1       5.638  -6.363   0.537  1.00  0.00     0.012 C 
HETATM   39  C   UNL     1       7.493  -7.448   1.836  1.00  0.00     0.012 C 
ENDBRANCH  18  37
BRANCH  17  40
HETATM   40  C   UNL     1      11.736  -0.044   1.981  1.00  0.00     0.016 C 
HETATM   41  C   UNL     1      11.114   1.112   1.200  1.00  0.00     0.012 C 
HETATM   42  C   UNL     1      13.230   0.192   2.190  1.00  0.00     0.012 C 
ENDBRANCH  17  40
BRANCH  15  43
HETATM   43  C   UNL     1       8.264  -1.705  -2.139  1.00  0.00     0.010 C 
HETATM   44  C   UNL     1       6.850  -1.177  -2.364  1.00  0.00     0.012 C 
HETATM   45  C   UNL     1       9.285  -0.578  -2.251  1.00  0.00     0.012 C 
ENDBRANCH  15  43
TORSDOF 6
ENDMDL
MODEL 6
REMARK VINA RESULT:    -9.043      1.906      8.037
REMARK INTER + INTRA:          -6.015
REMARK INTER:                  -7.589
REMARK INTRA:                   1.573
REMARK UNBOUND:                 6.200
REMARK  6 active torsions:
REMARK  status: ('A' for Active; 'I' for Inactive)
REMARK    1  A    between atoms: C_13  and  C_16 
REMARK    2  A    between atoms: C_14  and  C_17 
REMARK    3  A    between atoms: C_15  and  C_18 
REMARK    4  A    between atoms: C_19  and  C_22 
REMARK    5  A    between atoms: C_20  and  C_23 
REMARK    6  A    between atoms: C_21  and  C_24 
ROOT
HETATM    1  O   UNL     1       9.931  -0.177  -0.502  1.00  0.00    -0.304 OA
HETATM    2  O   UNL     1      12.824   0.060   3.782  1.00  0.00    -0.304 OA
HETATM    3  O   UNL     1      13.232  -3.863   1.175  1.00  0.00    -0.304 OA
HETATM    4  O   UNL     1      12.393   0.252   0.184  1.00  0.00    -0.270 OA
HETATM    5  O   UNL     1      12.588  -2.182  -1.462  1.00  0.00    -0.270 OA
HETATM    6  O   UNL     1      14.998  -2.235   4.500  1.00  0.00    -0.270 OA
HETATM    7  O   UNL     1       9.534  -1.688   1.194  1.00  0.00    -0.263 OA
HETATM    8  O   UNL     1      15.055   0.551   3.488  1.00  0.00    -0.263 OA
HETATM    9  O   UNL     1      14.006  -5.977   1.630  1.00  0.00    -0.263 OA
HETATM   10  N   UNL     1      11.972   1.716   1.924  1.00  0.00    -0.340 N 
HETATM   11  N   UNL     1      10.840  -3.450  -0.613  1.00  0.00    -0.340 N 
HETATM   12  N   UNL     1      12.994  -3.150   3.750  1.00  0.00    -0.340 N 
HETATM   13  C   UNL     1      13.415   1.797   2.232  1.00  0.00     0.190 C 
HETATM   14  C   UNL     1       9.854  -2.460  -1.091  1.00  0.00     0.190 C 
HETATM   15  C   UNL     1      13.605  -4.467   3.474  1.00  0.00     0.190 C 
HETATM   16  C   UNL     1      10.106   0.905   0.439  1.00  0.00     0.227 C 
HETATM   17  C   UNL     1      13.035  -0.893   4.838  1.00  0.00     0.227 C 
HETATM   18  C   UNL     1      13.226  -4.136  -0.239  1.00  0.00     0.227 C 
HETATM   19  C   UNL     1      11.584   0.922   0.836  1.00  0.00     0.250 C 
HETATM   20  C   UNL     1      12.201  -3.170  -0.830  1.00  0.00     0.250 C 
HETATM   21  C   UNL     1      13.776  -2.144   4.343  1.00  0.00     0.250 C 
HETATM   22  C   UNL     1       9.735  -1.426   0.015  1.00  0.00     0.283 C 
HETATM   23  C   UNL     1      13.870   0.726   3.222  1.00  0.00     0.283 C 
HETATM   24  C   UNL     1      13.629  -4.870   2.001  1.00  0.00     0.283 C 
HETATM   25  C   UNL     1      11.044   2.438   2.799  1.00  0.00     0.153 C 
HETATM   26  C   UNL     1      10.336  -4.637   0.085  1.00  0.00     0.153 C 
HETATM   27  C   UNL     1      11.549  -3.020   3.554  1.00  0.00     0.153 C 
ENDROOT
BRANCH  16  28
HETATM   28  C   UNL     1       9.728   2.187  -0.289  1.00  0.00     0.016 C 
HETATM   29  C   UNL     1       9.784   1.984  -1.802  1.00  0.00     0.012 C 
HETATM   30  C   UNL     1       8.339   2.661   0.136  1.00  0.00     0.012 C 
ENDBRANCH  16  28
BRANCH  14  31
HETATM   31  C   UNL     1       8.478  -3.008  -1.449  1.00  0.00     0.010 C 
HETATM   32  C   UNL     1       7.464  -1.872  -1.576  1.00  0.00     0.012 C 
HETATM   33  C   UNL     1       8.541  -3.816  -2.743  1.00  0.00     0.012 C 
ENDBRANCH  14  31
BRANCH  13  34
HETATM   34  C   UNL     1      13.865   3.173   2.719  1.00  0.00     0.010 C 
HETATM   35  C   UNL     1      15.075   3.659   1.921  1.00  0.00     0.012 C 
HETATM   36  C   UNL     1      14.188   3.140   4.212  1.00  0.00     0.012 C 
ENDBRANCH  13  34
BRANCH  18  37
HETATM   37  C   UNL     1      14.625  -3.881  -0.792  1.00  0.00     0.016 C 
HETATM   38  C   UNL     1      14.796  -4.553  -2.155  1.00  0.00     0.012 C 
HETATM   39  C   UNL     1      14.901  -2.383  -0.896  1.00  0.00     0.012 C 
ENDBRANCH  18  37
BRANCH  17  40
HETATM   40  C   UNL     1      13.703  -0.254   6.055  1.00  0.00     0.016 C 
HETATM   41  C   UNL     1      13.974  -1.302   7.132  1.00  0.00     0.012 C 
HETATM   42  C   UNL     1      12.839   0.877   6.611  1.00  0.00     0.012 C 
ENDBRANCH  17  40
BRANCH  15  43
HETATM   43  C   UNL     1      12.962  -5.567   4.320  1.00  0.00     0.010 C 
HETATM   44  C   UNL     1      11.742  -6.143   3.607  1.00  0.00     0.012 C 
HETATM   45  C   UNL     1      13.976  -6.665   4.627  1.00  0.00     0.012 C 
ENDBRANCH  15  43
TORSDOF 6
ENDMDL
MODEL 7
REMARK VINA RESULT:    -7.970      2.685      4.955
REMARK INTER + INTRA:          -4.566
REMARK INTER:                  -7.667
REMARK INTRA:                   3.101
REMARK UNBOUND:                 6.200
REMARK  6 active torsions:
REMARK  status: ('A' for Active; 'I' for Inactive)
REMARK    1  A    between atoms: C_13  and  C_16 
REMARK    2  A    between atoms: C_14  and  C_17 
REMARK    3  A    between atoms: C_15  and  C_18 
REMARK    4  A    between atoms: C_19  and  C_22 
REMARK    5  A    between atoms: C_20  and  C_23 
REMARK    6  A    between atoms: C_21  and  C_24 
ROOT
HETATM    1  O   UNL     1       9.988  -7.064   1.980  1.00  0.00    -0.304 OA
HETATM    2  O   UNL     1       8.580  -3.053  -0.972  1.00  0.00    -0.304 OA
HETATM    3  O   UNL     1      13.224  -3.838  -0.554  1.00  0.00    -0.304 OA
HETATM    4  O   UNL     1       9.787  -6.447  -0.530  1.00  0.00    -0.270 OA
HETATM    5  O   UNL     1      12.669  -6.963  -0.213  1.00  0.00    -0.270 OA
HETATM    6  O   UNL     1      10.749  -1.335  -2.660  1.00  0.00    -0.270 OA
HETATM    7  O   UNL     1      10.577  -4.935   2.640  1.00  0.00    -0.263 OA
HETATM    8  O   UNL     1       8.677  -3.372  -3.250  1.00  0.00    -0.263 OA
HETATM    9  O   UNL     1      15.075  -2.524  -0.902  1.00  0.00    -0.263 OA
HETATM   10  N   UNL     1       7.693  -5.470  -0.434  1.00  0.00    -0.340 N 
HETATM   11  N   UNL     1      13.132  -5.794   1.738  1.00  0.00    -0.340 N 
HETATM   12  N   UNL     1      11.497  -1.785  -0.503  1.00  0.00    -0.340 N 
HETATM   13  C   UNL     1       7.766  -5.127  -1.870  1.00  0.00     0.190 C 
HETATM   14  C   UNL     1      12.255  -6.693   2.517  1.00  0.00     0.190 C 
HETATM   15  C   UNL     1      12.901  -1.470  -0.837  1.00  0.00     0.190 C 
HETATM   16  C   UNL     1       8.671  -6.626   1.579  1.00  0.00     0.227 C 
HETATM   17  C   UNL     1       9.044  -1.693  -1.007  1.00  0.00     0.227 C 
HETATM   18  C   UNL     1      14.040  -5.021  -0.471  1.00  0.00     0.227 C 
HETATM   19  C   UNL     1       8.771  -6.173   0.120  1.00  0.00     0.250 C 
HETATM   20  C   UNL     1      13.224  -6.015   0.352  1.00  0.00     0.250 C 
HETATM   21  C   UNL     1      10.502  -1.595  -1.479  1.00  0.00     0.250 C 
HETATM   22  C   UNL     1      10.859  -6.103   2.410  1.00  0.00     0.283 C 
HETATM   23  C   UNL     1       8.407  -3.763  -2.120  1.00  0.00     0.283 C 
HETATM   24  C   UNL     1      13.864  -2.653  -0.757  1.00  0.00     0.283 C 
HETATM   25  C   UNL     1       6.518  -5.021   0.318  1.00  0.00     0.153 C 
HETATM   26  C   UNL     1      13.816  -4.714   2.455  1.00  0.00     0.153 C 
HETATM   27  C   UNL     1      11.190  -2.112   0.891  1.00  0.00     0.153 C 
ENDROOT
BRANCH  16  28
HETATM   28  C   UNL     1       7.749  -7.829   1.707  1.00  0.00     0.016 C 
HETATM   29  C   UNL     1       6.650  -7.559   2.734  1.00  0.00     0.012 C 
HETATM   30  C   UNL     1       7.138  -8.189   0.353  1.00  0.00     0.012 C 
ENDBRANCH  16  28
BRANCH  14  31
HETATM   31  C   UNL     1      12.633  -6.891   3.979  1.00  0.00     0.010 C 
HETATM   32  C   UNL     1      11.560  -7.700   4.706  1.00  0.00     0.012 C 
HETATM   33  C   UNL     1      13.992  -7.577   4.095  1.00  0.00     0.012 C 
ENDBRANCH  14  31
BRANCH  13  34
HETATM   34  C   UNL     1       6.420  -5.203  -2.591  1.00  0.00     0.010 C 
HETATM   35  C   UNL     1       5.342  -4.462  -1.801  1.00  0.00     0.012 C 
HETATM   36  C   UNL     1       6.011  -6.656  -2.820  1.00  0.00     0.012 C 
ENDBRANCH  13  34
BRANCH  18  37
HETATM   37  C   UNL     1      14.299  -5.537  -1.884  1.00  0.00     0.016 C 
HETATM   38  C   UNL     1      15.075  -6.853  -1.844  1.00  0.00     0.012 C 
HETATM   39  C   UNL     1      12.986  -5.713  -2.644  1.00  0.00     0.012 C 
ENDBRANCH  18  37
BRANCH  17  40
HETATM   40  C   UNL     1       8.103  -0.793  -1.808  1.00  0.00     0.016 C 
HETATM   41  C   UNL     1       8.377   0.678  -1.503  1.00  0.00     0.012 C 
HETATM   42  C   UNL     1       6.646  -1.140  -1.513  1.00  0.00     0.012 C 
ENDBRANCH  17  40
BRANCH  15  43
HETATM   43  C   UNL     1      13.422  -0.299  -0.003  1.00  0.00     0.010 C 
HETATM   44  C   UNL     1      14.599   0.374  -0.705  1.00  0.00     0.012 C 
HETATM   45  C   UNL     1      12.305   0.707   0.260  1.00  0.00     0.012 C 
ENDBRANCH  15  43
TORSDOF 6
ENDMDL
