MODEL 1
REMARK VINA RESULT:    -6.672      0.000      0.000
REMARK INTER + INTRA:          -7.248
REMARK INTER:                  -8.201
REMARK INTRA:                   0.953
REMARK UNBOUND:                 2.544
REMARK  8 active torsions:
REMARK  status: ('A' for Active; 'I' for Inactive)
REMARK    1  A    between atoms: C_13  and  C_15 
REMARK    2  A    between atoms: C_14  and  C_16 
REMARK    3  A    between atoms: C_15  and  C_22 
REMARK    4  A    between atoms: C_16  and  C_23 
REMARK    5  A    between atoms: C_17  and  C_21 
REMARK    6  A    between atoms: C_18  and  C_24 
REMARK    7  A    between atoms: C_19  and  C_27 
REMARK    8  A    between atoms: C_20  and  C_30 
ROOT
HETATM    1  O   UNL     1       6.843  -1.370 -24.889  1.00  0.00    -0.304 OA
HETATM    2  O   UNL     1       8.504   2.615 -22.697  1.00  0.00    -0.304 OA
HETATM    3  O   UNL     1      11.443  -0.145 -23.128  1.00  0.00    -0.304 OA
HETATM    4  O   UNL     1       8.305   0.784 -25.290  1.00  0.00    -0.270 OA
HETATM    5  O   UNL     1       7.069  -1.341 -22.592  1.00  0.00    -0.263 OA
HETATM    6  O   UNL     1      10.358  -1.771 -24.828  1.00  0.00    -0.270 OA
HETATM    7  O   UNL     1       8.680   4.880 -23.068  1.00  0.00    -0.263 OA
HETATM    8  O   UNL     1      10.255   4.505 -20.405  1.00  0.00    -0.270 OA
HETATM    9  O   UNL     1      12.263   0.619 -21.111  1.00  0.00    -0.263 OA
HETATM   10  N   UNL     1       6.700   2.317 -24.616  1.00  0.00    -0.340 N 
HETATM   11  N   UNL     1       9.327  -2.929 -23.101  1.00  0.00    -0.340 N 
HETATM   12  N   UNL     1      11.530   3.203 -21.839  1.00  0.00    -0.340 N 
HETATM   13  C   UNL     1       7.643   3.454 -24.745  1.00  0.00     0.190 C 
HETATM   14  C   UNL     1       8.104  -3.110 -23.907  1.00  0.00     0.190 C 
HETATM   15  C   UNL     1       6.128  -0.119 -24.871  1.00  0.00     0.227 C 
HETATM   16  C   UNL     1      11.642   2.173 -22.893  1.00  0.00     0.190 C 
HETATM   17  C   UNL     1      11.339  -1.509 -22.667  1.00  0.00     0.227 C 
HETATM   18  C   UNL     1       9.105   2.641 -21.398  1.00  0.00     0.227 C 
HETATM   19  C   UNL     1       7.144   1.027 -24.941  1.00  0.00     0.250 C 
HETATM   20  C   UNL     1       7.283  -1.847 -23.685  1.00  0.00     0.283 C 
HETATM   21  C   UNL     1      10.323  -2.098 -23.636  1.00  0.00     0.250 C 
HETATM   22  C   UNL     1       8.297   3.764 -23.398  1.00  0.00     0.283 C 
HETATM   23  C   UNL     1      10.338   3.546 -21.180  1.00  0.00     0.250 C 
HETATM   24  C   UNL     1      11.837   0.814 -22.240  1.00  0.00     0.283 C 
HETATM   25  C   UNL     1       5.372   2.628 -24.078  1.00  0.00     0.153 C 
HETATM   26  C   UNL     1       9.377  -3.493 -21.750  1.00  0.00     0.153 C 
HETATM   27  C   UNL     1      12.749   3.916 -21.457  1.00  0.00     0.153 C 
ENDROOT
BRANCH  15  28
HETATM   28  C   UNL     1       5.232  -0.101 -26.103  1.00  0.00     0.016 C 
HETATM   29  C   UNL     1       6.062   0.085 -27.371  1.00  0.00     0.012 C 
HETATM   30  C   UNL     1       4.406  -1.384 -26.188  1.00  0.00     0.012 C 
ENDBRANCH  15  28
BRANCH  14  31
HETATM   31  C   UNL     1       7.258  -4.336 -23.592  1.00  0.00     0.014 C 
HETATM   32  C   UNL     1       5.810  -4.088 -24.021  1.00  0.00     0.012 C 
BRANCH  31  33
HETATM   33  C   UNL     1       7.794  -5.607 -24.275  1.00  0.00     0.002 C 
HETATM   34  C   UNL     1       7.261  -6.897 -23.665  1.00  0.00     0.005 C 
ENDBRANCH  31  33
ENDBRANCH  14  31
BRANCH  13  35
HETATM   35  C   UNL     1       7.010   4.701 -25.361  1.00  0.00     0.014 C 
HETATM   36  C   UNL     1       6.595   5.673 -24.253  1.00  0.00     0.012 C 
BRANCH  35  37
HETATM   37  C   UNL     1       7.953   5.411 -26.349  1.00  0.00     0.002 C 
HETATM   38  C   UNL     1       8.893   4.464 -27.080  1.00  0.00     0.005 C 
ENDBRANCH  35  37
ENDBRANCH  13  35
BRANCH  17  39
HETATM   39  C   UNL     1      12.678  -2.211 -22.799  1.00  0.00     0.016 C 
HETATM   40  C   UNL     1      13.271  -1.980 -24.187  1.00  0.00     0.012 C 
HETATM   41  C   UNL     1      12.530  -3.706 -22.521  1.00  0.00     0.012 C 
ENDBRANCH  17  39
BRANCH  18  42
HETATM   42  C   UNL     1       8.001   2.946 -20.385  1.00  0.00     0.016 C 
HETATM   43  C   UNL     1       6.664   2.373 -20.855  1.00  0.00     0.012 C 
HETATM   44  C   UNL     1       8.365   2.395 -19.008  1.00  0.00     0.012 C 
ENDBRANCH  18  42
BRANCH  16  45
HETATM   45  C   UNL     1      12.741   2.420 -23.925  1.00  0.00     0.010 C 
HETATM   46  C   UNL     1      12.180   2.329 -25.344  1.00  0.00     0.012 C 
HETATM   47  C   UNL     1      13.889   1.429 -23.740  1.00  0.00     0.012 C 
ENDBRANCH  16  45
TORSDOF 8
ENDMDL
MODEL 2
REMARK VINA RESULT:    -5.461      5.063     10.055
REMARK INTER + INTRA:          -5.471
REMARK INTER:                  -7.683
REMARK INTRA:                   2.212
REMARK UNBOUND:                 2.544
REMARK  8 active torsions:
REMARK  status: ('A' for Active; 'I' for Inactive)
REMARK    1  A    between atoms: C_13  and  C_15 
REMARK    2  A    between atoms: C_14  and  C_16 
REMARK    3  A    between atoms: C_15  and  C_22 
REMARK    4  A    between atoms: C_16  and  C_23 
REMARK    5  A    between atoms: C_17  and  C_21 
REMARK    6  A    between atoms: C_18  and  C_24 
REMARK    7  A    between atoms: C_19  and  C_27 
REMARK    8  A    between atoms: C_20  and  C_30 
ROOT
HETATM    1  O   UNL     1       6.323   6.731 -24.624  1.00  0.00    -0.304 OA
HETATM    2  O   UNL     1      11.082   7.625 -24.627  1.00  0.00    -0.304 OA
HETATM    3  O   UNL     1       8.997  10.834 -23.287  1.00  0.00    -0.304 OA
HETATM    4  O   UNL     1       8.410   6.964 -23.033  1.00  0.00    -0.270 OA
HETATM    5  O   UNL     1       7.257   7.935 -26.358  1.00  0.00    -0.263 OA
HETATM    6  O   UNL     1       6.672   9.775 -22.854  1.00  0.00    -0.270 OA
HETATM    7  O   UNL     1      13.028   6.780 -23.735  1.00  0.00    -0.263 OA
HETATM    8  O   UNL     1      13.998   9.397 -25.122  1.00  0.00    -0.270 OA
HETATM    9  O   UNL     1      10.607  12.130 -24.310  1.00  0.00    -0.263 OA
HETATM   10  N   UNL     1       9.738   5.399 -24.115  1.00  0.00    -0.340 N 
HETATM   11  N   UNL     1       6.071  10.128 -25.067  1.00  0.00    -0.340 N 
HETATM   12  N   UNL     1      12.530  10.268 -23.552  1.00  0.00    -0.340 N 
HETATM   13  C   UNL     1      10.903   5.699 -23.250  1.00  0.00     0.190 C 
HETATM   14  C   UNL     1       5.364   8.833 -25.117  1.00  0.00     0.190 C 
HETATM   15  C   UNL     1       7.323   5.701 -24.752  1.00  0.00     0.227 C 
HETATM   16  C   UNL     1      11.223  10.260 -22.862  1.00  0.00     0.190 C 
HETATM   17  C   UNL     1       7.914  11.450 -24.016  1.00  0.00     0.227 C 
HETATM   18  C   UNL     1      11.711   8.689 -25.348  1.00  0.00     0.227 C 
HETATM   19  C   UNL     1       8.533   6.084 -23.893  1.00  0.00     0.250 C 
HETATM   20  C   UNL     1       6.430   7.804 -25.466  1.00  0.00     0.283 C 
HETATM   21  C   UNL     1       6.817  10.399 -23.911  1.00  0.00     0.250 C 
HETATM   22  C   UNL     1      11.819   6.724 -23.919  1.00  0.00     0.283 C 
HETATM   23  C   UNL     1      12.855   9.465 -24.658  1.00  0.00     0.250 C 
HETATM   24  C   UNL     1      10.276  11.205 -23.584  1.00  0.00     0.283 C 
HETATM   25  C   UNL     1       9.961   4.442 -25.204  1.00  0.00     0.153 C 
HETATM   26  C   UNL     1       6.077  10.979 -26.259  1.00  0.00     0.153 C 
HETATM   27  C   UNL     1      13.559  11.176 -23.044  1.00  0.00     0.153 C 
ENDROOT
BRANCH  15  28
HETATM   28  C   UNL     1       6.700   4.410 -24.236  1.00  0.00     0.016 C 
HETATM   29  C   UNL     1       5.321   4.678 -23.637  1.00  0.00     0.012 C 
HETATM   30  C   UNL     1       6.606   3.372 -25.353  1.00  0.00     0.012 C 
ENDBRANCH  15  28
BRANCH  14  31
HETATM   31  C   UNL     1       4.205   8.728 -26.099  1.00  0.00     0.014 C 
HETATM   32  C   UNL     1       4.659   7.980 -27.355  1.00  0.00     0.012 C 
BRANCH  31  33
HETATM   33  C   UNL     1       2.981   8.025 -25.487  1.00  0.00     0.002 C 
HETATM   34  C   UNL     1       3.007   7.971 -23.965  1.00  0.00     0.005 C 
ENDBRANCH  31  33
ENDBRANCH  14  31
BRANCH  13  35
HETATM   35  C   UNL     1      11.677   4.453 -22.821  1.00  0.00     0.014 C 
HETATM   36  C   UNL     1      12.859   4.856 -21.934  1.00  0.00     0.012 C 
BRANCH  35  37
HETATM   37  C   UNL     1      10.791   3.438 -22.077  1.00  0.00     0.002 C 
HETATM   38  C   UNL     1      11.455   2.084 -21.872  1.00  0.00     0.005 C 
ENDBRANCH  35  37
ENDBRANCH  13  35
BRANCH  17  39
HETATM   39  C   UNL     1       7.491  12.740 -23.336  1.00  0.00     0.016 C 
HETATM   40  C   UNL     1       7.605  12.609 -21.820  1.00  0.00     0.012 C 
HETATM   41  C   UNL     1       6.065  13.114 -23.737  1.00  0.00     0.012 C 
ENDBRANCH  17  39
BRANCH  18  42
HETATM   42  C   UNL     1      12.152   8.131 -26.702  1.00  0.00     0.016 C 
HETATM   43  C   UNL     1      13.370   7.221 -26.541  1.00  0.00     0.012 C 
HETATM   44  C   UNL     1      11.006   7.377 -27.374  1.00  0.00     0.012 C 
ENDBRANCH  18  42
BRANCH  16  45
HETATM   45  C   UNL     1      11.275  10.605 -21.375  1.00  0.00     0.010 C 
HETATM   46  C   UNL     1      10.169   9.876 -20.613  1.00  0.00     0.012 C 
HETATM   47  C   UNL     1      11.162  12.115 -21.166  1.00  0.00     0.012 C 
ENDBRANCH  16  45
TORSDOF 8
ENDMDL
MODEL 3
REMARK VINA RESULT:    -5.003      1.976      4.848
REMARK INTER + INTRA:          -4.798
REMARK INTER:                  -6.194
REMARK INTRA:                   1.396
REMARK UNBOUND:                 2.544
REMARK  8 active torsions:
REMARK  status: ('A' for Active; 'I' for Inactive)
REMARK    1  A    between atoms: C_13  and  C_15 
REMARK    2  A    between atoms: C_14  and  C_16 
REMARK    3  A    between atoms: C_15  and  C_22 
REMARK    4  A    between atoms: C_16  and  C_23 
REMARK    5  A    between atoms: C_17  and  C_21 
REMARK    6  A    between atoms: C_18  and  C_24 
REMARK    7  A    between atoms: C_19  and  C_27 
REMARK    8  A    between atoms: C_20  and  C_30 
ROOT
HETATM    1  O   UNL     1      10.093  -3.305 -24.752  1.00  0.00    -0.304 OA
HETATM    2  O   UNL     1       7.349   0.593 -23.898  1.00  0.00    -0.304 OA
HETATM    3  O   UNL     1      11.034   1.662 -25.209  1.00  0.00    -0.304 OA
HETATM    4  O   UNL     1       8.714  -1.411 -25.957  1.00  0.00    -0.270 OA
HETATM    5  O   UNL     1      10.347  -2.141 -22.775  1.00  0.00    -0.263 OA
HETATM    6  O   UNL     1      11.919  -0.598 -26.115  1.00  0.00    -0.270 OA
HETATM    7  O   UNL     1       5.339   1.503 -24.553  1.00  0.00    -0.263 OA
HETATM    8  O   UNL     1       6.550   3.749 -22.763  1.00  0.00    -0.270 OA
HETATM    9  O   UNL     1      10.846   3.489 -23.812  1.00  0.00    -0.263 OA
HETATM   10  N   UNL     1       6.714  -1.799 -24.848  1.00  0.00    -0.340 N 
HETATM   11  N   UNL     1      12.682  -1.176 -24.001  1.00  0.00    -0.340 N 
HETATM   12  N   UNL     1       8.141   3.644 -24.446  1.00  0.00    -0.340 N 
HETATM   13  C   UNL     1       6.065  -0.626 -25.480  1.00  0.00     0.190 C 
HETATM   14  C   UNL     1      12.273  -2.580 -24.201  1.00  0.00     0.190 C 
HETATM   15  C   UNL     1       8.664  -3.366 -24.575  1.00  0.00     0.227 C 
HETATM   16  C   UNL     1       9.035   2.869 -25.332  1.00  0.00     0.190 C 
HETATM   17  C   UNL     1      12.265   1.215 -24.601  1.00  0.00     0.227 C 
HETATM   18  C   UNL     1       7.681   1.638 -22.979  1.00  0.00     0.227 C 
HETATM   19  C   UNL     1       8.041  -2.104 -25.186  1.00  0.00     0.250 C 
HETATM   20  C   UNL     1      10.806  -2.636 -23.796  1.00  0.00     0.283 C 
HETATM   21  C   UNL     1      12.298  -0.257 -24.989  1.00  0.00     0.250 C 
HETATM   22  C   UNL     1       6.164   0.598 -24.570  1.00  0.00     0.283 C 
HETATM   23  C   UNL     1       7.390   3.097 -23.393  1.00  0.00     0.250 C 
HETATM   24  C   UNL     1      10.400   2.747 -24.675  1.00  0.00     0.283 C 
HETATM   25  C   UNL     1       5.925  -2.520 -23.844  1.00  0.00     0.153 C 
HETATM   26  C   UNL     1      13.324  -0.796 -22.741  1.00  0.00     0.153 C 
HETATM   27  C   UNL     1       8.031   5.083 -24.686  1.00  0.00     0.153 C 
ENDROOT
BRANCH  15  28
HETATM   28  C   UNL     1       8.175  -4.603 -25.316  1.00  0.00     0.016 C 
HETATM   29  C   UNL     1       9.289  -5.187 -26.183  1.00  0.00     0.012 C 
HETATM   30  C   UNL     1       7.657  -5.651 -24.333  1.00  0.00     0.012 C 
ENDBRANCH  15  28
BRANCH  14  31
HETATM   31  C   UNL     1      13.059  -3.633 -23.431  1.00  0.00     0.014 C 
HETATM   32  C   UNL     1      12.172  -4.252 -22.348  1.00  0.00     0.012 C 
BRANCH  31  33
HETATM   33  C   UNL     1      13.609  -4.739 -24.349  1.00  0.00     0.002 C 
HETATM   34  C   UNL     1      12.804  -6.030 -24.298  1.00  0.00     0.005 C 
ENDBRANCH  31  33
ENDBRANCH  14  31
BRANCH  13  35
HETATM   35  C   UNL     1       4.622  -0.889 -25.909  1.00  0.00     0.014 C 
HETATM   36  C   UNL     1       4.311  -0.111 -27.190  1.00  0.00     0.012 C 
BRANCH  35  37
HETATM   37  C   UNL     1       4.338  -2.386 -26.128  1.00  0.00     0.002 C 
HETATM   38  C   UNL     1       3.228  -2.655 -27.134  1.00  0.00     0.005 C 
ENDBRANCH  35  37
ENDBRANCH  13  35
BRANCH  17  39
HETATM   39  C   UNL     1      13.446   1.956 -25.200  1.00  0.00     0.016 C 
HETATM   40  C   UNL     1      14.000   2.975 -24.208  1.00  0.00     0.012 C 
HETATM   41  C   UNL     1      13.043   2.641 -26.505  1.00  0.00     0.012 C 
ENDBRANCH  17  39
BRANCH  18  42
HETATM   42  C   UNL     1       7.030   1.296 -21.638  1.00  0.00     0.016 C 
HETATM   43  C   UNL     1       7.239  -0.179 -21.295  1.00  0.00     0.012 C 
HETATM   44  C   UNL     1       7.581   2.187 -20.527  1.00  0.00     0.012 C 
ENDBRANCH  18  42
BRANCH  16  45
HETATM   45  C   UNL     1       9.182   3.424 -26.747  1.00  0.00     0.010 C 
HETATM   46  C   UNL     1      10.012   4.707 -26.741  1.00  0.00     0.012 C 
HETATM   47  C   UNL     1       7.812   3.677 -27.375  1.00  0.00     0.012 C 
ENDBRANCH  16  45
TORSDOF 8
ENDMDL
MODEL 4
REMARK VINA RESULT:    -4.956      4.132     10.068
REMARK INTER + INTRA:          -4.730
REMARK INTER:                  -6.550
REMARK INTRA:                   1.820
REMARK UNBOUND:                 2.544
REMARK  8 active torsions:
REMARK  status: ('A' for Active; 'I' for Inactive)
REMARK    1  A    between atoms: C_13  and  C_15 
REMARK    2  A    between atoms: C_14  and  C_16 
REMARK    3  A    between atoms: C_15  and  C_22 
REMARK    4  A    between atoms: C_16  and  C_23 
REMARK    5  A    between atoms: C_17  and  C_21 
REMARK    6  A    between atoms: C_18  and  C_24 
REMARK    7  A    between atoms: C_19  and  C_27 
REMARK    8  A    between atoms: C_20  and  C_30 
ROOT
HETATM    1  O   UNL     1      11.569   9.414 -23.560  1.00  0.00    -0.304 OA
HETATM    2  O   UNL     1      10.687   4.653 -23.556  1.00  0.00    -0.304 OA
HETATM    3  O   UNL     1       7.398   6.744 -24.673  1.00  0.00    -0.304 OA
HETATM    4  O   UNL     1      11.244   7.345 -25.157  1.00  0.00    -0.270 OA
HETATM    5  O   UNL     1      10.475   8.457 -21.767  1.00  0.00    -0.263 OA
HETATM    6  O   UNL     1       8.423   9.077 -25.144  1.00  0.00    -0.270 OA
HETATM    7  O   UNL     1      11.480   2.720 -24.521  1.00  0.00    -0.263 OA
HETATM    8  O   UNL     1       8.955   1.726 -22.988  1.00  0.00    -0.270 OA
HETATM    9  O   UNL     1       6.170   5.118 -23.591  1.00  0.00    -0.263 OA
HETATM   10  N   UNL     1      12.875   6.009 -24.189  1.00  0.00    -0.340 N 
HETATM   11  N   UNL     1       8.205   9.652 -22.907  1.00  0.00    -0.340 N 
HETATM   12  N   UNL     1       7.987   3.209 -24.484  1.00  0.00    -0.340 N 
HETATM   13  C   UNL     1      12.525   4.853 -25.047  1.00  0.00     0.190 C 
HETATM   14  C   UNL     1       9.499  10.362 -22.928  1.00  0.00     0.190 C 
HETATM   15  C   UNL     1      12.607   8.416 -23.507  1.00  0.00     0.227 C 
HETATM   16  C   UNL     1       7.949   4.524 -25.158  1.00  0.00     0.190 C 
HETATM   17  C   UNL     1       6.825   7.817 -23.896  1.00  0.00     0.227 C 
HETATM   18  C   UNL     1       9.671   4.013 -22.779  1.00  0.00     0.227 C 
HETATM   19  C   UNL     1      12.175   7.214 -24.355  1.00  0.00     0.250 C 
HETATM   20  C   UNL     1      10.550   9.295 -22.655  1.00  0.00     0.283 C 
HETATM   21  C   UNL     1       7.865   8.918 -24.053  1.00  0.00     0.250 C 
HETATM   22  C   UNL     1      11.545   3.927 -24.327  1.00  0.00     0.283 C 
HETATM   23  C   UNL     1       8.856   2.875 -23.433  1.00  0.00     0.250 C 
HETATM   24  C   UNL     1       7.048   5.460 -24.369  1.00  0.00     0.283 C 
HETATM   25  C   UNL     1      13.897   5.777 -23.163  1.00  0.00     0.153 C 
HETATM   26  C   UNL     1       7.428   9.630 -21.665  1.00  0.00     0.153 C 
HETATM   27  C   UNL     1       7.052   2.184 -24.947  1.00  0.00     0.153 C 
ENDROOT
BRANCH  15  28
HETATM   28  C   UNL     1      13.863   9.048 -24.094  1.00  0.00     0.016 C 
HETATM   29  C   UNL     1      13.850   8.955 -25.619  1.00  0.00     0.012 C 
HETATM   30  C   UNL     1      13.994  10.503 -23.648  1.00  0.00     0.012 C 
ENDBRANCH  15  28
BRANCH  14  31
HETATM   31  C   UNL     1       9.661  11.510 -21.941  1.00  0.00     0.014 C 
HETATM   32  C   UNL     1      11.097  11.536 -21.411  1.00  0.00     0.012 C 
BRANCH  31  33
HETATM   33  C   UNL     1       9.311  12.872 -22.565  1.00  0.00     0.002 C 
HETATM   34  C   UNL     1       8.721  13.864 -21.570  1.00  0.00     0.005 C 
ENDBRANCH  31  33
ENDBRANCH  14  31
BRANCH  13  35
HETATM   35  C   UNL     1      13.744   4.087 -25.560  1.00  0.00     0.014 C 
HETATM   36  C   UNL     1      14.000   2.865 -24.675  1.00  0.00     0.012 C 
BRANCH  35  37
HETATM   37  C   UNL     1      13.585   3.644 -27.025  1.00  0.00     0.002 C 
HETATM   38  C   UNL     1      13.693   2.139 -27.221  1.00  0.00     0.005 C 
ENDBRANCH  35  37
ENDBRANCH  13  35
BRANCH  17  39
HETATM   39  C   UNL     1       5.495   8.244 -24.491  1.00  0.00     0.016 C 
HETATM   40  C   UNL     1       5.624   8.452 -25.998  1.00  0.00     0.012 C 
HETATM   41  C   UNL     1       4.989   9.517 -23.815  1.00  0.00     0.012 C 
ENDBRANCH  17  39
BRANCH  18  42
HETATM   42  C   UNL     1      10.312   3.558 -21.467  1.00  0.00     0.016 C 
HETATM   43  C   UNL     1      11.387   4.549 -21.019  1.00  0.00     0.012 C 
HETATM   44  C   UNL     1       9.253   3.391 -20.378  1.00  0.00     0.012 C 
ENDBRANCH  18  42
BRANCH  16  45
HETATM   45  C   UNL     1       7.514   4.488 -26.622  1.00  0.00     0.010 C 
HETATM   46  C   UNL     1       8.239   3.373 -27.374  1.00  0.00     0.012 C 
HETATM   47  C   UNL     1       7.765   5.837 -27.294  1.00  0.00     0.012 C 
ENDBRANCH  16  45
TORSDOF 8
ENDMDL
MODEL 5
REMARK VINA RESULT:    -4.850      3.204      8.286
REMARK INTER + INTRA:          -4.574
REMARK INTER:                  -7.018
REMARK INTRA:                   2.444
REMARK UNBOUND:                 2.544
REMARK  8 active torsions:
REMARK  status: ('A' for Active; 'I' for Inactive)
REMARK    1  A    between atoms: C_13  and  C_15 
REMARK    2  A    between atoms: C_14  and  C_16 
REMARK    3  A    between atoms: C_15  and  C_22 
REMARK    4  A    between atoms: C_16  and  C_23 
REMARK    5  A    between atoms: C_17  and  C_21 
REMARK    6  A    between atoms: C_18  and  C_24 
REMARK    7  A    between atoms: C_19  and  C_27 
REMARK    8  A    between atoms: C_20  and  C_30 
ROOT
HETATM    1  O   UNL     1       5.871   6.336 -24.237  1.00  0.00    -0.304 OA
HETATM    2  O   UNL     1       9.489   3.166 -24.798  1.00  0.00    -0.304 OA
HETATM    3  O   UNL     1      10.893   6.794 -23.655  1.00  0.00    -0.304 OA
HETATM    4  O   UNL     1       7.576   4.845 -22.890  1.00  0.00    -0.270 OA
HETATM    5  O   UNL     1       7.114   6.355 -26.181  1.00  0.00    -0.263 OA
HETATM    6  O   UNL     1       8.710   7.955 -22.880  1.00  0.00    -0.270 OA
HETATM    7  O   UNL     1      10.167   1.116 -24.001  1.00  0.00    -0.263 OA
HETATM    8  O   UNL     1      12.579   1.987 -25.774  1.00  0.00    -0.270 OA
HETATM    9  O   UNL     1      12.732   6.341 -24.973  1.00  0.00    -0.263 OA
HETATM   10  N   UNL     1       7.017   2.833 -23.900  1.00  0.00    -0.340 N 
HETATM   11  N   UNL     1       8.277   8.647 -25.052  1.00  0.00    -0.340 N 
HETATM   12  N   UNL     1      12.588   3.676 -24.186  1.00  0.00    -0.340 N 
HETATM   13  C   UNL     1       8.097   2.107 -23.192  1.00  0.00     0.190 C 
HETATM   14  C   UNL     1       6.833   8.395 -24.881  1.00  0.00     0.190 C 
HETATM   15  C   UNL     1       5.669   4.912 -24.336  1.00  0.00     0.227 C 
HETATM   16  C   UNL     1      11.883   4.694 -23.379  1.00  0.00     0.190 C 
HETATM   17  C   UNL     1      10.594   8.026 -24.346  1.00  0.00     0.227 C 
HETATM   18  C   UNL     1      10.590   3.337 -25.696  1.00  0.00     0.227 C 
HETATM   19  C   UNL     1       6.840   4.202 -23.648  1.00  0.00     0.250 C 
HETATM   20  C   UNL     1       6.639   6.920 -25.205  1.00  0.00     0.283 C 
HETATM   21  C   UNL     1       9.122   8.231 -24.012  1.00  0.00     0.250 C 
HETATM   22  C   UNL     1       9.352   2.028 -24.062  1.00  0.00     0.283 C 
HETATM   23  C   UNL     1      11.998   2.924 -25.215  1.00  0.00     0.250 C 
HETATM   24  C   UNL     1      11.922   6.024 -24.114  1.00  0.00     0.283 C 
HETATM   25  C   UNL     1       6.249   2.064 -24.885  1.00  0.00     0.153 C 
HETATM   26  C   UNL     1       8.759   9.174 -26.332  1.00  0.00     0.153 C 
HETATM   27  C   UNL     1      14.000   3.436 -23.889  1.00  0.00     0.153 C 
ENDROOT
BRANCH  15  28
HETATM   28  C   UNL     1       4.366   4.596 -23.614  1.00  0.00     0.016 C 
HETATM   29  C   UNL     1       4.642   4.090 -22.199  1.00  0.00     0.012 C 
HETATM   30  C   UNL     1       3.459   5.824 -23.576  1.00  0.00     0.012 C 
ENDBRANCH  15  28
BRANCH  14  31
HETATM   31  C   UNL     1       5.890   9.238 -25.730  1.00  0.00     0.014 C 
HETATM   32  C   UNL     1       4.717   8.378 -26.207  1.00  0.00     0.012 C 
BRANCH  31  33
HETATM   33  C   UNL     1       5.361  10.467 -24.971  1.00  0.00     0.002 C 
HETATM   34  C   UNL     1       5.512  10.362 -23.459  1.00  0.00     0.005 C 
ENDBRANCH  31  33
ENDBRANCH  14  31
BRANCH  13  35
HETATM   35  C   UNL     1       7.674   0.725 -22.694  1.00  0.00     0.014 C 
HETATM   36  C   UNL     1       8.840  -0.257 -22.837  1.00  0.00     0.012 C 
BRANCH  35  37
HETATM   37  C   UNL     1       7.192   0.750 -21.233  1.00  0.00     0.002 C 
HETATM   38  C   UNL     1       7.666   1.970 -20.456  1.00  0.00     0.005 C 
ENDBRANCH  35  37
ENDBRANCH  13  35
BRANCH  17  39
HETATM   39  C   UNL     1      11.434   9.159 -23.786  1.00  0.00     0.016 C 
HETATM   40  C   UNL     1      10.556  10.161 -23.040  1.00  0.00     0.012 C 
HETATM   41  C   UNL     1      12.211   9.854 -24.902  1.00  0.00     0.012 C 
ENDBRANCH  17  39
BRANCH  18  42
HETATM   42  C   UNL     1      10.223   2.646 -27.011  1.00  0.00     0.016 C 
HETATM   43  C   UNL     1      10.482   1.142 -26.921  1.00  0.00     0.012 C 
HETATM   44  C   UNL     1       8.765   2.916 -27.374  1.00  0.00     0.012 C 
ENDBRANCH  18  42
BRANCH  16  45
HETATM   45  C   UNL     1      12.407   4.867 -21.955  1.00  0.00     0.010 C 
HETATM   46  C   UNL     1      11.315   4.549 -20.934  1.00  0.00     0.012 C 
HETATM   47  C   UNL     1      12.940   6.284 -21.743  1.00  0.00     0.012 C 
ENDBRANCH  16  45
TORSDOF 8
ENDMDL
MODEL 6
REMARK VINA RESULT:    -4.726      1.836      6.176
REMARK INTER + INTRA:          -4.393
REMARK INTER:                  -6.556
REMARK INTRA:                   2.163
REMARK UNBOUND:                 2.544
REMARK  8 active torsions:
REMARK  status: ('A' for Active; 'I' for Inactive)
REMARK    1  A    between atoms: C_13  and  C_15 
REMARK    2  A    between atoms: C_14  and  C_16 
REMARK    3  A    between atoms: C_15  and  C_22 
REMARK    4  A    between atoms: C_16  and  C_23 
REMARK    5  A    between atoms: C_17  and  C_21 
REMARK    6  A    between atoms: C_18  and  C_24 
REMARK    7  A    between atoms: C_19  and  C_27 
REMARK    8  A    between atoms: C_20  and  C_30 
ROOT
HETATM    1  O   UNL     1      10.538  -2.191 -23.689  1.00  0.00    -0.304 OA
HETATM    2  O   UNL     1      10.655   2.480 -24.962  1.00  0.00    -0.304 OA
HETATM    3  O   UNL     1       6.883   1.005 -25.169  1.00  0.00    -0.304 OA
HETATM    4  O   UNL     1       9.937   0.227 -22.834  1.00  0.00    -0.270 OA
HETATM    5  O   UNL     1      10.545  -1.617 -25.925  1.00  0.00    -0.263 OA
HETATM    6  O   UNL     1       7.141  -1.217 -23.861  1.00  0.00    -0.270 OA
HETATM    7  O   UNL     1      11.288   4.519 -24.102  1.00  0.00    -0.263 OA
HETATM    8  O   UNL     1       9.929   5.309 -26.794  1.00  0.00    -0.270 OA
HETATM    9  O   UNL     1       6.583   2.411 -26.974  1.00  0.00    -0.263 OA
HETATM   10  N   UNL     1      12.045   1.144 -23.143  1.00  0.00    -0.340 N 
HETATM   11  N   UNL     1       7.826  -2.304 -25.793  1.00  0.00    -0.340 N 
HETATM   12  N   UNL     1       8.144   4.324 -25.691  1.00  0.00    -0.340 N 
HETATM   13  C   UNL     1      11.577   2.501 -22.774  1.00  0.00     0.190 C 
HETATM   14  C   UNL     1       8.820  -3.091 -25.038  1.00  0.00     0.190 C 
HETATM   15  C   UNL     1      11.660  -1.326 -23.426  1.00  0.00     0.227 C 
HETATM   16  C   UNL     1       7.569   3.223 -24.890  1.00  0.00     0.190 C 
HETATM   17  C   UNL     1       6.521  -0.175 -25.918  1.00  0.00     0.227 C 
HETATM   18  C   UNL     1      10.223   2.991 -26.227  1.00  0.00     0.227 C 
HETATM   19  C   UNL     1      11.132   0.079 -23.113  1.00  0.00     0.250 C 
HETATM   20  C   UNL     1      10.063  -2.214 -24.971  1.00  0.00     0.283 C 
HETATM   21  C   UNL     1       7.160  -1.285 -25.095  1.00  0.00     0.250 C 
HETATM   22  C   UNL     1      11.205   3.299 -24.024  1.00  0.00     0.283 C 
HETATM   23  C   UNL     1       9.432   4.318 -26.249  1.00  0.00     0.250 C 
HETATM   24  C   UNL     1       6.949   2.199 -25.827  1.00  0.00     0.283 C 
HETATM   25  C   UNL     1      13.437   1.033 -23.590  1.00  0.00     0.153 C 
HETATM   26  C   UNL     1       7.693  -2.524 -27.235  1.00  0.00     0.153 C 
HETATM   27  C   UNL     1       7.310   5.505 -25.914  1.00  0.00     0.153 C 
ENDROOT
BRANCH  15  28
HETATM   28  C   UNL     1      12.387  -1.895 -22.214  1.00  0.00     0.016 C 
HETATM   29  C   UNL     1      11.739  -3.202 -21.762  1.00  0.00     0.012 C 
HETATM   30  C   UNL     1      13.867  -2.112 -22.525  1.00  0.00     0.012 C 
ENDBRANCH  15  28
BRANCH  14  31
HETATM   31  C   UNL     1       9.183  -4.456 -25.609  1.00  0.00     0.014 C 
HETATM   32  C   UNL     1      10.647  -4.774 -25.296  1.00  0.00     0.012 C 
BRANCH  31  33
HETATM   33  C   UNL     1       8.277  -5.576 -25.067  1.00  0.00     0.002 C 
HETATM   34  C   UNL     1       8.105  -5.541 -23.554  1.00  0.00     0.005 C 
ENDBRANCH  31  33
ENDBRANCH  14  31
BRANCH  13  35
HETATM   35  C   UNL     1      12.565   3.266 -21.894  1.00  0.00     0.014 C 
HETATM   36  C   UNL     1      13.541   4.052 -22.773  1.00  0.00     0.012 C 
BRANCH  35  37
HETATM   37  C   UNL     1      11.861   4.223 -20.915  1.00  0.00     0.002 C 
HETATM   38  C   UNL     1      12.734   5.386 -20.467  1.00  0.00     0.005 C 
ENDBRANCH  35  37
ENDBRANCH  13  35
BRANCH  17  39
HETATM   39  C   UNL     1       5.012  -0.332 -25.953  1.00  0.00     0.016 C 
HETATM   40  C   UNL     1       4.602  -1.697 -25.406  1.00  0.00     0.012 C 
HETATM   41  C   UNL     1       4.485  -0.142 -27.374  1.00  0.00     0.012 C 
ENDBRANCH  17  39
BRANCH  18  42
HETATM   42  C   UNL     1      11.448   3.054 -27.141  1.00  0.00     0.016 C 
HETATM   43  C   UNL     1      12.487   4.027 -26.584  1.00  0.00     0.012 C 
HETATM   44  C   UNL     1      12.058   1.666 -27.323  1.00  0.00     0.012 C 
ENDBRANCH  18  42
BRANCH  16  45
HETATM   45  C   UNL     1       6.550   3.653 -23.837  1.00  0.00     0.010 C 
HETATM   46  C   UNL     1       7.159   3.588 -22.436  1.00  0.00     0.012 C 
HETATM   47  C   UNL     1       5.294   2.786 -23.913  1.00  0.00     0.012 C 
ENDBRANCH  16  45
TORSDOF 8
ENDMDL
MODEL 7
REMARK VINA RESULT:    -4.582      2.048      6.971
REMARK INTER + INTRA:          -4.181
REMARK INTER:                  -6.358
REMARK INTRA:                   2.176
REMARK UNBOUND:                 2.544
REMARK  8 active torsions:
REMARK  status: ('A' for Active; 'I' for Inactive)
REMARK    1  A    between atoms: C_13  and  C_15 
REMARK    2  A    between atoms: C_14  and  C_16 
REMARK    3  A    between atoms: C_15  and  C_22 
REMARK    4  A    between atoms: C_16  and  C_23 
REMARK    5  A    between atoms: C_17  and  C_21 
REMARK    6  A    between atoms: C_18  and  C_24 
REMARK    7  A    between atoms: C_19  and  C_27 
REMARK    8  A    between atoms: C_20  and  C_30 
ROOT
HETATM    1  O   UNL     1      12.094   3.461 -23.452  1.00  0.00    -0.304 OA
HETATM    2  O   UNL     1       8.350   0.394 -23.285  1.00  0.00    -0.304 OA
HETATM    3  O   UNL     1      11.717  -1.482 -24.545  1.00  0.00    -0.304 OA
HETATM    4  O   UNL     1      11.075   1.477 -22.051  1.00  0.00    -0.270 OA
HETATM    5  O   UNL     1      10.957   2.941 -25.393  1.00  0.00    -0.263 OA
HETATM    6  O   UNL     1      13.528   0.259 -23.909  1.00  0.00    -0.270 OA
HETATM    7  O   UNL     1       6.808  -0.413 -21.779  1.00  0.00    -0.263 OA
HETATM    8  O   UNL     1       6.242  -2.131 -24.318  1.00  0.00    -0.270 OA
HETATM    9  O   UNL     1      10.338  -2.750 -25.890  1.00  0.00    -0.263 OA
HETATM   10  N   UNL     1       8.989   2.436 -21.720  1.00  0.00    -0.340 N 
HETATM   11  N   UNL     1      13.215   1.359 -25.927  1.00  0.00    -0.340 N 
HETATM   12  N   UNL     1       8.430  -2.751 -23.865  1.00  0.00    -0.340 N 
HETATM   13  C   UNL     1       8.464   1.217 -21.060  1.00  0.00     0.190 C 
HETATM   14  C   UNL     1      13.376   2.673 -25.275  1.00  0.00     0.190 C 
HETATM   15  C   UNL     1      10.862   3.752 -22.764  1.00  0.00     0.227 C 
HETATM   16  C   UNL     1       9.826  -2.406 -23.525  1.00  0.00     0.190 C 
HETATM   17  C   UNL     1      12.524  -1.028 -25.652  1.00  0.00     0.227 C 
HETATM   18  C   UNL     1       7.855  -0.349 -24.403  1.00  0.00     0.227 C 
HETATM   19  C   UNL     1      10.323   2.453 -22.153  1.00  0.00     0.250 C 
HETATM   20  C   UNL     1      11.993   3.035 -24.748  1.00  0.00     0.283 C 
HETATM   21  C   UNL     1      13.159   0.236 -25.088  1.00  0.00     0.250 C 
HETATM   22  C   UNL     1       7.736   0.331 -22.071  1.00  0.00     0.283 C 
HETATM   23  C   UNL     1       7.429  -1.817 -24.175  1.00  0.00     0.250 C 
HETATM   24  C   UNL     1      10.628  -2.261 -24.809  1.00  0.00     0.283 C 
HETATM   25  C   UNL     1       8.031   3.525 -21.937  1.00  0.00     0.153 C 
HETATM   26  C   UNL     1      12.979   1.309 -27.372  1.00  0.00     0.153 C 
HETATM   27  C   UNL     1       8.067  -4.168 -23.876  1.00  0.00     0.153 C 
ENDROOT
BRANCH  15  28
HETATM   28  C   UNL     1      11.192   4.752 -21.664  1.00  0.00     0.016 C 
HETATM   29  C   UNL     1      12.437   4.316 -20.895  1.00  0.00     0.012 C 
HETATM   30  C   UNL     1      11.385   6.151 -22.246  1.00  0.00     0.012 C 
ENDBRANCH  15  28
BRANCH  14  31
HETATM   31  C   UNL     1      13.907   3.805 -26.144  1.00  0.00     0.014 C 
HETATM   32  C   UNL     1      13.013   3.974 -27.375  1.00  0.00     0.012 C 
BRANCH  31  33
HETATM   33  C   UNL     1      14.000   5.136 -25.379  1.00  0.00     0.002 C 
HETATM   34  C   UNL     1      13.031   6.197 -25.882  1.00  0.00     0.005 C 
ENDBRANCH  31  33
ENDBRANCH  14  31
BRANCH  13  35
HETATM   35  C   UNL     1       7.589   1.514 -19.843  1.00  0.00     0.014 C 
HETATM   36  C   UNL     1       8.379   2.343 -18.827  1.00  0.00     0.012 C 
BRANCH  35  37
HETATM   37  C   UNL     1       6.291   2.251 -20.219  1.00  0.00     0.002 C 
HETATM   38  C   UNL     1       5.702   3.068 -19.078  1.00  0.00     0.005 C 
ENDBRANCH  35  37
ENDBRANCH  13  35
BRANCH  17  39
HETATM   39  C   UNL     1      13.586  -2.060 -25.986  1.00  0.00     0.016 C 
HETATM   40  C   UNL     1      13.206  -2.832 -27.247  1.00  0.00     0.012 C 
HETATM   41  C   UNL     1      13.792  -3.016 -24.813  1.00  0.00     0.012 C 
ENDBRANCH  17  39
BRANCH  18  42
HETATM   42  C   UNL     1       6.730   0.468 -25.038  1.00  0.00     0.016 C 
HETATM   43  C   UNL     1       7.021   1.965 -24.929  1.00  0.00     0.012 C 
HETATM   44  C   UNL     1       6.528   0.067 -26.498  1.00  0.00     0.012 C 
ENDBRANCH  18  42
BRANCH  16  45
HETATM   45  C   UNL     1      10.523  -3.384 -22.581  1.00  0.00     0.010 C 
HETATM   46  C   UNL     1      11.650  -2.689 -21.818  1.00  0.00     0.012 C 
HETATM   47  C   UNL     1      11.064  -4.588 -23.352  1.00  0.00     0.012 C 
ENDBRANCH  16  45
TORSDOF 8
ENDMDL
MODEL 8
REMARK VINA RESULT:    -4.527      3.768      8.885
REMARK INTER + INTRA:          -4.099
REMARK INTER:                  -5.890
REMARK INTRA:                   1.791
REMARK UNBOUND:                 2.544
REMARK  8 active torsions:
REMARK  status: ('A' for Active; 'I' for Inactive)
REMARK    1  A    between atoms: C_13  and  C_15 
REMARK    2  A    between atoms: C_14  and  C_16 
REMARK    3  A    between atoms: C_15  and  C_22 
REMARK    4  A    between atoms: C_16  and  C_23 
REMARK    5  A    between atoms: C_17  and  C_21 
REMARK    6  A    between atoms: C_18  and  C_24 
REMARK    7  A    between atoms: C_19  and  C_27 
REMARK    8  A    between atoms: C_20  and  C_30 
ROOT
HETATM    1  O   UNL     1       9.241   9.428 -24.530  1.00  0.00    -0.304 OA
HETATM    2  O   UNL     1       7.556   4.895 -24.769  1.00  0.00    -0.304 OA
HETATM    3  O   UNL     1      10.760   5.131 -22.296  1.00  0.00    -0.304 OA
HETATM    4  O   UNL     1       7.870   7.631 -23.177  1.00  0.00    -0.270 OA
HETATM    5  O   UNL     1      10.285   7.893 -25.901  1.00  0.00    -0.263 OA
HETATM    6  O   UNL     1      10.947   7.694 -21.961  1.00  0.00    -0.270 OA
HETATM    7  O   UNL     1       5.612   3.722 -24.391  1.00  0.00    -0.263 OA
HETATM    8  O   UNL     1       7.662   1.457 -25.007  1.00  0.00    -0.270 OA
HETATM    9  O   UNL     1      11.312   3.018 -23.039  1.00  0.00    -0.263 OA
HETATM   10  N   UNL     1       6.285   7.221 -24.821  1.00  0.00    -0.340 N 
HETATM   11  N   UNL     1      12.236   7.876 -23.882  1.00  0.00    -0.340 N 
HETATM   12  N   UNL     1       8.605   2.376 -23.098  1.00  0.00    -0.340 N 
HETATM   13  C   UNL     1       5.663   6.128 -24.037  1.00  0.00     0.190 C 
HETATM   14  C   UNL     1      11.569   9.140 -24.250  1.00  0.00     0.190 C 
HETATM   15  C   UNL     1       7.949   9.091 -25.073  1.00  0.00     0.227 C 
HETATM   16  C   UNL     1       9.041   3.547 -22.308  1.00  0.00     0.190 C 
HETATM   17  C   UNL     1      12.033   5.692 -22.681  1.00  0.00     0.227 C 
HETATM   18  C   UNL     1       8.321   3.762 -25.193  1.00  0.00     0.227 C 
HETATM   19  C   UNL     1       7.373   7.917 -24.273  1.00  0.00     0.250 C 
HETATM   20  C   UNL     1      10.315   8.730 -25.009  1.00  0.00     0.283 C 
HETATM   21  C   UNL     1      11.710   7.177 -22.785  1.00  0.00     0.250 C 
HETATM   22  C   UNL     1       6.236   4.774 -24.454  1.00  0.00     0.283 C 
HETATM   23  C   UNL     1       8.148   2.433 -24.425  1.00  0.00     0.250 C 
HETATM   24  C   UNL     1      10.507   3.824 -22.600  1.00  0.00     0.283 C 
HETATM   25  C   UNL     1       5.750   7.444 -26.168  1.00  0.00     0.153 C 
HETATM   26  C   UNL     1      13.294   7.353 -24.750  1.00  0.00     0.153 C 
HETATM   27  C   UNL     1       8.654   1.066 -22.450  1.00  0.00     0.153 C 
ENDROOT
BRANCH  15  28
HETATM   28  C   UNL     1       7.064  10.319 -24.913  1.00  0.00     0.016 C 
HETATM   29  C   UNL     1       7.785  11.404 -24.115  1.00  0.00     0.012 C 
HETATM   30  C   UNL     1       6.635  10.856 -26.278  1.00  0.00     0.012 C 
ENDBRANCH  15  28
BRANCH  14  31
HETATM   31  C   UNL     1      12.381  10.119 -25.088  1.00  0.00     0.014 C 
HETATM   32  C   UNL     1      11.788  10.210 -26.496  1.00  0.00     0.012 C 
BRANCH  31  33
HETATM   33  C   UNL     1      12.442  11.520 -24.455  1.00  0.00     0.002 C 
HETATM   34  C   UNL     1      13.561  12.391 -25.009  1.00  0.00     0.005 C 
ENDBRANCH  31  33
ENDBRANCH  14  31
BRANCH  13  35
HETATM   35  C   UNL     1       4.136   6.132 -24.095  1.00  0.00     0.014 C 
HETATM   36  C   UNL     1       3.577   5.102 -23.111  1.00  0.00     0.012 C 
BRANCH  35  37
HETATM   37  C   UNL     1       3.541   7.519 -23.791  1.00  0.00     0.002 C 
HETATM   38  C   UNL     1       2.668   8.066 -24.911  1.00  0.00     0.005 C 
ENDBRANCH  35  37
ENDBRANCH  13  35
BRANCH  17  39
HETATM   39  C   UNL     1      13.067   5.442 -21.598  1.00  0.00     0.016 C 
HETATM   40  C   UNL     1      12.391   4.989 -20.306  1.00  0.00     0.012 C 
HETATM   41  C   UNL     1      13.904   6.696 -21.354  1.00  0.00     0.012 C 
ENDBRANCH  17  39
BRANCH  18  42
HETATM   42  C   UNL     1       8.079   3.578 -26.691  1.00  0.00     0.016 C 
HETATM   43  C   UNL     1       7.866   4.928 -27.375  1.00  0.00     0.012 C 
HETATM   44  C   UNL     1       9.243   2.829 -27.338  1.00  0.00     0.012 C 
ENDBRANCH  18  42
BRANCH  16  45
HETATM   45  C   UNL     1       8.820   3.428 -20.801  1.00  0.00     0.010 C 
HETATM   46  C   UNL     1       9.776   2.401 -20.195  1.00  0.00     0.012 C 
HETATM   47  C   UNL     1       7.371   3.056 -20.494  1.00  0.00     0.012 C 
ENDBRANCH  16  45
TORSDOF 8
ENDMDL
MODEL 9
REMARK VINA RESULT:    -4.369      4.861      9.488
REMARK INTER + INTRA:          -3.868
REMARK INTER:                  -7.279
REMARK INTRA:                   3.411
REMARK UNBOUND:                 2.544
REMARK  8 active torsions:
REMARK  status: ('A' for Active; 'I' for Inactive)
REMARK    1  A    between atoms: C_13  and  C_15 
REMARK    2  A    between atoms: C_14  and  C_16 
REMARK    3  A    between atoms: C_15  and  C_22 
REMARK    4  A    between atoms: C_16  and  C_23 
REMARK    5  A    between atoms: C_17  and  C_21 
REMARK    6  A    between atoms: C_18  and  C_24 
REMARK    7  A    between atoms: C_19  and  C_27 
REMARK    8  A    between atoms: C_20  and  C_30 
ROOT
HETATM    1  O   UNL     1      11.158   5.158 -23.053  1.00  0.00    -0.304 OA
HETATM    2  O   UNL     1      10.370   9.635 -24.722  1.00  0.00    -0.304 OA
HETATM    3  O   UNL     1       6.879   7.648 -24.170  1.00  0.00    -0.304 OA
HETATM    4  O   UNL     1      10.335   7.550 -22.319  1.00  0.00    -0.270 OA
HETATM    5  O   UNL     1      10.737   5.481 -25.299  1.00  0.00    -0.263 OA
HETATM    6  O   UNL     1       7.667   5.638 -22.738  1.00  0.00    -0.270 OA
HETATM    7  O   UNL     1      10.811  11.822 -24.157  1.00  0.00    -0.263 OA
HETATM    8  O   UNL     1       8.953  12.124 -26.641  1.00  0.00    -0.270 OA
HETATM    9  O   UNL     1       6.098   8.796 -26.013  1.00  0.00    -0.263 OA
HETATM   10  N   UNL     1      12.208   8.707 -23.052  1.00  0.00    -0.340 N 
HETATM   11  N   UNL     1       8.205   4.450 -24.658  1.00  0.00    -0.340 N 
HETATM   12  N   UNL     1       7.528  11.031 -25.176  1.00  0.00    -0.340 N 
HETATM   13  C   UNL     1      11.601  10.019 -22.728  1.00  0.00     0.190 C 
HETATM   14  C   UNL     1       9.411   3.892 -24.015  1.00  0.00     0.190 C 
HETATM   15  C   UNL     1      12.164   6.191 -23.055  1.00  0.00     0.227 C 
HETATM   16  C   UNL     1       7.255   9.956 -24.199  1.00  0.00     0.190 C 
HETATM   17  C   UNL     1       6.590   6.356 -24.745  1.00  0.00     0.227 C 
HETATM   18  C   UNL     1       9.678   9.942 -25.936  1.00  0.00     0.227 C 
HETATM   19  C   UNL     1      11.483   7.537 -22.779  1.00  0.00     0.250 C 
HETATM   20  C   UNL     1      10.502   4.932 -24.231  1.00  0.00     0.283 C 
HETATM   21  C   UNL     1       7.508   5.438 -23.948  1.00  0.00     0.250 C 
HETATM   22  C   UNL     1      10.927  10.619 -23.961  1.00  0.00     0.283 C 
HETATM   23  C   UNL     1       8.701  11.139 -25.939  1.00  0.00     0.250 C 
HETATM   24  C   UNL     1       6.662   8.762 -24.929  1.00  0.00     0.283 C 
HETATM   25  C   UNL     1      13.517   8.738 -23.714  1.00  0.00     0.153 C 
HETATM   26  C   UNL     1       7.889   4.059 -26.034  1.00  0.00     0.153 C 
HETATM   27  C   UNL     1       6.500  12.057 -25.357  1.00  0.00     0.153 C 
ENDROOT
BRANCH  15  28
HETATM   28  C   UNL     1      13.144   5.861 -21.938  1.00  0.00     0.016 C 
HETATM   29  C   UNL     1      12.403   5.607 -20.627  1.00  0.00     0.012 C 
HETATM   30  C   UNL     1      14.000   4.651 -22.311  1.00  0.00     0.012 C 
ENDBRANCH  15  28
BRANCH  14  31
HETATM   31  C   UNL     1       9.885   2.535 -24.520  1.00  0.00     0.014 C 
HETATM   32  C   UNL     1      11.397   2.408 -24.317  1.00  0.00     0.012 C 
BRANCH  31  33
HETATM   33  C   UNL     1       9.164   1.368 -23.823  1.00  0.00     0.002 C 
HETATM   34  C   UNL     1       8.739   1.680 -22.394  1.00  0.00     0.005 C 
ENDBRANCH  31  33
ENDBRANCH  14  31
BRANCH  13  35
HETATM   35  C   UNL     1      12.585  11.002 -22.094  1.00  0.00     0.014 C 
HETATM   36  C   UNL     1      13.211  11.882 -23.179  1.00  0.00     0.012 C 
BRANCH  35  37
HETATM   37  C   UNL     1      11.921  11.889 -21.024  1.00  0.00     0.002 C 
HETATM   38  C   UNL     1      12.519  13.285 -20.935  1.00  0.00     0.005 C 
ENDBRANCH  35  37
ENDBRANCH  13  35
BRANCH  17  39
HETATM   39  C   UNL     1       5.134   5.992 -24.514  1.00  0.00     0.016 C 
HETATM   40  C   UNL     1       4.368   7.182 -23.941  1.00  0.00     0.012 C 
HETATM   41  C   UNL     1       5.023   4.785 -23.585  1.00  0.00     0.012 C 
ENDBRANCH  17  39
BRANCH  18  42
HETATM   42  C   UNL     1      10.725  10.072 -27.043  1.00  0.00     0.016 C 
HETATM   43  C   UNL     1      11.694  11.214 -26.739  1.00  0.00     0.012 C 
HETATM   44  C   UNL     1      11.485   8.760 -27.223  1.00  0.00     0.012 C 
ENDBRANCH  18  42
BRANCH  16  45
HETATM   45  C   UNL     1       6.355  10.355 -23.031  1.00  0.00     0.010 C 
HETATM   46  C   UNL     1       4.989  10.819 -23.536  1.00  0.00     0.012 C 
HETATM   47  C   UNL     1       7.013  11.449 -22.190  1.00  0.00     0.012 C 
ENDBRANCH  16  45
TORSDOF 8
ENDMDL
MODEL 10
REMARK VINA RESULT:    -4.038      6.312     11.179
REMARK INTER + INTRA:          -3.383
REMARK INTER:                  -6.692
REMARK INTRA:                   3.309
REMARK UNBOUND:                 2.544
REMARK  8 active torsions:
REMARK  status: ('A' for Active; 'I' for Inactive)
REMARK    1  A    between atoms: C_13  and  C_15 
REMARK    2  A    between atoms: C_14  and  C_16 
REMARK    3  A    between atoms: C_15  and  C_22 
REMARK    4  A    between atoms: C_16  and  C_23 
REMARK    5  A    between atoms: C_17  and  C_21 
REMARK    6  A    between atoms: C_18  and  C_24 
REMARK    7  A    between atoms: C_19  and  C_27 
REMARK    8  A    between atoms: C_20  and  C_30 
ROOT
HETATM    1  O   UNL     1       7.357   7.738 -23.969  1.00  0.00    -0.304 OA
HETATM    2  O   UNL     1      11.700   9.757 -24.680  1.00  0.00    -0.304 OA
HETATM    3  O   UNL     1       9.330  12.153 -22.425  1.00  0.00    -0.304 OA
HETATM    4  O   UNL     1       9.644   8.258 -22.770  1.00  0.00    -0.270 OA
HETATM    5  O   UNL     1       7.612   9.353 -25.598  1.00  0.00    -0.263 OA
HETATM    6  O   UNL     1       7.434  10.511 -21.772  1.00  0.00    -0.270 OA
HETATM    7  O   UNL     1      13.928   9.301 -24.324  1.00  0.00    -0.263 OA
HETATM    8  O   UNL     1      13.995  12.236 -25.370  1.00  0.00    -0.270 OA
HETATM    9  O   UNL     1      10.365  13.927 -23.474  1.00  0.00    -0.263 OA
HETATM   10  N   UNL     1      11.003   7.223 -24.340  1.00  0.00    -0.340 N 
HETATM   11  N   UNL     1       6.301  10.998 -23.738  1.00  0.00    -0.340 N 
HETATM   12  N   UNL     1      12.757  12.506 -23.429  1.00  0.00    -0.340 N 
HETATM   13  C   UNL     1      12.239   7.680 -23.663  1.00  0.00     0.190 C 
HETATM   14  C   UNL     1       5.890   9.589 -23.890  1.00  0.00     0.190 C 
HETATM   15  C   UNL     1       8.499   7.009 -24.461  1.00  0.00     0.227 C 
HETATM   16  C   UNL     1      11.665  12.088 -22.524  1.00  0.00     0.190 C 
HETATM   17  C   UNL     1       8.008  12.578 -22.821  1.00  0.00     0.227 C 
HETATM   18  C   UNL     1      11.916  11.029 -25.299  1.00  0.00     0.227 C 
HETATM   19  C   UNL     1       9.759   7.557 -23.782  1.00  0.00     0.250 C 
HETATM   20  C   UNL     1       7.047   8.906 -24.608  1.00  0.00     0.283 C 
HETATM   21  C   UNL     1       7.208  11.287 -22.708  1.00  0.00     0.250 C 
HETATM   22  C   UNL     1      12.748   8.977 -24.292  1.00  0.00     0.283 C 
HETATM   23  C   UNL     1      12.993  11.961 -24.701  1.00  0.00     0.250 C 
HETATM   24  C   UNL     1      10.405  12.861 -22.878  1.00  0.00     0.283 C 
HETATM   25  C   UNL     1      11.179   6.503 -25.606  1.00  0.00     0.153 C 
HETATM   26  C   UNL     1       5.866  11.976 -24.738  1.00  0.00     0.153 C 
HETATM   27  C   UNL     1      13.656  13.561 -22.961  1.00  0.00     0.153 C 
ENDROOT
BRANCH  15  28
HETATM   28  C   UNL     1       8.292   5.548 -24.081  1.00  0.00     0.016 C 
HETATM   29  C   UNL     1       6.878   5.324 -23.548  1.00  0.00     0.012 C 
HETATM   30  C   UNL     1       8.564   4.636 -25.276  1.00  0.00     0.012 C 
ENDBRANCH  15  28
BRANCH  14  31
HETATM   31  C   UNL     1       4.594   9.336 -24.648  1.00  0.00     0.014 C 
HETATM   32  C   UNL     1       4.906   8.743 -26.024  1.00  0.00     0.012 C 
BRANCH  31  33
HETATM   33  C   UNL     1       3.641   8.403 -23.880  1.00  0.00     0.002 C 
HETATM   34  C   UNL     1       2.807   7.506 -24.785  1.00  0.00     0.005 C 
ENDBRANCH  31  33
ENDBRANCH  14  31
BRANCH  13  35
HETATM   35  C   UNL     1      13.334   6.615 -23.614  1.00  0.00     0.014 C 
HETATM   36  C   UNL     1      13.999   6.617 -22.236  1.00  0.00     0.012 C 
BRANCH  35  37
HETATM   37  C   UNL     1      12.797   5.207 -23.930  1.00  0.00     0.002 C 
HETATM   38  C   UNL     1      13.532   4.096 -23.194  1.00  0.00     0.005 C 
ENDBRANCH  35  37
ENDBRANCH  13  35
BRANCH  17  39
HETATM   39  C   UNL     1       7.481  13.623 -21.854  1.00  0.00     0.016 C 
HETATM   40  C   UNL     1       6.976  14.849 -22.611  1.00  0.00     0.012 C 
HETATM   41  C   UNL     1       8.563  14.019 -20.851  1.00  0.00     0.012 C 
ENDBRANCH  17  39
BRANCH  18  42
HETATM   42  C   UNL     1      12.157  10.780 -26.789  1.00  0.00     0.016 C 
HETATM   43  C   UNL     1      13.529  10.145 -27.016  1.00  0.00     0.012 C 
HETATM   44  C   UNL     1      11.056   9.898 -27.374  1.00  0.00     0.012 C 
ENDBRANCH  18  42
BRANCH  16  45
HETATM   45  C   UNL     1      11.967  12.234 -21.034  1.00  0.00     0.010 C 
HETATM   46  C   UNL     1      11.494  11.002 -20.263  1.00  0.00     0.012 C 
HETATM   47  C   UNL     1      11.318  13.498 -20.472  1.00  0.00     0.012 C 
ENDBRANCH  16  45
TORSDOF 8
ENDMDL
MODEL 11
REMARK VINA RESULT:    -3.775      5.023      7.739
REMARK INTER + INTRA:          -2.996
REMARK INTER:                  -4.918
REMARK INTRA:                   1.922
REMARK UNBOUND:                 2.544
REMARK  8 active torsions:
REMARK  status: ('A' for Active; 'I' for Inactive)
REMARK    1  A    between atoms: C_13  and  C_15 
REMARK    2  A    between atoms: C_14  and  C_16 
REMARK    3  A    between atoms: C_15  and  C_22 
REMARK    4  A    between atoms: C_16  and  C_23 
REMARK    5  A    between atoms: C_17  and  C_21 
REMARK    6  A    between atoms: C_18  and  C_24 
REMARK    7  A    between atoms: C_19  and  C_27 
REMARK    8  A    between atoms: C_20  and  C_30 
ROOT
HETATM    1  O   UNL     1       6.714   6.277 -24.898  1.00  0.00    -0.304 OA
HETATM    2  O   UNL     1       9.393  10.027 -23.412  1.00  0.00    -0.304 OA
HETATM    3  O   UNL     1      11.710   7.150 -25.083  1.00  0.00    -0.304 OA
HETATM    4  O   UNL     1       8.048   8.373 -25.773  1.00  0.00    -0.270 OA
HETATM    5  O   UNL     1       7.835   6.152 -22.884  1.00  0.00    -0.263 OA
HETATM    6  O   UNL     1       9.924   5.691 -26.264  1.00  0.00    -0.270 OA
HETATM    7  O   UNL     1       9.570  12.298 -23.741  1.00  0.00    -0.263 OA
HETATM    8  O   UNL     1      12.042  11.677 -21.946  1.00  0.00    -0.270 OA
HETATM    9  O   UNL     1      13.317   7.744 -23.538  1.00  0.00    -0.263 OA
HETATM   10  N   UNL     1       6.959   9.943 -24.458  1.00  0.00    -0.340 N 
HETATM   11  N   UNL     1       9.584   4.484 -24.312  1.00  0.00    -0.340 N 
HETATM   12  N   UNL     1      12.544  10.402 -23.817  1.00  0.00    -0.340 N 
HETATM   13  C   UNL     1       7.852  11.035 -24.912  1.00  0.00     0.190 C 
HETATM   14  C   UNL     1       8.132   4.416 -24.567  1.00  0.00     0.190 C 
HETATM   15  C   UNL     1       6.157   7.560 -24.550  1.00  0.00     0.227 C 
HETATM   16  C   UNL     1      12.153   9.436 -24.864  1.00  0.00     0.190 C 
HETATM   17  C   UNL     1      11.700   5.767 -24.669  1.00  0.00     0.227 C 
HETATM   18  C   UNL     1      10.461   9.941 -22.463  1.00  0.00     0.227 C 
HETATM   19  C   UNL     1       7.142   8.654 -24.980  1.00  0.00     0.250 C 
HETATM   20  C   UNL     1       7.560   5.704 -23.989  1.00  0.00     0.283 C 
HETATM   21  C   UNL     1      10.342   5.293 -25.171  1.00  0.00     0.250 C 
HETATM   22  C   UNL     1       9.008  11.227 -23.930  1.00  0.00     0.283 C 
HETATM   23  C   UNL     1      11.741  10.765 -22.724  1.00  0.00     0.250 C 
HETATM   24  C   UNL     1      12.493   8.030 -24.393  1.00  0.00     0.283 C 
HETATM   25  C   UNL     1       5.979  10.289 -23.422  1.00  0.00     0.153 C 
HETATM   26  C   UNL     1      10.125   3.834 -23.116  1.00  0.00     0.153 C 
HETATM   27  C   UNL     1      13.863  11.026 -23.930  1.00  0.00     0.153 C 
ENDROOT
BRANCH  15  28
HETATM   28  C   UNL     1       4.849   7.701 -25.318  1.00  0.00     0.016 C 
HETATM   29  C   UNL     1       3.716   8.118 -24.383  1.00  0.00     0.012 C 
HETATM   30  C   UNL     1       4.999   8.707 -26.458  1.00  0.00     0.012 C 
ENDBRANCH  15  28
BRANCH  14  31
HETATM   31  C   UNL     1       7.394   3.218 -23.985  1.00  0.00     0.014 C 
HETATM   32  C   UNL     1       5.899   3.533 -23.880  1.00  0.00     0.012 C 
BRANCH  31  33
HETATM   33  C   UNL     1       7.601   1.942 -24.818  1.00  0.00     0.002 C 
HETATM   34  C   UNL     1       7.010   0.693 -24.178  1.00  0.00     0.005 C 
ENDBRANCH  31  33
ENDBRANCH  14  31
BRANCH  13  35
HETATM   35  C   UNL     1       7.119  12.349 -25.177  1.00  0.00     0.014 C 
HETATM   36  C   UNL     1       6.382  12.270 -26.517  1.00  0.00     0.012 C 
BRANCH  35  37
HETATM   37  C   UNL     1       6.125  12.703 -24.057  1.00  0.00     0.002 C 
HETATM   38  C   UNL     1       6.696  13.652 -23.014  1.00  0.00     0.005 C 
ENDBRANCH  35  37
ENDBRANCH  13  35
BRANCH  17  39
HETATM   39  C   UNL     1      12.821   5.006 -25.352  1.00  0.00     0.016 C 
HETATM   40  C   UNL     1      12.255   3.984 -26.334  1.00  0.00     0.012 C 
HETATM   41  C   UNL     1      13.711   4.320 -24.317  1.00  0.00     0.012 C 
ENDBRANCH  17  39
BRANCH  18  42
HETATM   42  C   UNL     1       9.875  10.239 -21.082  1.00  0.00     0.016 C 
HETATM   43  C   UNL     1       8.354  10.091 -21.097  1.00  0.00     0.012 C 
HETATM   44  C   UNL     1      10.491   9.325 -20.025  1.00  0.00     0.012 C 
ENDBRANCH  18  42
BRANCH  16  45
HETATM   45  C   UNL     1      12.767   9.689 -26.240  1.00  0.00     0.010 C 
HETATM   46  C   UNL     1      11.677   9.791 -27.307  1.00  0.00     0.012 C 
HETATM   47  C   UNL     1      13.764   8.587 -26.599  1.00  0.00     0.012 C 
ENDBRANCH  16  45
TORSDOF 8
ENDMDL
MODEL 12
REMARK VINA RESULT:    -3.729      2.152      4.004
REMARK INTER + INTRA:          -2.929
REMARK INTER:                  -6.130
REMARK INTRA:                   3.201
REMARK UNBOUND:                 2.544
REMARK  8 active torsions:
REMARK  status: ('A' for Active; 'I' for Inactive)
REMARK    1  A    between atoms: C_13  and  C_15 
REMARK    2  A    between atoms: C_14  and  C_16 
REMARK    3  A    between atoms: C_15  and  C_22 
REMARK    4  A    between atoms: C_16  and  C_23 
REMARK    5  A    between atoms: C_17  and  C_21 
REMARK    6  A    between atoms: C_18  and  C_24 
REMARK    7  A    between atoms: C_19  and  C_27 
REMARK    8  A    between atoms: C_20  and  C_30 
ROOT
HETATM    1  O   UNL     1       9.066  -2.036 -23.233  1.00  0.00    -0.304 OA
HETATM    2  O   UNL     1       8.994   2.790 -22.841  1.00  0.00    -0.304 OA
HETATM    3  O   UNL     1      11.245   1.617 -26.002  1.00  0.00    -0.304 OA
HETATM    4  O   UNL     1       8.033   0.136 -24.308  1.00  0.00    -0.270 OA
HETATM    5  O   UNL     1      10.842  -0.945 -22.243  1.00  0.00    -0.263 OA
HETATM    6  O   UNL     1      10.534  -0.865 -26.231  1.00  0.00    -0.270 OA
HETATM    7  O   UNL     1       7.483   4.526 -22.798  1.00  0.00    -0.263 OA
HETATM    8  O   UNL     1      10.223   6.011 -22.826  1.00  0.00    -0.270 OA
HETATM    9  O   UNL     1      12.595   3.428 -25.533  1.00  0.00    -0.263 OA
HETATM   10  N   UNL     1       7.116   0.984 -22.353  1.00  0.00    -0.340 N 
HETATM   11  N   UNL     1      12.136  -1.493 -24.674  1.00  0.00    -0.340 N 
HETATM   12  N   UNL     1      10.327   4.890 -24.853  1.00  0.00    -0.340 N 
HETATM   13  C   UNL     1       6.691   2.236 -23.022  1.00  0.00     0.190 C 
HETATM   14  C   UNL     1      11.221  -2.491 -24.086  1.00  0.00     0.190 C 
HETATM   15  C   UNL     1       8.121  -1.322 -22.411  1.00  0.00     0.227 C 
HETATM   16  C   UNL     1      10.165   3.662 -25.660  1.00  0.00     0.190 C 
HETATM   17  C   UNL     1      12.333   0.672 -25.908  1.00  0.00     0.227 C 
HETATM   18  C   UNL     1      10.154   3.612 -22.679  1.00  0.00     0.227 C 
HETATM   19  C   UNL     1       7.760  -0.006 -23.110  1.00  0.00     0.250 C 
HETATM   20  C   UNL     1      10.387  -1.726 -23.068  1.00  0.00     0.283 C 
HETATM   21  C   UNL     1      11.599  -0.637 -25.647  1.00  0.00     0.250 C 
HETATM   22  C   UNL     1       7.743   3.330 -22.832  1.00  0.00     0.283 C 
HETATM   23  C   UNL     1      10.219   4.947 -23.454  1.00  0.00     0.250 C 
HETATM   24  C   UNL     1      11.495   2.928 -25.718  1.00  0.00     0.283 C 
HETATM   25  C   UNL     1       6.889   0.907 -20.906  1.00  0.00     0.153 C 
HETATM   26  C   UNL     1      13.485  -1.353 -24.120  1.00  0.00     0.153 C 
HETATM   27  C   UNL     1      10.620   6.134 -25.565  1.00  0.00     0.153 C 
ENDROOT
BRANCH  15  28
HETATM   28  C   UNL     1       6.886  -2.204 -22.282  1.00  0.00     0.016 C 
HETATM   29  C   UNL     1       6.435  -2.703 -23.654  1.00  0.00     0.012 C 
HETATM   30  C   UNL     1       7.158  -3.381 -21.347  1.00  0.00     0.012 C 
ENDBRANCH  15  28
BRANCH  14  31
HETATM   31  C   UNL     1      11.869  -3.697 -23.418  1.00  0.00     0.014 C 
HETATM   32  C   UNL     1      11.517  -3.714 -21.929  1.00  0.00     0.012 C 
BRANCH  31  33
HETATM   33  C   UNL     1      11.443  -5.025 -24.070  1.00  0.00     0.002 C 
HETATM   34  C   UNL     1      10.153  -5.598 -23.500  1.00  0.00     0.005 C 
ENDBRANCH  31  33
ENDBRANCH  14  31
BRANCH  13  35
HETATM   35  C   UNL     1       5.304   2.713 -22.594  1.00  0.00     0.014 C 
HETATM   36  C   UNL     1       5.431   3.703 -21.433  1.00  0.00     0.012 C 
BRANCH  35  37
HETATM   37  C   UNL     1       4.524   3.364 -23.750  1.00  0.00     0.002 C 
HETATM   38  C   UNL     1       3.778   4.627 -23.346  1.00  0.00     0.005 C 
ENDBRANCH  35  37
ENDBRANCH  13  35
BRANCH  17  39
HETATM   39  C   UNL     1      13.090   0.611 -27.222  1.00  0.00     0.016 C 
HETATM   40  C   UNL     1      13.901  -0.680 -27.315  1.00  0.00     0.012 C 
HETATM   41  C   UNL     1      14.000   1.828 -27.375  1.00  0.00     0.012 C 
ENDBRANCH  17  39
BRANCH  18  42
HETATM   42  C   UNL     1      10.362   3.825 -21.179  1.00  0.00     0.016 C 
HETATM   43  C   UNL     1       9.633   2.749 -20.374  1.00  0.00     0.012 C 
HETATM   44  C   UNL     1      11.850   3.833 -20.836  1.00  0.00     0.012 C 
ENDBRANCH  18  42
BRANCH  16  45
HETATM   45  C   UNL     1       9.626   3.882 -27.072  1.00  0.00     0.010 C 
HETATM   46  C   UNL     1       9.279   5.354 -27.294  1.00  0.00     0.012 C 
HETATM   47  C   UNL     1       8.405   3.000 -27.329  1.00  0.00     0.012 C 
ENDBRANCH  16  45
TORSDOF 8
ENDMDL
MODEL 13
REMARK VINA RESULT:    -3.684      4.072      8.908
REMARK INTER + INTRA:          -2.863
REMARK INTER:                  -5.633
REMARK INTRA:                   2.770
REMARK UNBOUND:                 2.544
REMARK  8 active torsions:
REMARK  status: ('A' for Active; 'I' for Inactive)
REMARK    1  A    between atoms: C_13  and  C_15 
REMARK    2  A    between atoms: C_14  and  C_16 
REMARK    3  A    between atoms: C_15  and  C_22 
REMARK    4  A    between atoms: C_16  and  C_23 
REMARK    5  A    between atoms: C_17  and  C_21 
REMARK    6  A    between atoms: C_18  and  C_24 
REMARK    7  A    between atoms: C_19  and  C_27 
REMARK    8  A    between atoms: C_20  and  C_30 
ROOT
HETATM    1  O   UNL     1       6.677   5.095 -23.211  1.00  0.00    -0.304 OA
HETATM    2  O   UNL     1      11.152   5.282 -25.052  1.00  0.00    -0.304 OA
HETATM    3  O   UNL     1       9.616   9.004 -24.571  1.00  0.00    -0.304 OA
HETATM    4  O   UNL     1       9.176   5.649 -22.587  1.00  0.00    -0.270 OA
HETATM    5  O   UNL     1       6.966   5.398 -25.481  1.00  0.00    -0.263 OA
HETATM    6  O   UNL     1       7.579   8.512 -23.046  1.00  0.00    -0.270 OA
HETATM    7  O   UNL     1      13.291   4.602 -24.541  1.00  0.00    -0.263 OA
HETATM    8  O   UNL     1      13.720   6.323 -27.104  1.00  0.00    -0.270 OA
HETATM    9  O   UNL     1      10.780   9.578 -26.478  1.00  0.00    -0.263 OA
HETATM   10  N   UNL     1      10.074   3.627 -23.284  1.00  0.00    -0.340 N 
HETATM   11  N   UNL     1       6.267   8.055 -24.904  1.00  0.00    -0.340 N 
HETATM   12  N   UNL     1      12.859   7.920 -25.659  1.00  0.00    -0.340 N 
HETATM   13  C   UNL     1      11.460   4.083 -23.026  1.00  0.00     0.190 C 
HETATM   14  C   UNL     1       5.593   6.948 -24.198  1.00  0.00     0.190 C 
HETATM   15  C   UNL     1       7.583   3.973 -23.208  1.00  0.00     0.227 C 
HETATM   16  C   UNL     1      11.860   8.352 -24.660  1.00  0.00     0.190 C 
HETATM   17  C   UNL     1       8.347   9.426 -25.115  1.00  0.00     0.227 C 
HETATM   18  C   UNL     1      11.495   5.891 -26.301  1.00  0.00     0.227 C 
HETATM   19  C   UNL     1       9.009   4.497 -23.002  1.00  0.00     0.250 C 
HETATM   20  C   UNL     1       6.487   5.732 -24.406  1.00  0.00     0.283 C 
HETATM   21  C   UNL     1       7.356   8.653 -24.254  1.00  0.00     0.250 C 
HETATM   22  C   UNL     1      12.090   4.638 -24.303  1.00  0.00     0.283 C 
HETATM   23  C   UNL     1      12.798   6.716 -26.380  1.00  0.00     0.250 C 
HETATM   24  C   UNL     1      10.719   9.059 -25.374  1.00  0.00     0.283 C 
HETATM   25  C   UNL     1       9.925   2.303 -23.896  1.00  0.00     0.153 C 
HETATM   26  C   UNL     1       5.866   8.368 -26.278  1.00  0.00     0.153 C 
HETATM   27  C   UNL     1      13.992   8.810 -25.913  1.00  0.00     0.153 C 
ENDROOT
BRANCH  15  28
HETATM   28  C   UNL     1       7.179   3.078 -22.044  1.00  0.00     0.016 C 
HETATM   29  C   UNL     1       5.783   3.443 -21.542  1.00  0.00     0.012 C 
HETATM   30  C   UNL     1       7.234   1.607 -22.450  1.00  0.00     0.012 C 
ENDBRANCH  15  28
BRANCH  14  31
HETATM   31  C   UNL     1       4.173   6.623 -24.640  1.00  0.00     0.014 C 
HETATM   32  C   UNL     1       3.525   5.667 -23.636  1.00  0.00     0.012 C 
BRANCH  31  33
HETATM   33  C   UNL     1       3.305   7.885 -24.795  1.00  0.00     0.002 C 
HETATM   34  C   UNL     1       2.349   8.113 -23.632  1.00  0.00     0.005 C 
ENDBRANCH  31  33
ENDBRANCH  14  31
BRANCH  13  35
HETATM   35  C   UNL     1      12.342   3.011 -22.386  1.00  0.00     0.014 C 
HETATM   36  C   UNL     1      13.263   3.651 -21.344  1.00  0.00     0.012 C 
BRANCH  35  37
HETATM   37  C   UNL     1      11.518   1.887 -21.732  1.00  0.00     0.002 C 
HETATM   38  C   UNL     1      12.158   0.512 -21.857  1.00  0.00     0.005 C 
ENDBRANCH  35  37
ENDBRANCH  13  35
BRANCH  17  39
HETATM   39  C   UNL     1       8.167  10.922 -24.928  1.00  0.00     0.016 C 
HETATM   40  C   UNL     1       8.379  11.657 -26.249  1.00  0.00     0.012 C 
HETATM   41  C   UNL     1       9.125  11.448 -23.861  1.00  0.00     0.012 C 
ENDBRANCH  17  39
BRANCH  18  42
HETATM   42  C   UNL     1      11.459   4.798 -27.370  1.00  0.00     0.016 C 
HETATM   43  C   UNL     1      12.590   3.793 -27.155  1.00  0.00     0.012 C 
HETATM   44  C   UNL     1      10.106   4.088 -27.372  1.00  0.00     0.012 C 
ENDBRANCH  18  42
BRANCH  16  45
HETATM   45  C   UNL     1      12.405   9.237 -23.541  1.00  0.00     0.010 C 
HETATM   46  C   UNL     1      11.635   9.002 -22.242  1.00  0.00     0.012 C 
HETATM   47  C   UNL     1      12.344  10.712 -23.938  1.00  0.00     0.012 C 
ENDBRANCH  16  45
TORSDOF 8
ENDMDL
