MODEL 1
REMARK VINA RESULT:    -9.495      0.000      0.000
REMARK INTER + INTRA:         -11.529
REMARK INTER:                 -11.949
REMARK INTRA:                   0.420
REMARK UNBOUND:                 0.464
REMARK  5 active torsions:
REMARK  status: ('A' for Active; 'I' for Inactive)
REMARK    1  A    between atoms: C_2  and  C_3 
REMARK    2  A    between atoms: C_2  and  C_6 
REMARK    3  A    between atoms: C_2  and  C_13 
REMARK    4  A    between atoms: C_3  and  C_4 
REMARK    5  A    between atoms: C_14  and  O_23 
ROOT
HETATM    1  C   UNL     1       3.594 -11.178   9.867  1.00  0.00     0.032 A 
HETATM    2  C   UNL     1       5.571 -11.151   7.948  1.00  0.00     0.298 A 
HETATM    3  C   UNL     1       4.401 -10.418   7.701  1.00  0.00     0.060 A 
HETATM    4  C   UNL     1       3.398 -10.410   8.629  1.00  0.00     0.091 A 
HETATM    5  C   UNL     1       2.610 -11.216  10.856  1.00  0.00     0.017 A 
HETATM    6  C   UNL     1       2.826 -11.946  12.004  1.00  0.00     0.001 A 
HETATM    7  C   UNL     1       4.013 -12.642  12.179  1.00  0.00     0.003 A 
HETATM    8  C   UNL     1       4.993 -12.613  11.209  1.00  0.00     0.038 A 
HETATM    9  C   UNL     1       4.795 -11.883  10.044  1.00  0.00     0.092 A 
HETATM   10  O   UNL     1       5.743 -11.846   9.084  1.00  0.00    -0.274 OA
HETATM   11  O   UNL     1       6.459 -11.149   7.114  1.00  0.00    -0.259 OA
ENDROOT
BRANCH   4  12
HETATM   12  O   UNL     1       2.256  -9.715   8.415  1.00  0.00    -0.359 OA
HETATM   13  H   UNL     1       2.239  -9.000   9.064  1.00  0.00     0.217 HD
ENDBRANCH   4  12
BRANCH   3  14
HETATM   14  C   UNL     1       4.249  -9.646   6.416  1.00  0.00     0.067 C 
BRANCH  14  15
HETATM   15  C   UNL     1       3.293  -8.472   6.636  1.00  0.00     0.092 C 
BRANCH  15  16
HETATM   16  C   UNL     1       4.040  -7.175   6.458  1.00  0.00     0.124 C 
HETATM   17  C   UNL     1       4.086  -6.172   7.582  1.00  0.00     0.091 C 
HETATM   18  O   UNL     1       4.601  -6.940   5.416  1.00  0.00    -0.298 OA
ENDBRANCH  15  16
ENDBRANCH  14  15
BRANCH  14  19
HETATM   19  C   UNL     1       3.695 -10.552   5.349  1.00  0.00    -0.049 A 
HETATM   20  C   UNL     1       2.330 -10.614   5.134  1.00  0.00     0.008 A 
HETATM   21  C   UNL     1       1.821 -11.445   4.154  1.00  0.00     0.001 A 
HETATM   22  C   UNL     1       2.675 -12.214   3.388  1.00  0.00     0.000 A 
HETATM   23  C   UNL     1       4.039 -12.152   3.602  1.00  0.00     0.001 A 
HETATM   24  C   UNL     1       4.549 -11.317   4.578  1.00  0.00     0.008 A 
ENDBRANCH  14  19
ENDBRANCH   3  14
TORSDOF 5
ENDMDL
MODEL 2
REMARK VINA RESULT:    -9.462      1.085      2.173
REMARK INTER + INTRA:         -11.487
REMARK INTER:                 -12.062
REMARK INTRA:                   0.575
REMARK UNBOUND:                 0.464
REMARK  5 active torsions:
REMARK  status: ('A' for Active; 'I' for Inactive)
REMARK    1  A    between atoms: C_2  and  C_3 
REMARK    2  A    between atoms: C_2  and  C_6 
REMARK    3  A    between atoms: C_2  and  C_13 
REMARK    4  A    between atoms: C_3  and  C_4 
REMARK    5  A    between atoms: C_14  and  O_23 
ROOT
HETATM    1  C   UNL     1       4.670 -11.758   9.476  1.00  0.00     0.032 A 
HETATM    2  C   UNL     1       3.283  -9.805   8.117  1.00  0.00     0.298 A 
HETATM    3  C   UNL     1       4.379 -10.403   7.477  1.00  0.00     0.060 A 
HETATM    4  C   UNL     1       5.093 -11.374   8.121  1.00  0.00     0.091 A 
HETATM    5  C   UNL     1       5.355 -12.742  10.193  1.00  0.00     0.017 A 
HETATM    6  C   UNL     1       4.934 -13.078  11.460  1.00  0.00     0.001 A 
HETATM    7  C   UNL     1       3.837 -12.445  12.025  1.00  0.00     0.003 A 
HETATM    8  C   UNL     1       3.152 -11.472  11.328  1.00  0.00     0.038 A 
HETATM    9  C   UNL     1       3.560 -11.118  10.048  1.00  0.00     0.092 A 
HETATM   10  O   UNL     1       2.902 -10.166   9.353  1.00  0.00    -0.274 OA
HETATM   11  O   UNL     1       2.654  -8.941   7.533  1.00  0.00    -0.259 OA
ENDROOT
BRANCH   4  12
HETATM   12  O   UNL     1       6.156 -11.965   7.530  1.00  0.00    -0.359 OA
HETATM   13  H   UNL     1       5.806 -12.632   6.927  1.00  0.00     0.217 HD
ENDBRANCH   4  12
BRANCH   3  14
HETATM   14  C   UNL     1       4.770  -9.973   6.087  1.00  0.00     0.067 C 
BRANCH  14  15
HETATM   15  C   UNL     1       4.440  -8.491   5.900  1.00  0.00     0.092 C 
BRANCH  15  16
HETATM   16  C   UNL     1       5.612  -7.791   5.262  1.00  0.00     0.124 C 
HETATM   17  C   UNL     1       5.814  -6.313   5.474  1.00  0.00     0.091 C 
HETATM   18  O   UNL     1       6.389  -8.414   4.581  1.00  0.00    -0.298 OA
ENDBRANCH  15  16
ENDBRANCH  14  15
BRANCH  14  19
HETATM   19  C   UNL     1       4.008 -10.788   5.076  1.00  0.00    -0.049 A 
HETATM   20  C   UNL     1       2.640 -10.630   4.949  1.00  0.00     0.008 A 
HETATM   21  C   UNL     1       1.941 -11.378   4.021  1.00  0.00     0.001 A 
HETATM   22  C   UNL     1       2.609 -12.283   3.219  1.00  0.00     0.000 A 
HETATM   23  C   UNL     1       3.976 -12.441   3.345  1.00  0.00     0.001 A 
HETATM   24  C   UNL     1       4.676 -11.690   4.270  1.00  0.00     0.008 A 
ENDBRANCH  14  19
ENDBRANCH   3  14
TORSDOF 5
ENDMDL
MODEL 3
REMARK VINA RESULT:    -9.358      1.185      3.552
REMARK INTER + INTRA:         -11.356
REMARK INTER:                 -11.472
REMARK INTRA:                   0.116
REMARK UNBOUND:                 0.464
REMARK  5 active torsions:
REMARK  status: ('A' for Active; 'I' for Inactive)
REMARK    1  A    between atoms: C_2  and  C_3 
REMARK    2  A    between atoms: C_2  and  C_6 
REMARK    3  A    between atoms: C_2  and  C_13 
REMARK    4  A    between atoms: C_3  and  C_4 
REMARK    5  A    between atoms: C_14  and  O_23 
ROOT
HETATM    1  C   UNL     1       3.697 -11.374  10.187  1.00  0.00     0.032 A 
HETATM    2  C   UNL     1       5.384 -11.141   8.022  1.00  0.00     0.298 A 
HETATM    3  C   UNL     1       4.095 -10.599   7.915  1.00  0.00     0.060 A 
HETATM    4  C   UNL     1       3.229 -10.698   8.968  1.00  0.00     0.091 A 
HETATM    5  C   UNL     1       2.865 -11.513  11.299  1.00  0.00     0.017 A 
HETATM    6  C   UNL     1       3.333 -12.152  12.425  1.00  0.00     0.001 A 
HETATM    7  C   UNL     1       4.624 -12.658  12.457  1.00  0.00     0.003 A 
HETATM    8  C   UNL     1       5.456 -12.529  11.365  1.00  0.00     0.038 A 
HETATM    9  C   UNL     1       5.003 -11.887  10.219  1.00  0.00     0.092 A 
HETATM   10  O   UNL     1       5.804 -11.753   9.141  1.00  0.00    -0.274 OA
HETATM   11  O   UNL     1       6.148 -11.046   7.078  1.00  0.00    -0.259 OA
ENDROOT
BRANCH   4  12
HETATM   12  O   UNL     1       1.978 -10.188   8.891  1.00  0.00    -0.359 OA
HETATM   13  H   UNL     1       2.043  -9.363   8.394  1.00  0.00     0.217 HD
ENDBRANCH   4  12
BRANCH   3  14
HETATM   14  C   UNL     1       3.665  -9.915   6.644  1.00  0.00     0.067 C 
BRANCH  14  15
HETATM   15  C   UNL     1       4.168 -10.714   5.440  1.00  0.00     0.092 C 
BRANCH  15  16
HETATM   16  C   UNL     1       3.008 -11.049   4.538  1.00  0.00     0.124 C 
HETATM   17  C   UNL     1       3.228 -11.890   3.308  1.00  0.00     0.091 C 
HETATM   18  O   UNL     1       1.902 -10.643   4.802  1.00  0.00    -0.298 OA
ENDBRANCH  15  16
ENDBRANCH  14  15
BRANCH  14  19
HETATM   19  C   UNL     1       4.243  -8.525   6.600  1.00  0.00    -0.049 A 
HETATM   20  C   UNL     1       5.279  -8.234   5.732  1.00  0.00     0.008 A 
HETATM   21  C   UNL     1       5.809  -6.958   5.692  1.00  0.00     0.001 A 
HETATM   22  C   UNL     1       5.304  -5.973   6.519  1.00  0.00     0.000 A 
HETATM   23  C   UNL     1       4.269  -6.265   7.387  1.00  0.00     0.001 A 
HETATM   24  C   UNL     1       3.735  -7.539   7.423  1.00  0.00     0.008 A 
ENDBRANCH  14  19
ENDBRANCH   3  14
TORSDOF 5
ENDMDL
MODEL 4
REMARK VINA RESULT:    -9.342      1.764      5.462
REMARK INTER + INTRA:         -11.336
REMARK INTER:                 -11.207
REMARK INTRA:                  -0.129
REMARK UNBOUND:                 0.464
REMARK  5 active torsions:
REMARK  status: ('A' for Active; 'I' for Inactive)
REMARK    1  A    between atoms: C_2  and  C_3 
REMARK    2  A    between atoms: C_2  and  C_6 
REMARK    3  A    between atoms: C_2  and  C_13 
REMARK    4  A    between atoms: C_3  and  C_4 
REMARK    5  A    between atoms: C_14  and  O_23 
ROOT
HETATM    1  C   UNL     1       3.303 -11.065   4.390  1.00  0.00     0.032 A 
HETATM    2  C   UNL     1       5.438 -10.695   6.090  1.00  0.00     0.298 A 
HETATM    3  C   UNL     1       4.315  -9.871   6.253  1.00  0.00     0.060 A 
HETATM    4  C   UNL     1       3.238 -10.024   5.425  1.00  0.00     0.091 A 
HETATM    5  C   UNL     1       2.240 -11.275   3.509  1.00  0.00     0.017 A 
HETATM    6  C   UNL     1       2.334 -12.258   2.550  1.00  0.00     0.001 A 
HETATM    7  C   UNL     1       3.477 -13.038   2.455  1.00  0.00     0.003 A 
HETATM    8  C   UNL     1       4.535 -12.840   3.318  1.00  0.00     0.038 A 
HETATM    9  C   UNL     1       4.460 -11.854   4.293  1.00  0.00     0.092 A 
HETATM   10  O   UNL     1       5.487 -11.647   5.144  1.00  0.00    -0.274 OA
HETATM   11  O   UNL     1       6.392 -10.550   6.834  1.00  0.00    -0.259 OA
ENDROOT
BRANCH   4  12
HETATM   12  O   UNL     1       2.143  -9.240   5.556  1.00  0.00    -0.359 OA
HETATM   13  H   UNL     1       1.389  -9.831   5.679  1.00  0.00     0.217 HD
ENDBRANCH   4  12
BRANCH   3  14
HETATM   14  C   UNL     1       4.298  -8.819   7.330  1.00  0.00     0.067 C 
BRANCH  14  15
HETATM   15  C   UNL     1       3.050  -8.996   8.196  1.00  0.00     0.092 C 
BRANCH  15  16
HETATM   16  C   UNL     1       3.440  -9.589   9.526  1.00  0.00     0.124 C 
HETATM   17  C   UNL     1       4.256 -10.855   9.576  1.00  0.00     0.091 C 
HETATM   18  O   UNL     1       3.097  -9.052  10.550  1.00  0.00    -0.298 OA
ENDBRANCH  15  16
ENDBRANCH  14  15
BRANCH  14  19
HETATM   19  C   UNL     1       4.281  -7.452   6.698  1.00  0.00    -0.049 A 
HETATM   20  C   UNL     1       3.310  -6.536   7.059  1.00  0.00     0.008 A 
HETATM   21  C   UNL     1       3.294  -5.281   6.479  1.00  0.00     0.001 A 
HETATM   22  C   UNL     1       4.248  -4.942   5.540  1.00  0.00     0.000 A 
HETATM   23  C   UNL     1       5.219  -5.858   5.180  1.00  0.00     0.001 A 
HETATM   24  C   UNL     1       5.238  -7.110   5.763  1.00  0.00     0.008 A 
ENDBRANCH  14  19
ENDBRANCH   3  14
TORSDOF 5
ENDMDL
MODEL 5
REMARK VINA RESULT:    -9.275      1.631      5.292
REMARK INTER + INTRA:         -11.251
REMARK INTER:                 -11.009
REMARK INTRA:                  -0.242
REMARK UNBOUND:                 0.464
REMARK  5 active torsions:
REMARK  status: ('A' for Active; 'I' for Inactive)
REMARK    1  A    between atoms: C_2  and  C_3 
REMARK    2  A    between atoms: C_2  and  C_6 
REMARK    3  A    between atoms: C_2  and  C_13 
REMARK    4  A    between atoms: C_3  and  C_4 
REMARK    5  A    between atoms: C_14  and  O_23 
ROOT
HETATM    1  C   UNL     1       4.943  -7.171   6.304  1.00  0.00     0.032 A 
HETATM    2  C   UNL     1       3.179  -8.858   7.579  1.00  0.00     0.298 A 
HETATM    3  C   UNL     1       4.203  -9.432   6.811  1.00  0.00     0.060 A 
HETATM    4  C   UNL     1       5.095  -8.626   6.162  1.00  0.00     0.091 A 
HETATM    5  C   UNL     1       5.818  -6.288   5.666  1.00  0.00     0.017 A 
HETATM    6  C   UNL     1       5.647  -4.931   5.819  1.00  0.00     0.001 A 
HETATM    7  C   UNL     1       4.612  -4.439   6.601  1.00  0.00     0.003 A 
HETATM    8  C   UNL     1       3.741  -5.299   7.235  1.00  0.00     0.038 A 
HETATM    9  C   UNL     1       3.896  -6.672   7.094  1.00  0.00     0.092 A 
HETATM   10  O   UNL     1       3.051  -7.528   7.707  1.00  0.00    -0.274 OA
HETATM   11  O   UNL     1       2.390  -9.587   8.155  1.00  0.00    -0.259 OA
ENDROOT
BRANCH   4  12
HETATM   12  O   UNL     1       6.090  -9.152   5.410  1.00  0.00    -0.359 OA
HETATM   13  H   UNL     1       5.919 -10.100   5.344  1.00  0.00     0.217 HD
ENDBRANCH   4  12
BRANCH   3  14
HETATM   14  C   UNL     1       4.316 -10.930   6.699  1.00  0.00     0.067 C 
BRANCH  14  15
HETATM   15  C   UNL     1       5.769 -11.351   6.924  1.00  0.00     0.092 C 
BRANCH  15  16
HETATM   16  C   UNL     1       5.926 -11.888   8.323  1.00  0.00     0.124 C 
HETATM   17  C   UNL     1       4.710 -12.129   9.179  1.00  0.00     0.091 C 
HETATM   18  O   UNL     1       7.026 -12.125   8.758  1.00  0.00    -0.298 OA
ENDBRANCH  15  16
ENDBRANCH  14  15
BRANCH  14  19
HETATM   19  C   UNL     1       3.874 -11.366   5.327  1.00  0.00    -0.049 A 
HETATM   20  C   UNL     1       4.749 -12.051   4.504  1.00  0.00     0.008 A 
HETATM   21  C   UNL     1       4.344 -12.451   3.244  1.00  0.00     0.001 A 
HETATM   22  C   UNL     1       3.064 -12.167   2.808  1.00  0.00     0.000 A 
HETATM   23  C   UNL     1       2.190 -11.483   3.630  1.00  0.00     0.001 A 
HETATM   24  C   UNL     1       2.593 -11.087   4.892  1.00  0.00     0.008 A 
ENDBRANCH  14  19
ENDBRANCH   3  14
TORSDOF 5
ENDMDL
MODEL 6
REMARK VINA RESULT:    -9.219      1.976      5.145
REMARK INTER + INTRA:         -11.180
REMARK INTER:                 -11.327
REMARK INTRA:                   0.147
REMARK UNBOUND:                 0.464
REMARK  5 active torsions:
REMARK  status: ('A' for Active; 'I' for Inactive)
REMARK    1  A    between atoms: C_2  and  C_3 
REMARK    2  A    between atoms: C_2  and  C_6 
REMARK    3  A    between atoms: C_2  and  C_13 
REMARK    4  A    between atoms: C_3  and  C_4 
REMARK    5  A    between atoms: C_14  and  O_23 
ROOT
HETATM    1  C   UNL     1       3.907  -6.839   6.462  1.00  0.00     0.032 A 
HETATM    2  C   UNL     1       5.434  -8.814   5.296  1.00  0.00     0.298 A 
HETATM    3  C   UNL     1       4.358  -9.204   6.107  1.00  0.00     0.060 A 
HETATM    4  C   UNL     1       3.580  -8.252   6.704  1.00  0.00     0.091 A 
HETATM    5  C   UNL     1       3.156  -5.815   7.041  1.00  0.00     0.017 A 
HETATM    6  C   UNL     1       3.490  -4.502   6.795  1.00  0.00     0.001 A 
HETATM    7  C   UNL     1       4.566  -4.195   5.975  1.00  0.00     0.003 A 
HETATM    8  C   UNL     1       5.317  -5.197   5.398  1.00  0.00     0.038 A 
HETATM    9  C   UNL     1       4.997  -6.528   5.633  1.00  0.00     0.092 A 
HETATM   10  O   UNL     1       5.722  -7.521   5.077  1.00  0.00    -0.274 OA
HETATM   11  O   UNL     1       6.120  -9.671   4.768  1.00  0.00    -0.259 OA
ENDROOT
BRANCH   4  12
HETATM   12  O   UNL     1       2.539  -8.599   7.495  1.00  0.00    -0.359 OA
HETATM   13  H   UNL     1       2.341  -7.833   8.049  1.00  0.00     0.217 HD
ENDBRANCH   4  12
BRANCH   3  14
HETATM   14  C   UNL     1       4.064 -10.666   6.323  1.00  0.00     0.067 C 
BRANCH  14  15
HETATM   15  C   UNL     1       5.317 -11.364   6.854  1.00  0.00     0.092 C 
BRANCH  15  16
HETATM   16  C   UNL     1       5.255 -11.433   8.358  1.00  0.00     0.124 C 
HETATM   17  C   UNL     1       6.358 -12.113   9.127  1.00  0.00     0.091 C 
HETATM   18  O   UNL     1       4.322 -10.945   8.946  1.00  0.00    -0.298 OA
ENDBRANCH  15  16
ENDBRANCH  14  15
BRANCH  14  19
HETATM   19  C   UNL     1       3.654 -11.294   5.017  1.00  0.00    -0.049 A 
HETATM   20  C   UNL     1       4.538 -12.111   4.335  1.00  0.00     0.008 A 
HETATM   21  C   UNL     1       4.162 -12.688   3.137  1.00  0.00     0.001 A 
HETATM   22  C   UNL     1       2.903 -12.450   2.621  1.00  0.00     0.000 A 
HETATM   23  C   UNL     1       2.020 -11.634   3.302  1.00  0.00     0.001 A 
HETATM   24  C   UNL     1       2.394 -11.061   4.503  1.00  0.00     0.008 A 
ENDBRANCH  14  19
ENDBRANCH   3  14
TORSDOF 5
ENDMDL
MODEL 7
REMARK VINA RESULT:    -8.716      2.063      5.918
REMARK INTER + INTRA:         -10.546
REMARK INTER:                 -10.880
REMARK INTRA:                   0.335
REMARK UNBOUND:                 0.464
REMARK  5 active torsions:
REMARK  status: ('A' for Active; 'I' for Inactive)
REMARK    1  A    between atoms: C_2  and  C_3 
REMARK    2  A    between atoms: C_2  and  C_6 
REMARK    3  A    between atoms: C_2  and  C_13 
REMARK    4  A    between atoms: C_3  and  C_4 
REMARK    5  A    between atoms: C_14  and  O_23 
ROOT
HETATM    1  C   UNL     1       4.654  -7.241   5.998  1.00  0.00     0.032 A 
HETATM    2  C   UNL     1       3.150  -9.522   6.350  1.00  0.00     0.298 A 
HETATM    3  C   UNL     1       4.509  -9.670   6.040  1.00  0.00     0.060 A 
HETATM    4  C   UNL     1       5.287  -8.561   5.856  1.00  0.00     0.091 A 
HETATM    5  C   UNL     1       5.388  -6.067   5.822  1.00  0.00     0.017 A 
HETATM    6  C   UNL     1       4.765  -4.847   5.961  1.00  0.00     0.001 A 
HETATM    7  C   UNL     1       3.415  -4.782   6.275  1.00  0.00     0.003 A 
HETATM    8  C   UNL     1       2.679  -5.934   6.451  1.00  0.00     0.038 A 
HETATM    9  C   UNL     1       3.289  -7.175   6.315  1.00  0.00     0.092 A 
HETATM   10  O   UNL     1       2.582  -8.312   6.483  1.00  0.00    -0.274 OA
HETATM   11  O   UNL     1       2.467 -10.517   6.513  1.00  0.00    -0.259 OA
ENDROOT
BRANCH   4  12
HETATM   12  O   UNL     1       6.600  -8.674   5.551  1.00  0.00    -0.359 OA
HETATM   13  H   UNL     1       7.024  -9.112   6.300  1.00  0.00     0.217 HD
ENDBRANCH   4  12
BRANCH   3  14
HETATM   14  C   UNL     1       5.109 -11.045   5.906  1.00  0.00     0.067 C 
BRANCH  14  15
HETATM   15  C   UNL     1       4.240 -11.892   4.975  1.00  0.00     0.092 C 
BRANCH  15  16
HETATM   16  C   UNL     1       4.918 -12.023   3.635  1.00  0.00     0.124 C 
HETATM   17  C   UNL     1       4.253 -12.797   2.526  1.00  0.00     0.091 C 
HETATM   18  O   UNL     1       5.993 -11.508   3.450  1.00  0.00    -0.298 OA
ENDBRANCH  15  16
ENDBRANCH  14  15
BRANCH  14  19
HETATM   19  C   UNL     1       5.177 -11.698   7.261  1.00  0.00    -0.049 A 
HETATM   20  C   UNL     1       5.350 -13.067   7.361  1.00  0.00     0.008 A 
HETATM   21  C   UNL     1       5.413 -13.666   8.605  1.00  0.00     0.001 A 
HETATM   22  C   UNL     1       5.304 -12.899   9.748  1.00  0.00     0.000 A 
HETATM   23  C   UNL     1       5.132 -11.531   9.648  1.00  0.00     0.001 A 
HETATM   24  C   UNL     1       5.074 -10.931   8.405  1.00  0.00     0.008 A 
ENDBRANCH  14  19
ENDBRANCH   3  14
TORSDOF 5
ENDMDL
MODEL 8
REMARK VINA RESULT:    -8.455      2.434      6.409
REMARK INTER + INTRA:         -10.215
REMARK INTER:                 -10.524
REMARK INTRA:                   0.309
REMARK UNBOUND:                 0.464
REMARK  5 active torsions:
REMARK  status: ('A' for Active; 'I' for Inactive)
REMARK    1  A    between atoms: C_2  and  C_3 
REMARK    2  A    between atoms: C_2  and  C_6 
REMARK    3  A    between atoms: C_2  and  C_13 
REMARK    4  A    between atoms: C_3  and  C_4 
REMARK    5  A    between atoms: C_14  and  O_23 
ROOT
HETATM    1  C   UNL     1       4.148  -9.766   7.719  1.00  0.00     0.032 A 
HETATM    2  C   UNL     1       6.272 -11.516   7.610  1.00  0.00     0.298 A 
HETATM    3  C   UNL     1       5.285 -11.736   8.581  1.00  0.00     0.060 A 
HETATM    4  C   UNL     1       4.218 -10.887   8.667  1.00  0.00     0.091 A 
HETATM    5  C   UNL     1       3.086  -8.859   7.751  1.00  0.00     0.017 A 
HETATM    6  C   UNL     1       3.051  -7.820   6.849  1.00  0.00     0.001 A 
HETATM    7  C   UNL     1       4.064  -7.671   5.912  1.00  0.00     0.003 A 
HETATM    8  C   UNL     1       5.118  -8.558   5.870  1.00  0.00     0.038 A 
HETATM    9  C   UNL     1       5.172  -9.614   6.771  1.00  0.00     0.092 A 
HETATM   10  O   UNL     1       6.197 -10.491   6.744  1.00  0.00    -0.274 OA
HETATM   11  O   UNL     1       7.219 -12.280   7.542  1.00  0.00    -0.259 OA
ENDROOT
BRANCH   4  12
HETATM   12  O   UNL     1       3.253 -11.073   9.597  1.00  0.00    -0.359 OA
HETATM   13  H   UNL     1       2.894 -10.201   9.806  1.00  0.00     0.217 HD
ENDBRANCH   4  12
BRANCH   3  14
HETATM   14  C   UNL     1       5.404 -12.901   9.529  1.00  0.00     0.067 C 
BRANCH  14  15
HETATM   15  C   UNL     1       4.358 -13.958   9.172  1.00  0.00     0.092 C 
BRANCH  15  16
HETATM   16  C   UNL     1       5.047 -15.191   8.649  1.00  0.00     0.124 C 
HETATM   17  C   UNL     1       4.311 -16.506   8.607  1.00  0.00     0.091 C 
HETATM   18  O   UNL     1       6.188 -15.127   8.264  1.00  0.00    -0.298 OA
ENDBRANCH  15  16
ENDBRANCH  14  15
BRANCH  14  19
HETATM   19  C   UNL     1       5.177 -12.426  10.940  1.00  0.00    -0.049 A 
HETATM   20  C   UNL     1       4.309 -13.113  11.770  1.00  0.00     0.008 A 
HETATM   21  C   UNL     1       4.101 -12.677  13.065  1.00  0.00     0.001 A 
HETATM   22  C   UNL     1       4.759 -11.555  13.531  1.00  0.00     0.000 A 
HETATM   23  C   UNL     1       5.625 -10.869  12.702  1.00  0.00     0.001 A 
HETATM   24  C   UNL     1       5.838 -11.307  11.408  1.00  0.00     0.008 A 
ENDBRANCH  14  19
ENDBRANCH   3  14
TORSDOF 5
ENDMDL
MODEL 9
REMARK VINA RESULT:    -8.407      1.793      5.925
REMARK INTER + INTRA:         -10.154
REMARK INTER:                 -10.160
REMARK INTRA:                   0.005
REMARK UNBOUND:                 0.464
REMARK  5 active torsions:
REMARK  status: ('A' for Active; 'I' for Inactive)
REMARK    1  A    between atoms: C_2  and  C_3 
REMARK    2  A    between atoms: C_2  and  C_6 
REMARK    3  A    between atoms: C_2  and  C_13 
REMARK    4  A    between atoms: C_3  and  C_4 
REMARK    5  A    between atoms: C_14  and  O_23 
ROOT
HETATM    1  C   UNL     1       4.149 -11.085   4.698  1.00  0.00     0.032 A 
HETATM    2  C   UNL     1       2.631  -9.055   5.776  1.00  0.00     0.298 A 
HETATM    3  C   UNL     1       3.921  -9.258   6.288  1.00  0.00     0.060 A 
HETATM    4  C   UNL     1       4.702 -10.258   5.779  1.00  0.00     0.091 A 
HETATM    5  C   UNL     1       4.891 -12.125   4.133  1.00  0.00     0.017 A 
HETATM    6  C   UNL     1       4.342 -12.882   3.122  1.00  0.00     0.001 A 
HETATM    7  C   UNL     1       3.060 -12.616   2.664  1.00  0.00     0.003 A 
HETATM    8  C   UNL     1       2.317 -11.593   3.214  1.00  0.00     0.038 A 
HETATM    9  C   UNL     1       2.851 -10.817   4.235  1.00  0.00     0.092 A 
HETATM   10  O   UNL     1       2.136  -9.813   4.784  1.00  0.00    -0.274 OA
HETATM   11  O   UNL     1       1.945  -8.160   6.236  1.00  0.00    -0.259 OA
ENDROOT
BRANCH   4  12
HETATM   12  O   UNL     1       5.949 -10.479   6.257  1.00  0.00    -0.359 OA
HETATM   13  H   UNL     1       6.093 -11.434   6.229  1.00  0.00     0.217 HD
ENDBRANCH   4  12
BRANCH   3  14
HETATM   14  C   UNL     1       4.442  -8.381   7.397  1.00  0.00     0.067 C 
BRANCH  14  15
HETATM   15  C   UNL     1       3.472  -8.424   8.579  1.00  0.00     0.092 C 
BRANCH  15  16
HETATM   16  C   UNL     1       3.294  -9.851   9.032  1.00  0.00     0.124 C 
HETATM   17  C   UNL     1       4.490 -10.662   9.456  1.00  0.00     0.091 C 
HETATM   18  O   UNL     1       2.192 -10.343   9.053  1.00  0.00    -0.298 OA
ENDBRANCH  15  16
ENDBRANCH  14  15
BRANCH  14  19
HETATM   19  C   UNL     1       4.567  -6.965   6.901  1.00  0.00    -0.049 A 
HETATM   20  C   UNL     1       4.005  -5.928   7.623  1.00  0.00     0.008 A 
HETATM   21  C   UNL     1       4.120  -4.627   7.169  1.00  0.00     0.001 A 
HETATM   22  C   UNL     1       4.796  -4.364   5.993  1.00  0.00     0.000 A 
HETATM   23  C   UNL     1       5.357  -5.400   5.272  1.00  0.00     0.001 A 
HETATM   24  C   UNL     1       5.247  -6.700   5.729  1.00  0.00     0.008 A 
ENDBRANCH  14  19
ENDBRANCH   3  14
TORSDOF 5
ENDMDL
MODEL 10
REMARK VINA RESULT:    -8.343      1.817      5.743
REMARK INTER + INTRA:         -10.074
REMARK INTER:                 -10.385
REMARK INTRA:                   0.311
REMARK UNBOUND:                 0.464
REMARK  5 active torsions:
REMARK  status: ('A' for Active; 'I' for Inactive)
REMARK    1  A    between atoms: C_2  and  C_3 
REMARK    2  A    between atoms: C_2  and  C_6 
REMARK    3  A    between atoms: C_2  and  C_13 
REMARK    4  A    between atoms: C_3  and  C_4 
REMARK    5  A    between atoms: C_14  and  O_23 
ROOT
HETATM    1  C   UNL     1       3.918  -6.493   6.492  1.00  0.00     0.032 A 
HETATM    2  C   UNL     1       5.667  -8.325   5.410  1.00  0.00     0.298 A 
HETATM    3  C   UNL     1       4.522  -8.810   6.059  1.00  0.00     0.060 A 
HETATM    4  C   UNL     1       3.633  -7.930   6.611  1.00  0.00     0.091 A 
HETATM    5  C   UNL     1       3.054  -5.539   7.034  1.00  0.00     0.017 A 
HETATM    6  C   UNL     1       3.351  -4.201   6.906  1.00  0.00     0.001 A 
HETATM    7  C   UNL     1       4.501  -3.798   6.244  1.00  0.00     0.003 A 
HETATM    8  C   UNL     1       5.363  -4.730   5.705  1.00  0.00     0.038 A 
HETATM    9  C   UNL     1       5.082  -6.085   5.823  1.00  0.00     0.092 A 
HETATM   10  O   UNL     1       5.916  -7.010   5.303  1.00  0.00    -0.274 OA
HETATM   11  O   UNL     1       6.451  -9.119   4.921  1.00  0.00    -0.259 OA
ENDROOT
BRANCH   4  12
HETATM   12  O   UNL     1       2.522  -8.369   7.247  1.00  0.00    -0.359 OA
HETATM   13  H   UNL     1       2.732  -9.240   7.607  1.00  0.00     0.217 HD
ENDBRANCH   4  12
BRANCH   3  14
HETATM   14  C   UNL     1       4.276 -10.293   6.153  1.00  0.00     0.067 C 
BRANCH  14  15
HETATM   15  C   UNL     1       2.775 -10.568   6.050  1.00  0.00     0.092 C 
BRANCH  15  16
HETATM   16  C   UNL     1       2.440 -11.022   4.653  1.00  0.00     0.124 C 
HETATM   17  C   UNL     1       3.533 -11.507   3.736  1.00  0.00     0.091 C 
HETATM   18  O   UNL     1       1.297 -10.996   4.267  1.00  0.00    -0.298 OA
ENDBRANCH  15  16
ENDBRANCH  14  15
BRANCH  14  19
HETATM   19  C   UNL     1       4.791 -10.806   7.471  1.00  0.00    -0.049 A 
HETATM   20  C   UNL     1       4.088 -10.553   8.635  1.00  0.00     0.008 A 
HETATM   21  C   UNL     1       4.561 -11.024   9.845  1.00  0.00     0.001 A 
HETATM   22  C   UNL     1       5.736 -11.748   9.893  1.00  0.00     0.000 A 
HETATM   23  C   UNL     1       6.439 -12.000   8.730  1.00  0.00     0.001 A 
HETATM   24  C   UNL     1       5.964 -11.534   7.519  1.00  0.00     0.008 A 
ENDBRANCH  14  19
ENDBRANCH   3  14
TORSDOF 5
ENDMDL
MODEL 11
REMARK VINA RESULT:    -8.293      1.550      4.077
REMARK INTER + INTRA:         -10.010
REMARK INTER:                 -10.082
REMARK INTRA:                   0.072
REMARK UNBOUND:                 0.464
REMARK  5 active torsions:
REMARK  status: ('A' for Active; 'I' for Inactive)
REMARK    1  A    between atoms: C_2  and  C_3 
REMARK    2  A    between atoms: C_2  and  C_6 
REMARK    3  A    between atoms: C_2  and  C_13 
REMARK    4  A    between atoms: C_3  and  C_4 
REMARK    5  A    between atoms: C_14  and  O_23 
ROOT
HETATM    1  C   UNL     1       5.002 -11.821   8.975  1.00  0.00     0.032 A 
HETATM    2  C   UNL     1       2.956 -10.058   8.434  1.00  0.00     0.298 A 
HETATM    3  C   UNL     1       3.813 -10.417   7.383  1.00  0.00     0.060 A 
HETATM    4  C   UNL     1       4.841 -11.288   7.614  1.00  0.00     0.091 A 
HETATM    5  C   UNL     1       6.031 -12.713   9.283  1.00  0.00     0.017 A 
HETATM    6  C   UNL     1       6.155 -13.194  10.567  1.00  0.00     0.001 A 
HETATM    7  C   UNL     1       5.263 -12.796  11.552  1.00  0.00     0.003 A 
HETATM    8  C   UNL     1       4.243 -11.916  11.262  1.00  0.00     0.038 A 
HETATM    9  C   UNL     1       4.101 -11.419   9.973  1.00  0.00     0.092 A 
HETATM   10  O   UNL     1       3.108 -10.555   9.672  1.00  0.00    -0.274 OA
HETATM   11  O   UNL     1       2.043  -9.282   8.215  1.00  0.00    -0.259 OA
ENDROOT
BRANCH   4  12
HETATM   12  O   UNL     1       5.686 -11.648   6.621  1.00  0.00    -0.359 OA
HETATM   13  H   UNL     1       5.779 -10.881   6.042  1.00  0.00     0.217 HD
ENDBRANCH   4  12
BRANCH   3  14
HETATM   14  C   UNL     1       3.604  -9.842   6.007  1.00  0.00     0.067 C 
BRANCH  14  15
HETATM   15  C   UNL     1       3.906 -10.911   4.956  1.00  0.00     0.092 C 
BRANCH  15  16
HETATM   16  C   UNL     1       2.641 -11.262   4.216  1.00  0.00     0.124 C 
HETATM   17  C   UNL     1       2.701 -12.146   2.997  1.00  0.00     0.091 C 
HETATM   18  O   UNL     1       1.580 -10.834   4.600  1.00  0.00    -0.298 OA
ENDBRANCH  15  16
ENDBRANCH  14  15
BRANCH  14  19
HETATM   19  C   UNL     1       4.526  -8.668   5.808  1.00  0.00    -0.049 A 
HETATM   20  C   UNL     1       5.491  -8.706   4.818  1.00  0.00     0.008 A 
HETATM   21  C   UNL     1       6.336  -7.628   4.635  1.00  0.00     0.001 A 
HETATM   22  C   UNL     1       6.218  -6.512   5.440  1.00  0.00     0.000 A 
HETATM   23  C   UNL     1       5.254  -6.474   6.429  1.00  0.00     0.001 A 
HETATM   24  C   UNL     1       4.405  -7.549   6.609  1.00  0.00     0.008 A 
ENDBRANCH  14  19
ENDBRANCH   3  14
TORSDOF 5
ENDMDL
MODEL 12
REMARK VINA RESULT:    -8.176      2.300      4.437
REMARK INTER + INTRA:          -9.863
REMARK INTER:                 -10.392
REMARK INTRA:                   0.529
REMARK UNBOUND:                 0.464
REMARK  5 active torsions:
REMARK  status: ('A' for Active; 'I' for Inactive)
REMARK    1  A    between atoms: C_2  and  C_3 
REMARK    2  A    between atoms: C_2  and  C_6 
REMARK    3  A    between atoms: C_2  and  C_13 
REMARK    4  A    between atoms: C_3  and  C_4 
REMARK    5  A    between atoms: C_14  and  O_23 
ROOT
HETATM    1  C   UNL     1       4.645 -11.012   8.105  1.00  0.00     0.032 A 
HETATM    2  C   UNL     1       3.036  -9.651   6.332  1.00  0.00     0.298 A 
HETATM    3  C   UNL     1       4.081 -10.428   5.812  1.00  0.00     0.060 A 
HETATM    4  C   UNL     1       4.902 -11.115   6.661  1.00  0.00     0.091 A 
HETATM    5  C   UNL     1       5.446 -11.686   9.030  1.00  0.00     0.017 A 
HETATM    6  C   UNL     1       5.179 -11.568  10.375  1.00  0.00     0.001 A 
HETATM    7  C   UNL     1       4.121 -10.785  10.813  1.00  0.00     0.003 A 
HETATM    8  C   UNL     1       3.324 -10.113   9.911  1.00  0.00     0.038 A 
HETATM    9  C   UNL     1       3.576 -10.219   8.549  1.00  0.00     0.092 A 
HETATM   10  O   UNL     1       2.806  -9.567   7.653  1.00  0.00    -0.274 OA
HETATM   11  O   UNL     1       2.309  -9.044   5.565  1.00  0.00    -0.259 OA
ENDROOT
BRANCH   4  12
HETATM   12  O   UNL     1       5.921 -11.868   6.187  1.00  0.00    -0.359 OA
HETATM   13  H   UNL     1       6.657 -11.764   6.805  1.00  0.00     0.217 HD
ENDBRANCH   4  12
BRANCH   3  14
HETATM   14  C   UNL     1       4.301 -10.500   4.323  1.00  0.00     0.067 C 
BRANCH  14  15
HETATM   15  C   UNL     1       4.960 -11.834   3.969  1.00  0.00     0.092 C 
BRANCH  15  16
HETATM   16  C   UNL     1       4.066 -12.603   3.031  1.00  0.00     0.124 C 
HETATM   17  C   UNL     1       2.602 -12.261   2.934  1.00  0.00     0.091 C 
HETATM   18  O   UNL     1       4.523 -13.494   2.358  1.00  0.00    -0.298 OA
ENDBRANCH  15  16
ENDBRANCH  14  15
BRANCH  14  19
HETATM   19  C   UNL     1       5.196  -9.368   3.892  1.00  0.00    -0.049 A 
HETATM   20  C   UNL     1       5.629  -9.290   2.581  1.00  0.00     0.008 A 
HETATM   21  C   UNL     1       6.450  -8.251   2.185  1.00  0.00     0.001 A 
HETATM   22  C   UNL     1       6.838  -7.290   3.099  1.00  0.00     0.000 A 
HETATM   23  C   UNL     1       6.405  -7.368   4.408  1.00  0.00     0.001 A 
HETATM   24  C   UNL     1       5.580  -8.404   4.803  1.00  0.00     0.008 A 
ENDBRANCH  14  19
ENDBRANCH   3  14
TORSDOF 5
ENDMDL
MODEL 13
REMARK VINA RESULT:    -8.094      2.360      5.895
REMARK INTER + INTRA:          -9.760
REMARK INTER:                 -10.806
REMARK INTRA:                   1.046
REMARK UNBOUND:                 0.464
REMARK  5 active torsions:
REMARK  status: ('A' for Active; 'I' for Inactive)
REMARK    1  A    between atoms: C_2  and  C_3 
REMARK    2  A    between atoms: C_2  and  C_6 
REMARK    3  A    between atoms: C_2  and  C_13 
REMARK    4  A    between atoms: C_3  and  C_4 
REMARK    5  A    between atoms: C_14  and  O_23 
ROOT
HETATM    1  C   UNL     1       4.540  -9.829   7.517  1.00  0.00     0.032 A 
HETATM    2  C   UNL     1       2.948 -10.781   9.553  1.00  0.00     0.298 A 
HETATM    3  C   UNL     1       4.218 -11.352   9.387  1.00  0.00     0.060 A 
HETATM    4  C   UNL     1       5.035 -10.907   8.385  1.00  0.00     0.091 A 
HETATM    5  C   UNL     1       5.320  -9.327   6.474  1.00  0.00     0.017 A 
HETATM    6  C   UNL     1       4.826  -8.317   5.678  1.00  0.00     0.001 A 
HETATM    7  C   UNL     1       3.560  -7.799   5.910  1.00  0.00     0.003 A 
HETATM    8  C   UNL     1       2.779  -8.286   6.936  1.00  0.00     0.038 A 
HETATM    9  C   UNL     1       3.259  -9.305   7.750  1.00  0.00     0.092 A 
HETATM   10  O   UNL     1       2.506  -9.794   8.758  1.00  0.00    -0.274 OA
HETATM   11  O   UNL     1       2.229 -11.186  10.450  1.00  0.00    -0.259 OA
ENDROOT
BRANCH   4  12
HETATM   12  O   UNL     1       6.263 -11.442   8.198  1.00  0.00    -0.359 OA
HETATM   13  H   UNL     1       6.233 -12.341   8.550  1.00  0.00     0.217 HD
ENDBRANCH   4  12
BRANCH   3  14
HETATM   14  C   UNL     1       4.678 -12.455  10.304  1.00  0.00     0.067 C 
BRANCH  14  15
HETATM   15  C   UNL     1       5.746 -11.914  11.256  1.00  0.00     0.092 C 
BRANCH  15  16
HETATM   16  C   UNL     1       5.197 -11.875  12.659  1.00  0.00     0.124 C 
HETATM   17  C   UNL     1       3.970 -12.675  13.010  1.00  0.00     0.091 C 
HETATM   18  O   UNL     1       5.740 -11.202  13.500  1.00  0.00    -0.298 OA
ENDBRANCH  15  16
ENDBRANCH  14  15
BRANCH  14  19
HETATM   19  C   UNL     1       5.257 -13.580   9.487  1.00  0.00    -0.049 A 
HETATM   20  C   UNL     1       4.427 -14.563   8.980  1.00  0.00     0.008 A 
HETATM   21  C   UNL     1       4.958 -15.596   8.229  1.00  0.00     0.001 A 
HETATM   22  C   UNL     1       6.317 -15.645   7.986  1.00  0.00     0.000 A 
HETATM   23  C   UNL     1       7.145 -14.663   8.493  1.00  0.00     0.001 A 
HETATM   24  C   UNL     1       6.615 -13.627   9.239  1.00  0.00     0.008 A 
ENDBRANCH  14  19
ENDBRANCH   3  14
TORSDOF 5
ENDMDL
MODEL 14
REMARK VINA RESULT:    -7.996      2.365      5.829
REMARK INTER + INTRA:          -9.636
REMARK INTER:                 -10.183
REMARK INTRA:                   0.547
REMARK UNBOUND:                 0.464
REMARK  5 active torsions:
REMARK  status: ('A' for Active; 'I' for Inactive)
REMARK    1  A    between atoms: C_2  and  C_3 
REMARK    2  A    between atoms: C_2  and  C_6 
REMARK    3  A    between atoms: C_2  and  C_13 
REMARK    4  A    between atoms: C_3  and  C_4 
REMARK    5  A    between atoms: C_14  and  O_23 
ROOT
HETATM    1  C   UNL     1       3.790  -6.877   7.970  1.00  0.00     0.032 A 
HETATM    2  C   UNL     1       2.924  -9.207   6.784  1.00  0.00     0.298 A 
HETATM    3  C   UNL     1       3.282  -9.250   8.140  1.00  0.00     0.060 A 
HETATM    4  C   UNL     1       3.719  -8.114   8.761  1.00  0.00     0.091 A 
HETATM    5  C   UNL     1       4.229  -5.680   8.540  1.00  0.00     0.017 A 
HETATM    6  C   UNL     1       4.285  -4.540   7.771  1.00  0.00     0.001 A 
HETATM    7  C   UNL     1       3.907  -4.575   6.437  1.00  0.00     0.003 A 
HETATM    8  C   UNL     1       3.473  -5.750   5.861  1.00  0.00     0.038 A 
HETATM    9  C   UNL     1       3.409  -6.913   6.620  1.00  0.00     0.092 A 
HETATM   10  O   UNL     1       2.987  -8.071   6.071  1.00  0.00    -0.274 OA
HETATM   11  O   UNL     1       2.535 -10.226   6.241  1.00  0.00    -0.259 OA
ENDROOT
BRANCH   4  12
HETATM   12  O   UNL     1       4.076  -8.127  10.066  1.00  0.00    -0.359 OA
HETATM   13  H   UNL     1       3.288  -8.371  10.569  1.00  0.00     0.217 HD
ENDBRANCH   4  12
BRANCH   3  14
HETATM   14  C   UNL     1       3.191 -10.544   8.906  1.00  0.00     0.067 C 
BRANCH  14  15
HETATM   15  C   UNL     1       2.963 -10.244  10.388  1.00  0.00     0.092 C 
BRANCH  15  16
HETATM   16  C   UNL     1       2.151 -11.352  11.007  1.00  0.00     0.124 C 
HETATM   17  C   UNL     1       2.739 -12.193  12.111  1.00  0.00     0.091 C 
HETATM   18  O   UNL     1       1.029 -11.568  10.617  1.00  0.00    -0.298 OA
ENDBRANCH  15  16
ENDBRANCH  14  15
BRANCH  14  19
HETATM   19  C   UNL     1       4.472 -11.317   8.741  1.00  0.00    -0.049 A 
HETATM   20  C   UNL     1       5.393 -11.357   9.772  1.00  0.00     0.008 A 
HETATM   21  C   UNL     1       6.570 -12.067   9.621  1.00  0.00     0.001 A 
HETATM   22  C   UNL     1       6.826 -12.737   8.440  1.00  0.00     0.000 A 
HETATM   23  C   UNL     1       5.905 -12.698   7.410  1.00  0.00     0.001 A 
HETATM   24  C   UNL     1       4.727 -11.992   7.563  1.00  0.00     0.008 A 
ENDBRANCH  14  19
ENDBRANCH   3  14
TORSDOF 5
ENDMDL
MODEL 15
REMARK VINA RESULT:    -7.694      2.492      6.574
REMARK INTER + INTRA:          -9.254
REMARK INTER:                  -9.643
REMARK INTRA:                   0.389
REMARK UNBOUND:                 0.464
REMARK  5 active torsions:
REMARK  status: ('A' for Active; 'I' for Inactive)
REMARK    1  A    between atoms: C_2  and  C_3 
REMARK    2  A    between atoms: C_2  and  C_6 
REMARK    3  A    between atoms: C_2  and  C_13 
REMARK    4  A    between atoms: C_3  and  C_4 
REMARK    5  A    between atoms: C_14  and  O_23 
ROOT
HETATM    1  C   UNL     1       4.569  -9.013   7.014  1.00  0.00     0.032 A 
HETATM    2  C   UNL     1       3.336 -10.568   8.924  1.00  0.00     0.298 A 
HETATM    3  C   UNL     1       4.618 -10.943   8.494  1.00  0.00     0.060 A 
HETATM    4  C   UNL     1       5.259 -10.197   7.545  1.00  0.00     0.091 A 
HETATM    5  C   UNL     1       5.165  -8.206   6.042  1.00  0.00     0.017 A 
HETATM    6  C   UNL     1       4.492  -7.104   5.565  1.00  0.00     0.001 A 
HETATM    7  C   UNL     1       3.228  -6.794   6.044  1.00  0.00     0.003 A 
HETATM    8  C   UNL     1       2.628  -7.583   7.003  1.00  0.00     0.038 A 
HETATM    9  C   UNL     1       3.290  -8.699   7.498  1.00  0.00     0.092 A 
HETATM   10  O   UNL     1       2.716  -9.482   8.436  1.00  0.00    -0.274 OA
HETATM   11  O   UNL     1       2.775 -11.240   9.770  1.00  0.00    -0.259 OA
ENDROOT
BRANCH   4  12
HETATM   12  O   UNL     1       6.494 -10.538   7.108  1.00  0.00    -0.359 OA
HETATM   13  H   UNL     1       7.049 -10.642   7.892  1.00  0.00     0.217 HD
ENDBRANCH   4  12
BRANCH   3  14
HETATM   14  C   UNL     1       5.281 -12.166   9.071  1.00  0.00     0.067 C 
BRANCH  14  15
HETATM   15  C   UNL     1       4.549 -13.419   8.588  1.00  0.00     0.092 C 
BRANCH  15  16
HETATM   16  C   UNL     1       5.553 -14.489   8.245  1.00  0.00     0.124 C 
HETATM   17  C   UNL     1       5.152 -15.941   8.283  1.00  0.00     0.091 C 
HETATM   18  O   UNL     1       6.680 -14.183   7.941  1.00  0.00    -0.298 OA
ENDBRANCH  15  16
ENDBRANCH  14  15
BRANCH  14  19
HETATM   19  C   UNL     1       5.231 -12.103  10.574  1.00  0.00    -0.049 A 
HETATM   20  C   UNL     1       4.762 -13.185  11.297  1.00  0.00     0.008 A 
HETATM   21  C   UNL     1       4.716 -13.127  12.677  1.00  0.00     0.001 A 
HETATM   22  C   UNL     1       5.140 -11.989  13.335  1.00  0.00     0.000 A 
HETATM   23  C   UNL     1       5.610 -10.908  12.613  1.00  0.00     0.001 A 
HETATM   24  C   UNL     1       5.660 -10.967  11.233  1.00  0.00     0.008 A 
ENDBRANCH  14  19
ENDBRANCH   3  14
TORSDOF 5
ENDMDL
MODEL 16
REMARK VINA RESULT:    -7.581     10.157     12.979
REMARK INTER + INTRA:          -9.112
REMARK INTER:                  -9.028
REMARK INTRA:                  -0.084
REMARK UNBOUND:                 0.464
REMARK  5 active torsions:
REMARK  status: ('A' for Active; 'I' for Inactive)
REMARK    1  A    between atoms: C_2  and  C_3 
REMARK    2  A    between atoms: C_2  and  C_6 
REMARK    3  A    between atoms: C_2  and  C_13 
REMARK    4  A    between atoms: C_3  and  C_4 
REMARK    5  A    between atoms: C_14  and  O_23 
ROOT
HETATM    1  C   UNL     1      10.879  -5.639  -0.707  1.00  0.00     0.032 A 
HETATM    2  C   UNL     1       9.586  -4.035  -2.536  1.00  0.00     0.298 A 
HETATM    3  C   UNL     1       8.900  -4.384  -1.364  1.00  0.00     0.060 A 
HETATM    4  C   UNL     1       9.508  -5.181  -0.435  1.00  0.00     0.091 A 
HETATM    5  C   UNL     1      11.559  -6.456   0.198  1.00  0.00     0.017 A 
HETATM    6  C   UNL     1      12.842  -6.868  -0.088  1.00  0.00     0.001 A 
HETATM    7  C   UNL     1      13.457  -6.475  -1.267  1.00  0.00     0.003 A 
HETATM    8  C   UNL     1      12.796  -5.669  -2.169  1.00  0.00     0.038 A 
HETATM    9  C   UNL     1      11.502  -5.242  -1.900  1.00  0.00     0.092 A 
HETATM   10  O   UNL     1      10.840  -4.454  -2.773  1.00  0.00    -0.274 OA
HETATM   11  O   UNL     1       9.034  -3.323  -3.356  1.00  0.00    -0.259 OA
ENDROOT
BRANCH   4  12
HETATM   12  O   UNL     1       8.868  -5.538   0.703  1.00  0.00    -0.359 OA
HETATM   13  H   UNL     1       9.322  -6.319   1.046  1.00  0.00     0.217 HD
ENDBRANCH   4  12
BRANCH   3  14
HETATM   14  C   UNL     1       7.496  -3.888  -1.132  1.00  0.00     0.067 C 
BRANCH  14  15
HETATM   15  C   UNL     1       6.633  -4.213  -2.353  1.00  0.00     0.092 C 
BRANCH  15  16
HETATM   16  C   UNL     1       5.747  -5.391  -2.043  1.00  0.00     0.124 C 
HETATM   17  C   UNL     1       5.412  -5.727  -0.613  1.00  0.00     0.091 C 
HETATM   18  O   UNL     1       5.305  -6.066  -2.941  1.00  0.00    -0.298 OA
ENDBRANCH  15  16
ENDBRANCH  14  15
BRANCH  14  19
HETATM   19  C   UNL     1       7.519  -2.399  -0.915  1.00  0.00    -0.049 A 
HETATM   20  C   UNL     1       8.582  -1.813  -0.251  1.00  0.00     0.008 A 
HETATM   21  C   UNL     1       8.603  -0.445  -0.052  1.00  0.00     0.001 A 
HETATM   22  C   UNL     1       7.564   0.337  -0.517  1.00  0.00     0.000 A 
HETATM   23  C   UNL     1       6.503  -0.248  -1.181  1.00  0.00     0.001 A 
HETATM   24  C   UNL     1       6.483  -1.615  -1.384  1.00  0.00     0.008 A 
ENDBRANCH  14  19
ENDBRANCH   3  14
TORSDOF 5
ENDMDL
MODEL 17
REMARK VINA RESULT:    -7.415      1.650      5.367
REMARK INTER + INTRA:          -8.902
REMARK INTER:                  -9.408
REMARK INTRA:                   0.506
REMARK UNBOUND:                 0.464
REMARK  5 active torsions:
REMARK  status: ('A' for Active; 'I' for Inactive)
REMARK    1  A    between atoms: C_2  and  C_3 
REMARK    2  A    between atoms: C_2  and  C_6 
REMARK    3  A    between atoms: C_2  and  C_13 
REMARK    4  A    between atoms: C_3  and  C_4 
REMARK    5  A    between atoms: C_14  and  O_23 
ROOT
HETATM    1  C   UNL     1       3.403 -11.398   4.118  1.00  0.00     0.032 A 
HETATM    2  C   UNL     1       5.233  -9.966   5.598  1.00  0.00     0.298 A 
HETATM    3  C   UNL     1       3.877  -9.855   5.939  1.00  0.00     0.060 A 
HETATM    4  C   UNL     1       2.940 -10.549   5.226  1.00  0.00     0.091 A 
HETATM    5  C   UNL     1       2.501 -12.132   3.347  1.00  0.00     0.017 A 
HETATM    6  C   UNL     1       2.967 -12.917   2.316  1.00  0.00     0.001 A 
HETATM    7  C   UNL     1       4.326 -12.980   2.043  1.00  0.00     0.003 A 
HETATM    8  C   UNL     1       5.227 -12.259   2.797  1.00  0.00     0.038 A 
HETATM    9  C   UNL     1       4.777 -11.461   3.841  1.00  0.00     0.092 A 
HETATM   10  O   UNL     1       5.647 -10.748   4.588  1.00  0.00    -0.274 OA
HETATM   11  O   UNL     1       6.059  -9.343   6.242  1.00  0.00    -0.259 OA
ENDROOT
BRANCH   4  12
HETATM   12  O   UNL     1       1.625 -10.457   5.530  1.00  0.00    -0.359 OA
HETATM   13  H   UNL     1       1.549 -10.582   6.485  1.00  0.00     0.217 HD
ENDBRANCH   4  12
BRANCH   3  14
HETATM   14  C   UNL     1       3.455  -8.971   7.084  1.00  0.00     0.067 C 
BRANCH  14  15
HETATM   15  C   UNL     1       4.212  -7.644   7.010  1.00  0.00     0.092 C 
BRANCH  15  16
HETATM   16  C   UNL     1       3.257  -6.540   6.639  1.00  0.00     0.124 C 
HETATM   17  C   UNL     1       3.551  -5.120   7.047  1.00  0.00     0.091 C 
HETATM   18  O   UNL     1       2.255  -6.793   6.015  1.00  0.00    -0.298 OA
ENDBRANCH  15  16
ENDBRANCH  14  15
BRANCH  14  19
HETATM   19  C   UNL     1       3.767  -9.655   8.388  1.00  0.00    -0.049 A 
HETATM   20  C   UNL     1       3.533  -9.002   9.585  1.00  0.00     0.008 A 
HETATM   21  C   UNL     1       3.819  -9.630  10.783  1.00  0.00     0.001 A 
HETATM   22  C   UNL     1       4.338 -10.911  10.785  1.00  0.00     0.000 A 
HETATM   23  C   UNL     1       4.571 -11.563   9.590  1.00  0.00     0.001 A 
HETATM   24  C   UNL     1       4.281 -10.937   8.392  1.00  0.00     0.008 A 
ENDBRANCH  14  19
ENDBRANCH   3  14
TORSDOF 5
ENDMDL
MODEL 18
REMARK VINA RESULT:    -7.412      9.071     11.988
REMARK INTER + INTRA:          -8.899
REMARK INTER:                  -8.888
REMARK INTRA:                  -0.011
REMARK UNBOUND:                 0.464
REMARK  5 active torsions:
REMARK  status: ('A' for Active; 'I' for Inactive)
REMARK    1  A    between atoms: C_2  and  C_3 
REMARK    2  A    between atoms: C_2  and  C_6 
REMARK    3  A    between atoms: C_2  and  C_13 
REMARK    4  A    between atoms: C_3  and  C_4 
REMARK    5  A    between atoms: C_14  and  O_23 
ROOT
HETATM    1  C   UNL     1      11.504  -8.145  -1.372  1.00  0.00     0.032 A 
HETATM    2  C   UNL     1       8.805  -7.818  -1.814  1.00  0.00     0.298 A 
HETATM    3  C   UNL     1       9.423  -6.991  -0.865  1.00  0.00     0.060 A 
HETATM    4  C   UNL     1      10.760  -7.126  -0.617  1.00  0.00     0.091 A 
HETATM    5  C   UNL     1      12.871  -8.338  -1.168  1.00  0.00     0.017 A 
HETATM    6  C   UNL     1      13.538  -9.301  -1.891  1.00  0.00     0.001 A 
HETATM    7  C   UNL     1      12.858 -10.077  -2.819  1.00  0.00     0.003 A 
HETATM    8  C   UNL     1      11.508  -9.897  -3.029  1.00  0.00     0.038 A 
HETATM    9  C   UNL     1      10.816  -8.931  -2.310  1.00  0.00     0.092 A 
HETATM   10  O   UNL     1       9.494  -8.742  -2.503  1.00  0.00    -0.274 OA
HETATM   11  O   UNL     1       7.612  -7.687  -2.028  1.00  0.00    -0.259 OA
ENDROOT
BRANCH   4  12
HETATM   12  O   UNL     1      11.381  -6.345   0.297  1.00  0.00    -0.359 OA
HETATM   13  H   UNL     1      11.652  -5.540  -0.162  1.00  0.00     0.217 HD
ENDBRANCH   4  12
BRANCH   3  14
HETATM   14  C   UNL     1       8.615  -5.962  -0.118  1.00  0.00     0.067 C 
BRANCH  14  15
HETATM   15  C   UNL     1       7.271  -6.567   0.292  1.00  0.00     0.092 C 
BRANCH  15  16
HETATM   16  C   UNL     1       7.418  -7.268   1.618  1.00  0.00     0.124 C 
HETATM   17  C   UNL     1       6.399  -8.292   2.046  1.00  0.00     0.091 C 
HETATM   18  O   UNL     1       8.352  -7.009   2.336  1.00  0.00    -0.298 OA
ENDBRANCH  15  16
ENDBRANCH  14  15
BRANCH  14  19
HETATM   19  C   UNL     1       8.378  -4.768  -1.005  1.00  0.00    -0.049 A 
HETATM   20  C   UNL     1       7.087  -4.378  -1.309  1.00  0.00     0.008 A 
HETATM   21  C   UNL     1       6.869  -3.282  -2.122  1.00  0.00     0.001 A 
HETATM   22  C   UNL     1       7.942  -2.576  -2.632  1.00  0.00     0.000 A 
HETATM   23  C   UNL     1       9.232  -2.966  -2.328  1.00  0.00     0.001 A 
HETATM   24  C   UNL     1       9.450  -4.059  -1.510  1.00  0.00     0.008 A 
ENDBRANCH  14  19
ENDBRANCH   3  14
TORSDOF 5
ENDMDL
MODEL 19
REMARK VINA RESULT:    -7.387     11.048     13.414
REMARK INTER + INTRA:          -8.867
REMARK INTER:                  -8.786
REMARK INTRA:                  -0.081
REMARK UNBOUND:                 0.464
REMARK  5 active torsions:
REMARK  status: ('A' for Active; 'I' for Inactive)
REMARK    1  A    between atoms: C_2  and  C_3 
REMARK    2  A    between atoms: C_2  and  C_6 
REMARK    3  A    between atoms: C_2  and  C_13 
REMARK    4  A    between atoms: C_3  and  C_4 
REMARK    5  A    between atoms: C_14  and  O_23 
ROOT
HETATM    1  C   UNL     1       9.756  -2.187  -1.520  1.00  0.00     0.032 A 
HETATM    2  C   UNL     1      10.147  -4.428   0.033  1.00  0.00     0.298 A 
HETATM    3  C   UNL     1       9.914  -4.608  -1.338  1.00  0.00     0.060 A 
HETATM    4  C   UNL     1       9.713  -3.519  -2.140  1.00  0.00     0.091 A 
HETATM    5  C   UNL     1       9.557  -1.032  -2.279  1.00  0.00     0.017 A 
HETATM    6  C   UNL     1       9.603   0.201  -1.668  1.00  0.00     0.001 A 
HETATM    7  C   UNL     1       9.845   0.299  -0.305  1.00  0.00     0.003 A 
HETATM    8  C   UNL     1      10.042  -0.834   0.456  1.00  0.00     0.038 A 
HETATM    9  C   UNL     1      10.000  -2.087  -0.141  1.00  0.00     0.092 A 
HETATM   10  O   UNL     1      10.189  -3.206   0.589  1.00  0.00    -0.274 OA
HETATM   11  O   UNL     1      10.326  -5.405   0.738  1.00  0.00    -0.259 OA
ENDROOT
BRANCH   4  12
HETATM   12  O   UNL     1       9.481  -3.664  -3.465  1.00  0.00    -0.359 OA
HETATM   13  H   UNL     1       9.485  -4.612  -3.648  1.00  0.00     0.217 HD
ENDBRANCH   4  12
BRANCH   3  14
HETATM   14  C   UNL     1       9.880  -5.995  -1.924  1.00  0.00     0.067 C 
BRANCH  14  15
HETATM   15  C   UNL     1       8.961  -6.882  -1.082  1.00  0.00     0.092 C 
BRANCH  15  16
HETATM   16  C   UNL     1       7.724  -7.219  -1.873  1.00  0.00     0.124 C 
HETATM   17  C   UNL     1       6.620  -6.202  -2.016  1.00  0.00     0.091 C 
HETATM   18  O   UNL     1       7.616  -8.302  -2.393  1.00  0.00    -0.298 OA
ENDBRANCH  15  16
ENDBRANCH  14  15
BRANCH  14  19
HETATM   19  C   UNL     1      11.270  -6.573  -1.927  1.00  0.00    -0.049 A 
HETATM   20  C   UNL     1      11.473  -7.891  -1.556  1.00  0.00     0.008 A 
HETATM   21  C   UNL     1      12.749  -8.422  -1.559  1.00  0.00     0.001 A 
HETATM   22  C   UNL     1      13.823  -7.637  -1.932  1.00  0.00     0.000 A 
HETATM   23  C   UNL     1      13.621  -6.321  -2.303  1.00  0.00     0.001 A 
HETATM   24  C   UNL     1      12.344  -5.791  -2.305  1.00  0.00     0.008 A 
ENDBRANCH  14  19
ENDBRANCH   3  14
TORSDOF 5
ENDMDL
MODEL 20
REMARK VINA RESULT:    -7.227      9.635     12.192
REMARK INTER + INTRA:          -8.664
REMARK INTER:                  -9.128
REMARK INTRA:                   0.464
REMARK UNBOUND:                 0.464
REMARK  5 active torsions:
REMARK  status: ('A' for Active; 'I' for Inactive)
REMARK    1  A    between atoms: C_2  and  C_3 
REMARK    2  A    between atoms: C_2  and  C_6 
REMARK    3  A    between atoms: C_2  and  C_13 
REMARK    4  A    between atoms: C_3  and  C_4 
REMARK    5  A    between atoms: C_14  and  O_23 
ROOT
HETATM    1  C   UNL     1       7.597  -5.687  -1.492  1.00  0.00     0.032 A 
HETATM    2  C   UNL     1       9.360  -6.689   0.372  1.00  0.00     0.298 A 
HETATM    3  C   UNL     1       9.881  -6.218  -0.842  1.00  0.00     0.060 A 
HETATM    4  C   UNL     1       9.036  -5.716  -1.792  1.00  0.00     0.091 A 
HETATM    5  C   UNL     1       6.677  -5.190  -2.418  1.00  0.00     0.017 A 
HETATM    6  C   UNL     1       5.336  -5.178  -2.107  1.00  0.00     0.001 A 
HETATM    7  C   UNL     1       4.898  -5.657  -0.880  1.00  0.00     0.003 A 
HETATM    8  C   UNL     1       5.795  -6.151   0.042  1.00  0.00     0.038 A 
HETATM    9  C   UNL     1       7.153  -6.172  -0.253  1.00  0.00     0.092 A 
HETATM   10  O   UNL     1       8.044  -6.654   0.639  1.00  0.00    -0.274 OA
HETATM   11  O   UNL     1      10.123  -7.132   1.212  1.00  0.00    -0.259 OA
ENDROOT
BRANCH   4  12
HETATM   12  O   UNL     1       9.510  -5.259  -2.974  1.00  0.00    -0.359 OA
HETATM   13  H   UNL     1       9.786  -6.033  -3.482  1.00  0.00     0.217 HD
ENDBRANCH   4  12
BRANCH   3  14
HETATM   14  C   UNL     1      11.364  -6.269  -1.099  1.00  0.00     0.067 C 
BRANCH  14  15
HETATM   15  C   UNL     1      11.724  -5.277  -2.206  1.00  0.00     0.092 C 
BRANCH  15  16
HETATM   16  C   UNL     1      12.636  -4.213  -1.651  1.00  0.00     0.124 C 
HETATM   17  C   UNL     1      14.082  -4.530  -1.371  1.00  0.00     0.091 C 
HETATM   18  O   UNL     1      12.207  -3.107  -1.430  1.00  0.00    -0.298 OA
ENDBRANCH  15  16
ENDBRANCH  14  15
BRANCH  14  19
HETATM   19  C   UNL     1      11.752  -7.660  -1.526  1.00  0.00    -0.049 A 
HETATM   20  C   UNL     1      10.900  -8.402  -2.323  1.00  0.00     0.008 A 
HETATM   21  C   UNL     1      11.256  -9.678  -2.715  1.00  0.00     0.001 A 
HETATM   22  C   UNL     1      12.463 -10.214  -2.311  1.00  0.00     0.000 A 
HETATM   23  C   UNL     1      13.315  -9.473  -1.515  1.00  0.00     0.001 A 
HETATM   24  C   UNL     1      12.962  -8.194  -1.127  1.00  0.00     0.008 A 
ENDBRANCH  14  19
ENDBRANCH   3  14
TORSDOF 5
ENDMDL
