MODEL 1
REMARK VINA RESULT:    -7.659      0.000      0.000
REMARK INTER + INTRA:          -9.969
REMARK INTER:                  -9.681
REMARK INTRA:                  -0.288
REMARK UNBOUND:                -0.295
REMARK  5 active torsions:
REMARK  status: ('A' for Active; 'I' for Inactive)
REMARK    1  A    between atoms: C_2  and  C_3 
REMARK    2  A    between atoms: C_2  and  C_6 
REMARK    3  A    between atoms: C_2  and  C_13 
REMARK    4  A    between atoms: C_3  and  C_4 
REMARK    5  A    between atoms: C_14  and  O_23 
ROOT
HETATM    1  C   UNL     1       9.931  19.251   9.382  1.00  0.00     0.032 A 
HETATM    2  C   UNL     1       9.174  18.595  11.948  1.00  0.00     0.298 A 
HETATM    3  C   UNL     1       8.324  19.423  11.201  1.00  0.00     0.060 A 
HETATM    4  C   UNL     1       8.668  19.772   9.925  1.00  0.00     0.091 A 
HETATM    5  C   UNL     1      10.345  19.568   8.087  1.00  0.00     0.017 A 
HETATM    6  C   UNL     1      11.534  19.064   7.609  1.00  0.00     0.001 A 
HETATM    7  C   UNL     1      12.319  18.245   8.408  1.00  0.00     0.003 A 
HETATM    8  C   UNL     1      11.922  17.925   9.689  1.00  0.00     0.038 A 
HETATM    9  C   UNL     1      10.726  18.423  10.190  1.00  0.00     0.092 A 
HETATM   10  O   UNL     1      10.324  18.120  11.442  1.00  0.00    -0.274 OA
HETATM   11  O   UNL     1       8.857  18.290  13.084  1.00  0.00    -0.259 OA
ENDROOT
BRANCH   4  12
HETATM   12  O   UNL     1       7.870  20.573   9.182  1.00  0.00    -0.359 OA
HETATM   13  H   UNL     1       8.377  21.373   8.991  1.00  0.00     0.217 HD
ENDBRANCH   4  12
BRANCH   3  14
HETATM   14  C   UNL     1       7.040  19.931  11.804  1.00  0.00     0.067 C 
BRANCH  14  15
HETATM   15  C   UNL     1       5.885  19.671  10.836  1.00  0.00     0.092 C 
BRANCH  15  16
HETATM   16  C   UNL     1       4.960  18.636  11.422  1.00  0.00     0.124 C 
HETATM   17  C   UNL     1       5.186  18.130  12.823  1.00  0.00     0.091 C 
HETATM   18  O   UNL     1       4.039  18.211  10.768  1.00  0.00    -0.298 OA
ENDBRANCH  15  16
ENDBRANCH  14  15
BRANCH  14  19
HETATM   19  C   UNL     1       7.156  21.409  12.062  1.00  0.00    -0.049 A 
HETATM   20  C   UNL     1       6.219  22.279  11.535  1.00  0.00     0.008 A 
HETATM   21  C   UNL     1       6.325  23.637  11.772  1.00  0.00     0.001 A 
HETATM   22  C   UNL     1       7.367  24.125  12.537  1.00  0.00     0.000 A 
HETATM   23  C   UNL     1       8.303  23.256  13.064  1.00  0.00     0.001 A 
HETATM   24  C   UNL     1       8.195  21.898  12.831  1.00  0.00     0.008 A 
ENDBRANCH  14  19
ENDBRANCH   3  14
TORSDOF 5
ENDMDL
MODEL 2
REMARK VINA RESULT:    -7.484      0.670      2.063
REMARK INTER + INTRA:          -9.748
REMARK INTER:                  -9.599
REMARK INTRA:                  -0.149
REMARK UNBOUND:                -0.295
REMARK  5 active torsions:
REMARK  status: ('A' for Active; 'I' for Inactive)
REMARK    1  A    between atoms: C_2  and  C_3 
REMARK    2  A    between atoms: C_2  and  C_6 
REMARK    3  A    between atoms: C_2  and  C_13 
REMARK    4  A    between atoms: C_3  and  C_4 
REMARK    5  A    between atoms: C_14  and  O_23 
ROOT
HETATM    1  C   UNL     1      10.200  18.855  10.139  1.00  0.00     0.032 A 
HETATM    2  C   UNL     1       8.130  20.466   9.302  1.00  0.00     0.298 A 
HETATM    3  C   UNL     1       8.094  19.976  10.615  1.00  0.00     0.060 A 
HETATM    4  C   UNL     1       9.103  19.171  11.065  1.00  0.00     0.091 A 
HETATM    5  C   UNL     1      11.262  18.037  10.531  1.00  0.00     0.017 A 
HETATM    6  C   UNL     1      12.274  17.760   9.639  1.00  0.00     0.001 A 
HETATM    7  C   UNL     1      12.241  18.288   8.356  1.00  0.00     0.003 A 
HETATM    8  C   UNL     1      11.198  19.095   7.956  1.00  0.00     0.038 A 
HETATM    9  C   UNL     1      10.168  19.388   8.841  1.00  0.00     0.092 A 
HETATM   10  O   UNL     1       9.139  20.176   8.464  1.00  0.00    -0.274 OA
HETATM   11  O   UNL     1       7.225  21.184   8.912  1.00  0.00    -0.259 OA
ENDROOT
BRANCH   4  12
HETATM   12  O   UNL     1       9.093  18.680  12.325  1.00  0.00    -0.359 OA
HETATM   13  H   UNL     1       8.953  17.727  12.253  1.00  0.00     0.217 HD
ENDBRANCH   4  12
BRANCH   3  14
HETATM   14  C   UNL     1       6.947  20.330  11.525  1.00  0.00     0.067 C 
BRANCH  14  15
HETATM   15  C   UNL     1       5.625  20.090  10.795  1.00  0.00     0.092 C 
BRANCH  15  16
HETATM   16  C   UNL     1       4.939  18.883  11.380  1.00  0.00     0.124 C 
HETATM   17  C   UNL     1       5.378  18.340  12.715  1.00  0.00     0.091 C 
HETATM   18  O   UNL     1       4.038  18.351  10.780  1.00  0.00    -0.298 OA
ENDBRANCH  15  16
ENDBRANCH  14  15
BRANCH  14  19
HETATM   19  C   UNL     1       7.047  21.780  11.918  1.00  0.00    -0.049 A 
HETATM   20  C   UNL     1       6.054  22.668  11.545  1.00  0.00     0.008 A 
HETATM   21  C   UNL     1       6.146  23.999  11.907  1.00  0.00     0.001 A 
HETATM   22  C   UNL     1       7.229  24.443  12.640  1.00  0.00     0.000 A 
HETATM   23  C   UNL     1       8.221  23.556  13.013  1.00  0.00     0.001 A 
HETATM   24  C   UNL     1       8.127  22.224  12.656  1.00  0.00     0.008 A 
ENDBRANCH  14  19
ENDBRANCH   3  14
TORSDOF 5
ENDMDL
MODEL 3
REMARK VINA RESULT:    -7.396      1.585      5.652
REMARK INTER + INTRA:          -9.637
REMARK INTER:                  -9.384
REMARK INTRA:                  -0.252
REMARK UNBOUND:                -0.295
REMARK  5 active torsions:
REMARK  status: ('A' for Active; 'I' for Inactive)
REMARK    1  A    between atoms: C_2  and  C_3 
REMARK    2  A    between atoms: C_2  and  C_6 
REMARK    3  A    between atoms: C_2  and  C_13 
REMARK    4  A    between atoms: C_3  and  C_4 
REMARK    5  A    between atoms: C_14  and  O_23 
ROOT
HETATM    1  C   UNL     1       7.197  22.353  12.120  1.00  0.00     0.032 A 
HETATM    2  C   UNL     1       6.059  20.046  11.136  1.00  0.00     0.298 A 
HETATM    3  C   UNL     1       7.400  19.998  11.544  1.00  0.00     0.060 A 
HETATM    4  C   UNL     1       7.999  21.124  12.035  1.00  0.00     0.091 A 
HETATM    5  C   UNL     1       7.745  23.541  12.609  1.00  0.00     0.017 A 
HETATM    6  C   UNL     1       6.967  24.674  12.675  1.00  0.00     0.001 A 
HETATM    7  C   UNL     1       5.644  24.641  12.257  1.00  0.00     0.003 A 
HETATM    8  C   UNL     1       5.091  23.476  11.771  1.00  0.00     0.038 A 
HETATM    9  C   UNL     1       5.859  22.320  11.697  1.00  0.00     0.092 A 
HETATM   10  O   UNL     1       5.333  21.172  11.222  1.00  0.00    -0.274 OA
HETATM   11  O   UNL     1       5.536  19.035  10.702  1.00  0.00    -0.259 OA
ENDROOT
BRANCH   4  12
HETATM   12  O   UNL     1       9.293  21.109  12.431  1.00  0.00    -0.359 OA
HETATM   13  H   UNL     1       9.726  20.397  11.944  1.00  0.00     0.217 HD
ENDBRANCH   4  12
BRANCH   3  14
HETATM   14  C   UNL     1       8.179  18.713  11.437  1.00  0.00     0.067 C 
BRANCH  14  15
HETATM   15  C   UNL     1       8.811  18.385  12.791  1.00  0.00     0.092 C 
BRANCH  15  16
HETATM   16  C   UNL     1       7.839  17.586  13.620  1.00  0.00     0.124 C 
HETATM   17  C   UNL     1       7.842  17.718  15.121  1.00  0.00     0.091 C 
HETATM   18  O   UNL     1       7.059  16.839  13.082  1.00  0.00    -0.298 OA
ENDBRANCH  15  16
ENDBRANCH  14  15
BRANCH  14  19
HETATM   19  C   UNL     1       9.261  18.866  10.401  1.00  0.00    -0.049 A 
HETATM   20  C   UNL     1      10.558  18.489  10.696  1.00  0.00     0.008 A 
HETATM   21  C   UNL     1      11.552  18.629   9.745  1.00  0.00     0.001 A 
HETATM   22  C   UNL     1      11.249  19.144   8.500  1.00  0.00     0.000 A 
HETATM   23  C   UNL     1       9.952  19.520   8.205  1.00  0.00     0.001 A 
HETATM   24  C   UNL     1       8.958  19.376   9.154  1.00  0.00     0.008 A 
ENDBRANCH  14  19
ENDBRANCH   3  14
TORSDOF 5
ENDMDL
MODEL 4
REMARK VINA RESULT:    -7.213      1.454      4.022
REMARK INTER + INTRA:          -9.405
REMARK INTER:                  -9.231
REMARK INTRA:                  -0.175
REMARK UNBOUND:                -0.295
REMARK  5 active torsions:
REMARK  status: ('A' for Active; 'I' for Inactive)
REMARK    1  A    between atoms: C_2  and  C_3 
REMARK    2  A    between atoms: C_2  and  C_6 
REMARK    3  A    between atoms: C_2  and  C_13 
REMARK    4  A    between atoms: C_3  and  C_4 
REMARK    5  A    between atoms: C_14  and  O_23 
ROOT
HETATM    1  C   UNL     1      10.080  19.132  10.149  1.00  0.00     0.032 A 
HETATM    2  C   UNL     1       8.150  20.704   8.971  1.00  0.00     0.298 A 
HETATM    3  C   UNL     1       8.033  20.432  10.342  1.00  0.00     0.060 A 
HETATM    4  C   UNL     1       8.970  19.653  10.960  1.00  0.00     0.091 A 
HETATM    5  C   UNL     1      11.073  18.329  10.715  1.00  0.00     0.017 A 
HETATM    6  C   UNL     1      12.098  17.856   9.928  1.00  0.00     0.001 A 
HETATM    7  C   UNL     1      12.148  18.174   8.578  1.00  0.00     0.003 A 
HETATM    8  C   UNL     1      11.175  18.965   8.007  1.00  0.00     0.038 A 
HETATM    9  C   UNL     1      10.132  19.452   8.784  1.00  0.00     0.092 A 
HETATM   10  O   UNL     1       9.170  20.227   8.239  1.00  0.00    -0.274 OA
HETATM   11  O   UNL     1       7.308  21.400   8.431  1.00  0.00    -0.259 OA
ENDROOT
BRANCH   4  12
HETATM   12  O   UNL     1       8.881  19.370  12.280  1.00  0.00    -0.359 OA
HETATM   13  H   UNL     1       8.450  20.126  12.700  1.00  0.00     0.217 HD
ENDBRANCH   4  12
BRANCH   3  14
HETATM   14  C   UNL     1       6.876  20.991  11.128  1.00  0.00     0.067 C 
BRANCH  14  15
HETATM   15  C   UNL     1       7.408  21.836  12.287  1.00  0.00     0.092 C 
BRANCH  15  16
HETATM   16  C   UNL     1       6.995  23.272  12.092  1.00  0.00     0.124 C 
HETATM   17  C   UNL     1       7.421  24.320  13.087  1.00  0.00     0.091 C 
HETATM   18  O   UNL     1       6.323  23.583  11.140  1.00  0.00    -0.298 OA
ENDBRANCH  15  16
ENDBRANCH  14  15
BRANCH  14  19
HETATM   19  C   UNL     1       6.045  19.859  11.673  1.00  0.00    -0.049 A 
HETATM   20  C   UNL     1       5.732  19.816  13.019  1.00  0.00     0.008 A 
HETATM   21  C   UNL     1       4.969  18.778  13.519  1.00  0.00     0.001 A 
HETATM   22  C   UNL     1       4.518  17.783  12.674  1.00  0.00     0.000 A 
HETATM   23  C   UNL     1       4.830  17.826  11.329  1.00  0.00     0.001 A 
HETATM   24  C   UNL     1       5.589  18.866  10.828  1.00  0.00     0.008 A 
ENDBRANCH  14  19
ENDBRANCH   3  14
TORSDOF 5
ENDMDL
MODEL 5
REMARK VINA RESULT:    -7.156      2.065      5.489
REMARK INTER + INTRA:          -9.334
REMARK INTER:                  -9.481
REMARK INTRA:                   0.147
REMARK UNBOUND:                -0.295
REMARK  5 active torsions:
REMARK  status: ('A' for Active; 'I' for Inactive)
REMARK    1  A    between atoms: C_2  and  C_3 
REMARK    2  A    between atoms: C_2  and  C_6 
REMARK    3  A    between atoms: C_2  and  C_13 
REMARK    4  A    between atoms: C_3  and  C_4 
REMARK    5  A    between atoms: C_14  and  O_23 
ROOT
HETATM    1  C   UNL     1       7.750  19.067  13.672  1.00  0.00     0.032 A 
HETATM    2  C   UNL     1       7.587  18.276  11.039  1.00  0.00     0.298 A 
HETATM    3  C   UNL     1       8.192  19.509  11.321  1.00  0.00     0.060 A 
HETATM    4  C   UNL     1       8.288  19.936  12.616  1.00  0.00     0.091 A 
HETATM    5  C   UNL     1       7.813  19.441  15.016  1.00  0.00     0.017 A 
HETATM    6  C   UNL     1       7.299  18.604  15.981  1.00  0.00     0.001 A 
HETATM    7  C   UNL     1       6.720  17.395  15.624  1.00  0.00     0.003 A 
HETATM    8  C   UNL     1       6.651  17.014  14.301  1.00  0.00     0.038 A 
HETATM    9  C   UNL     1       7.164  17.844  13.312  1.00  0.00     0.092 A 
HETATM   10  O   UNL     1       7.102  17.486  12.012  1.00  0.00    -0.274 OA
HETATM   11  O   UNL     1       7.508  17.905   9.881  1.00  0.00    -0.259 OA
ENDROOT
BRANCH   4  12
HETATM   12  O   UNL     1       8.863  21.123  12.917  1.00  0.00    -0.359 OA
HETATM   13  H   UNL     1       9.358  21.400  12.135  1.00  0.00     0.217 HD
ENDBRANCH   4  12
BRANCH   3  14
HETATM   14  C   UNL     1       8.728  20.362  10.201  1.00  0.00     0.067 C 
BRANCH  14  15
HETATM   15  C   UNL     1       7.630  20.587   9.161  1.00  0.00     0.092 C 
BRANCH  15  16
HETATM   16  C   UNL     1       6.574  21.498   9.732  1.00  0.00     0.124 C 
HETATM   17  C   UNL     1       5.338  20.914  10.366  1.00  0.00     0.091 C 
HETATM   18  O   UNL     1       6.718  22.695   9.681  1.00  0.00    -0.298 OA
ENDBRANCH  15  16
ENDBRANCH  14  15
BRANCH  14  19
HETATM   19  C   UNL     1       9.897  19.667   9.556  1.00  0.00    -0.049 A 
HETATM   20  C   UNL     1      10.073  19.738   8.186  1.00  0.00     0.008 A 
HETATM   21  C   UNL     1      11.146  19.100   7.592  1.00  0.00     0.001 A 
HETATM   22  C   UNL     1      12.044  18.391   8.368  1.00  0.00     0.000 A 
HETATM   23  C   UNL     1      11.868  18.321   9.737  1.00  0.00     0.001 A 
HETATM   24  C   UNL     1      10.798  18.963  10.331  1.00  0.00     0.008 A 
ENDBRANCH  14  19
ENDBRANCH   3  14
TORSDOF 5
ENDMDL
MODEL 6
REMARK VINA RESULT:    -7.064      1.287      3.449
REMARK INTER + INTRA:          -9.218
REMARK INTER:                  -9.170
REMARK INTRA:                  -0.048
REMARK UNBOUND:                -0.295
REMARK  5 active torsions:
REMARK  status: ('A' for Active; 'I' for Inactive)
REMARK    1  A    between atoms: C_2  and  C_3 
REMARK    2  A    between atoms: C_2  and  C_6 
REMARK    3  A    between atoms: C_2  and  C_13 
REMARK    4  A    between atoms: C_3  and  C_4 
REMARK    5  A    between atoms: C_14  and  O_23 
ROOT
HETATM    1  C   UNL     1       9.891  19.420   9.249  1.00  0.00     0.032 A 
HETATM    2  C   UNL     1       8.893  19.284  11.813  1.00  0.00     0.298 A 
HETATM    3  C   UNL     1       8.156  19.995  10.855  1.00  0.00     0.060 A 
HETATM    4  C   UNL     1       8.621  20.087   9.573  1.00  0.00     0.091 A 
HETATM    5  C   UNL     1      10.425  19.474   7.960  1.00  0.00     0.017 A 
HETATM    6  C   UNL     1      11.617  18.840   7.690  1.00  0.00     0.001 A 
HETATM    7  C   UNL     1      12.286  18.151   8.690  1.00  0.00     0.003 A 
HETATM    8  C   UNL     1      11.770  18.090   9.967  1.00  0.00     0.038 A 
HETATM    9  C   UNL     1      10.569  18.723  10.261  1.00  0.00     0.092 A 
HETATM   10  O   UNL     1      10.050  18.675  11.506  1.00  0.00    -0.274 OA
HETATM   11  O   UNL     1       8.469  19.209  12.952  1.00  0.00    -0.259 OA
ENDROOT
BRANCH   4  12
HETATM   12  O   UNL     1       7.933  20.770   8.629  1.00  0.00    -0.359 OA
HETATM   13  H   UNL     1       7.164  21.156   9.069  1.00  0.00     0.217 HD
ENDBRANCH   4  12
BRANCH   3  14
HETATM   14  C   UNL     1       6.860  20.660  11.239  1.00  0.00     0.067 C 
BRANCH  14  15
HETATM   15  C   UNL     1       7.117  21.672  12.356  1.00  0.00     0.092 C 
BRANCH  15  16
HETATM   16  C   UNL     1       6.867  23.065  11.841  1.00  0.00     0.124 C 
HETATM   17  C   UNL     1       7.365  24.257  12.617  1.00  0.00     0.091 C 
HETATM   18  O   UNL     1       6.266  23.227  10.807  1.00  0.00    -0.298 OA
ENDBRANCH  15  16
ENDBRANCH  14  15
BRANCH  14  19
HETATM   19  C   UNL     1       5.884  19.618  11.719  1.00  0.00    -0.049 A 
HETATM   20  C   UNL     1       5.240  19.781  12.932  1.00  0.00     0.008 A 
HETATM   21  C   UNL     1       4.344  18.826  13.373  1.00  0.00     0.001 A 
HETATM   22  C   UNL     1       4.091  17.707  12.602  1.00  0.00     0.000 A 
HETATM   23  C   UNL     1       4.735  17.545  11.390  1.00  0.00     0.001 A 
HETATM   24  C   UNL     1       5.627  18.503  10.946  1.00  0.00     0.008 A 
ENDBRANCH  14  19
ENDBRANCH   3  14
TORSDOF 5
ENDMDL
MODEL 7
REMARK VINA RESULT:    -7.005      1.326      5.608
REMARK INTER + INTRA:          -9.143
REMARK INTER:                  -9.244
REMARK INTRA:                   0.100
REMARK UNBOUND:                -0.295
REMARK  5 active torsions:
REMARK  status: ('A' for Active; 'I' for Inactive)
REMARK    1  A    between atoms: C_2  and  C_3 
REMARK    2  A    between atoms: C_2  and  C_6 
REMARK    3  A    between atoms: C_2  and  C_13 
REMARK    4  A    between atoms: C_3  and  C_4 
REMARK    5  A    between atoms: C_14  and  O_23 
ROOT
HETATM    1  C   UNL     1       7.636  22.203  12.732  1.00  0.00     0.032 A 
HETATM    2  C   UNL     1       6.871  21.344  10.230  1.00  0.00     0.298 A 
HETATM    3  C   UNL     1       7.539  20.435  11.063  1.00  0.00     0.060 A 
HETATM    4  C   UNL     1       7.937  20.827  12.311  1.00  0.00     0.091 A 
HETATM    5  C   UNL     1       8.015  22.670  13.992  1.00  0.00     0.017 A 
HETATM    6  C   UNL     1       7.719  23.965  14.355  1.00  0.00     0.001 A 
HETATM    7  C   UNL     1       7.049  24.804  13.477  1.00  0.00     0.003 A 
HETATM    8  C   UNL     1       6.670  24.355  12.229  1.00  0.00     0.038 A 
HETATM    9  C   UNL     1       6.959  23.052  11.843  1.00  0.00     0.092 A 
HETATM   10  O   UNL     1       6.597  22.598  10.625  1.00  0.00    -0.274 OA
HETATM   11  O   UNL     1       6.520  20.983   9.120  1.00  0.00    -0.259 OA
ENDROOT
BRANCH   4  12
HETATM   12  O   UNL     1       8.587  19.973  13.135  1.00  0.00    -0.359 OA
HETATM   13  H   UNL     1       8.396  19.080  12.820  1.00  0.00     0.217 HD
ENDBRANCH   4  12
BRANCH   3  14
HETATM   14  C   UNL     1       7.822  19.035  10.584  1.00  0.00     0.067 C 
BRANCH  14  15
HETATM   15  C   UNL     1       7.712  18.062  11.758  1.00  0.00     0.092 C 
BRANCH  15  16
HETATM   16  C   UNL     1       6.284  17.603  11.899  1.00  0.00     0.124 C 
HETATM   17  C   UNL     1       5.477  18.010  13.104  1.00  0.00     0.091 C 
HETATM   18  O   UNL     1       5.787  16.908  11.047  1.00  0.00    -0.298 OA
ENDBRANCH  15  16
ENDBRANCH  14  15
BRANCH  14  19
HETATM   19  C   UNL     1       9.212  18.973  10.008  1.00  0.00    -0.049 A 
HETATM   20  C   UNL     1      10.253  18.470  10.768  1.00  0.00     0.008 A 
HETATM   21  C   UNL     1      11.529  18.412  10.240  1.00  0.00     0.001 A 
HETATM   22  C   UNL     1      11.765  18.857   8.953  1.00  0.00     0.000 A 
HETATM   23  C   UNL     1      10.726  19.359   8.194  1.00  0.00     0.001 A 
HETATM   24  C   UNL     1       9.449  19.412   8.720  1.00  0.00     0.008 A 
ENDBRANCH  14  19
ENDBRANCH   3  14
TORSDOF 5
ENDMDL
MODEL 8
REMARK VINA RESULT:    -6.796      1.310      5.274
REMARK INTER + INTRA:          -8.879
REMARK INTER:                  -9.346
REMARK INTRA:                   0.466
REMARK UNBOUND:                -0.295
REMARK  5 active torsions:
REMARK  status: ('A' for Active; 'I' for Inactive)
REMARK    1  A    between atoms: C_2  and  C_3 
REMARK    2  A    between atoms: C_2  and  C_6 
REMARK    3  A    between atoms: C_2  and  C_13 
REMARK    4  A    between atoms: C_3  and  C_4 
REMARK    5  A    between atoms: C_14  and  O_23 
ROOT
HETATM    1  C   UNL     1       7.165  22.691  12.167  1.00  0.00     0.032 A 
HETATM    2  C   UNL     1       8.138  20.232  12.936  1.00  0.00     0.298 A 
HETATM    3  C   UNL     1       7.663  20.373  11.624  1.00  0.00     0.060 A 
HETATM    4  C   UNL     1       7.170  21.577  11.207  1.00  0.00     0.091 A 
HETATM    5  C   UNL     1       6.674  23.949  11.810  1.00  0.00     0.017 A 
HETATM    6  C   UNL     1       6.683  24.971  12.733  1.00  0.00     0.001 A 
HETATM    7  C   UNL     1       7.176  24.755  14.011  1.00  0.00     0.003 A 
HETATM    8  C   UNL     1       7.662  23.518  14.377  1.00  0.00     0.038 A 
HETATM    9  C   UNL     1       7.662  22.474  13.461  1.00  0.00     0.092 A 
HETATM   10  O   UNL     1       8.134  21.257  13.804  1.00  0.00    -0.274 OA
HETATM   11  O   UNL     1       8.576  19.153  13.295  1.00  0.00    -0.259 OA
ENDROOT
BRANCH   4  12
HETATM   12  O   UNL     1       6.700  21.741   9.949  1.00  0.00    -0.359 OA
HETATM   13  H   UNL     1       7.437  22.067   9.416  1.00  0.00     0.217 HD
ENDBRANCH   4  12
BRANCH   3  14
HETATM   14  C   UNL     1       7.690  19.199  10.679  1.00  0.00     0.067 C 
BRANCH  14  15
HETATM   15  C   UNL     1       7.355  17.919  11.446  1.00  0.00     0.092 C 
BRANCH  15  16
HETATM   16  C   UNL     1       5.864  17.705  11.441  1.00  0.00     0.124 C 
HETATM   17  C   UNL     1       5.223  16.838  12.493  1.00  0.00     0.091 C 
HETATM   18  O   UNL     1       5.183  18.227  10.593  1.00  0.00    -0.298 OA
ENDBRANCH  15  16
ENDBRANCH  14  15
BRANCH  14  19
HETATM   19  C   UNL     1       9.062  19.076  10.071  1.00  0.00    -0.049 A 
HETATM   20  C   UNL     1      10.097  18.524  10.805  1.00  0.00     0.008 A 
HETATM   21  C   UNL     1      11.356  18.411  10.247  1.00  0.00     0.001 A 
HETATM   22  C   UNL     1      11.582  18.848   8.956  1.00  0.00     0.000 A 
HETATM   23  C   UNL     1      10.549  19.398   8.223  1.00  0.00     0.001 A 
HETATM   24  C   UNL     1       9.288  19.508   8.779  1.00  0.00     0.008 A 
ENDBRANCH  14  19
ENDBRANCH   3  14
TORSDOF 5
ENDMDL
MODEL 9
REMARK VINA RESULT:    -6.770      2.114      5.476
REMARK INTER + INTRA:          -8.846
REMARK INTER:                  -9.015
REMARK INTRA:                   0.169
REMARK UNBOUND:                -0.295
REMARK  5 active torsions:
REMARK  status: ('A' for Active; 'I' for Inactive)
REMARK    1  A    between atoms: C_2  and  C_3 
REMARK    2  A    between atoms: C_2  and  C_6 
REMARK    3  A    between atoms: C_2  and  C_13 
REMARK    4  A    between atoms: C_3  and  C_4 
REMARK    5  A    between atoms: C_14  and  O_23 
ROOT
HETATM    1  C   UNL     1       7.537  18.443  13.391  1.00  0.00     0.032 A 
HETATM    2  C   UNL     1       8.510  20.964  12.855  1.00  0.00     0.298 A 
HETATM    3  C   UNL     1       8.304  20.093  11.775  1.00  0.00     0.060 A 
HETATM    4  C   UNL     1       7.825  18.834  12.003  1.00  0.00     0.091 A 
HETATM    5  C   UNL     1       7.048  17.172  13.696  1.00  0.00     0.017 A 
HETATM    6  C   UNL     1       6.789  16.838  15.006  1.00  0.00     0.001 A 
HETATM    7  C   UNL     1       7.013  17.757  16.021  1.00  0.00     0.003 A 
HETATM    8  C   UNL     1       7.497  19.015  15.733  1.00  0.00     0.038 A 
HETATM    9  C   UNL     1       7.764  19.373  14.418  1.00  0.00     0.092 A 
HETATM   10  O   UNL     1       8.239  20.600  14.120  1.00  0.00    -0.274 OA
HETATM   11  O   UNL     1       8.936  22.085  12.640  1.00  0.00    -0.259 OA
ENDROOT
BRANCH   4  12
HETATM   12  O   UNL     1       7.621  17.971  10.981  1.00  0.00    -0.359 OA
HETATM   13  H   UNL     1       8.050  17.141  11.226  1.00  0.00     0.217 HD
ENDBRANCH   4  12
BRANCH   3  14
HETATM   14  C   UNL     1       8.614  20.543  10.371  1.00  0.00     0.067 C 
BRANCH  14  15
HETATM   15  C   UNL     1       7.382  20.341   9.487  1.00  0.00     0.092 C 
BRANCH  15  16
HETATM   16  C   UNL     1       6.290  21.282   9.924  1.00  0.00     0.124 C 
HETATM   17  C   UNL     1       4.991  20.734  10.456  1.00  0.00     0.091 C 
HETATM   18  O   UNL     1       6.454  22.475   9.847  1.00  0.00    -0.298 OA
ENDBRANCH  15  16
ENDBRANCH  14  15
BRANCH  14  19
HETATM   19  C   UNL     1       9.761  19.734   9.827  1.00  0.00    -0.049 A 
HETATM   20  C   UNL     1      10.618  19.078  10.693  1.00  0.00     0.008 A 
HETATM   21  C   UNL     1      11.671  18.335  10.193  1.00  0.00     0.001 A 
HETATM   22  C   UNL     1      11.868  18.246   8.829  1.00  0.00     0.000 A 
HETATM   23  C   UNL     1      11.012  18.901   7.964  1.00  0.00     0.001 A 
HETATM   24  C   UNL     1       9.956  19.640   8.463  1.00  0.00     0.008 A 
ENDBRANCH  14  19
ENDBRANCH   3  14
TORSDOF 5
ENDMDL
MODEL 10
REMARK VINA RESULT:    -6.575      2.190      5.663
REMARK INTER + INTRA:          -8.600
REMARK INTER:                  -8.453
REMARK INTRA:                  -0.146
REMARK UNBOUND:                -0.295
REMARK  5 active torsions:
REMARK  status: ('A' for Active; 'I' for Inactive)
REMARK    1  A    between atoms: C_2  and  C_3 
REMARK    2  A    between atoms: C_2  and  C_6 
REMARK    3  A    between atoms: C_2  and  C_13 
REMARK    4  A    between atoms: C_3  and  C_4 
REMARK    5  A    between atoms: C_14  and  O_23 
ROOT
HETATM    1  C   UNL     1       7.132  19.149  14.238  1.00  0.00     0.032 A 
HETATM    2  C   UNL     1       6.929  18.537  11.560  1.00  0.00     0.298 A 
HETATM    3  C   UNL     1       7.578  19.728  11.917  1.00  0.00     0.060 A 
HETATM    4  C   UNL     1       7.695  20.066  13.236  1.00  0.00     0.091 A 
HETATM    5  C   UNL     1       7.215  19.432  15.603  1.00  0.00     0.017 A 
HETATM    6  C   UNL     1       6.677  18.552  16.515  1.00  0.00     0.001 A 
HETATM    7  C   UNL     1       6.054  17.390  16.084  1.00  0.00     0.003 A 
HETATM    8  C   UNL     1       5.965  17.098  14.739  1.00  0.00     0.038 A 
HETATM    9  C   UNL     1       6.502  17.973  13.802  1.00  0.00     0.092 A 
HETATM   10  O   UNL     1       6.422  17.703  12.482  1.00  0.00    -0.274 OA
HETATM   11  O   UNL     1       6.831  18.246  10.381  1.00  0.00    -0.259 OA
ENDROOT
BRANCH   4  12
HETATM   12  O   UNL     1       8.312  21.211  13.610  1.00  0.00    -0.359 OA
HETATM   13  H   UNL     1       9.199  21.187  13.230  1.00  0.00     0.217 HD
ENDBRANCH   4  12
BRANCH   3  14
HETATM   14  C   UNL     1       8.138  20.634  10.852  1.00  0.00     0.067 C 
BRANCH  14  15
HETATM   15  C   UNL     1       7.040  20.975   9.843  1.00  0.00     0.092 C 
BRANCH  15  16
HETATM   16  C   UNL     1       6.086  21.969  10.455  1.00  0.00     0.124 C 
HETATM   17  C   UNL     1       4.703  21.534  10.863  1.00  0.00     0.091 C 
HETATM   18  O   UNL     1       6.431  23.114  10.616  1.00  0.00    -0.298 OA
ENDBRANCH  15  16
ENDBRANCH  14  15
BRANCH  14  19
HETATM   19  C   UNL     1       9.270  19.937  10.145  1.00  0.00    -0.049 A 
HETATM   20  C   UNL     1      10.256  19.301  10.877  1.00  0.00     0.008 A 
HETATM   21  C   UNL     1      11.295  18.661  10.228  1.00  0.00     0.001 A 
HETATM   22  C   UNL     1      11.349  18.656   8.848  1.00  0.00     0.000 A 
HETATM   23  C   UNL     1      10.364  19.291   8.116  1.00  0.00     0.001 A 
HETATM   24  C   UNL     1       9.322  19.927   8.764  1.00  0.00     0.008 A 
ENDBRANCH  14  19
ENDBRANCH   3  14
TORSDOF 5
ENDMDL
MODEL 11
REMARK VINA RESULT:    -6.427      2.651      4.771
REMARK INTER + INTRA:          -8.413
REMARK INTER:                  -8.479
REMARK INTRA:                   0.066
REMARK UNBOUND:                -0.295
REMARK  5 active torsions:
REMARK  status: ('A' for Active; 'I' for Inactive)
REMARK    1  A    between atoms: C_2  and  C_3 
REMARK    2  A    between atoms: C_2  and  C_6 
REMARK    3  A    between atoms: C_2  and  C_13 
REMARK    4  A    between atoms: C_3  and  C_4 
REMARK    5  A    between atoms: C_14  and  O_23 
ROOT
HETATM    1  C   UNL     1       8.641  20.777  11.025  1.00  0.00     0.032 A 
HETATM    2  C   UNL     1       6.244  22.117  10.813  1.00  0.00     0.298 A 
HETATM    3  C   UNL     1       7.012  22.318  11.969  1.00  0.00     0.060 A 
HETATM    4  C   UNL     1       8.206  21.668  12.110  1.00  0.00     0.091 A 
HETATM    5  C   UNL     1       9.849  20.080  11.103  1.00  0.00     0.017 A 
HETATM    6  C   UNL     1      10.227  19.253  10.069  1.00  0.00     0.001 A 
HETATM    7  C   UNL     1       9.414  19.110   8.954  1.00  0.00     0.003 A 
HETATM    8  C   UNL     1       8.219  19.792   8.864  1.00  0.00     0.038 A 
HETATM    9  C   UNL     1       7.820  20.631   9.896  1.00  0.00     0.092 A 
HETATM   10  O   UNL     1       6.652  21.304   9.825  1.00  0.00    -0.274 OA
HETATM   11  O   UNL     1       5.182  22.702  10.698  1.00  0.00    -0.259 OA
ENDROOT
BRANCH   4  12
HETATM   12  O   UNL     1       8.966  21.839  13.217  1.00  0.00    -0.359 OA
HETATM   13  H   UNL     1       9.302  22.744  13.188  1.00  0.00     0.217 HD
ENDBRANCH   4  12
BRANCH   3  14
HETATM   14  C   UNL     1       6.521  23.242  13.053  1.00  0.00     0.067 C 
BRANCH  14  15
HETATM   15  C   UNL     1       7.425  24.474  13.120  1.00  0.00     0.092 C 
BRANCH  15  16
HETATM   16  C   UNL     1       6.623  25.706  12.789  1.00  0.00     0.124 C 
HETATM   17  C   UNL     1       7.036  27.046  13.341  1.00  0.00     0.091 C 
HETATM   18  O   UNL     1       5.648  25.619  12.083  1.00  0.00    -0.298 OA
ENDBRANCH  15  16
ENDBRANCH  14  15
BRANCH  14  19
HETATM   19  C   UNL     1       6.550  22.525  14.376  1.00  0.00    -0.049 A 
HETATM   20  C   UNL     1       5.857  21.339  14.535  1.00  0.00     0.008 A 
HETATM   21  C   UNL     1       5.884  20.680  15.750  1.00  0.00     0.001 A 
HETATM   22  C   UNL     1       6.603  21.206  16.806  1.00  0.00     0.000 A 
HETATM   23  C   UNL     1       7.296  22.390  16.647  1.00  0.00     0.001 A 
HETATM   24  C   UNL     1       7.274  23.047  15.431  1.00  0.00     0.008 A 
ENDBRANCH  14  19
ENDBRANCH   3  14
TORSDOF 5
ENDMDL
MODEL 12
REMARK VINA RESULT:    -6.414      1.849      6.253
REMARK INTER + INTRA:          -8.396
REMARK INTER:                  -8.753
REMARK INTRA:                   0.356
REMARK UNBOUND:                -0.295
REMARK  5 active torsions:
REMARK  status: ('A' for Active; 'I' for Inactive)
REMARK    1  A    between atoms: C_2  and  C_3 
REMARK    2  A    between atoms: C_2  and  C_6 
REMARK    3  A    between atoms: C_2  and  C_13 
REMARK    4  A    between atoms: C_3  and  C_4 
REMARK    5  A    between atoms: C_14  and  O_23 
ROOT
HETATM    1  C   UNL     1       7.196  23.387  12.883  1.00  0.00     0.032 A 
HETATM    2  C   UNL     1       6.653  21.973  10.582  1.00  0.00     0.298 A 
HETATM    3  C   UNL     1       7.654  21.485  11.436  1.00  0.00     0.060 A 
HETATM    4  C   UNL     1       7.952  22.162  12.585  1.00  0.00     0.091 A 
HETATM    5  C   UNL     1       7.450  24.129  14.038  1.00  0.00     0.017 A 
HETATM    6  C   UNL     1       6.724  25.272  14.287  1.00  0.00     0.001 A 
HETATM    7  C   UNL     1       5.745  25.687  13.397  1.00  0.00     0.003 A 
HETATM    8  C   UNL     1       5.485  24.965  12.252  1.00  0.00     0.038 A 
HETATM    9  C   UNL     1       6.206  23.808  11.982  1.00  0.00     0.092 A 
HETATM   10  O   UNL     1       5.964  23.090  10.865  1.00  0.00    -0.274 OA
HETATM   11  O   UNL     1       6.395  21.360   9.561  1.00  0.00    -0.259 OA
ENDROOT
BRANCH   4  12
HETATM   12  O   UNL     1       8.916  21.717  13.425  1.00  0.00    -0.359 OA
HETATM   13  H   UNL     1       8.471  21.426  14.231  1.00  0.00     0.217 HD
ENDBRANCH   4  12
BRANCH   3  14
HETATM   14  C   UNL     1       8.400  20.224  11.085  1.00  0.00     0.067 C 
BRANCH  14  15
HETATM   15  C   UNL     1       8.543  20.123   9.565  1.00  0.00     0.092 C 
BRANCH  15  16
HETATM   16  C   UNL     1       9.848  19.451   9.226  1.00  0.00     0.124 C 
HETATM   17  C   UNL     1      10.788  19.031  10.327  1.00  0.00     0.091 C 
HETATM   18  O   UNL     1      10.142  19.250   8.073  1.00  0.00    -0.298 OA
ENDBRANCH  15  16
ENDBRANCH  14  15
BRANCH  14  19
HETATM   19  C   UNL     1       7.639  19.031  11.598  1.00  0.00    -0.049 A 
HETATM   20  C   UNL     1       6.730  18.386  10.779  1.00  0.00     0.008 A 
HETATM   21  C   UNL     1       6.031  17.290  11.250  1.00  0.00     0.001 A 
HETATM   22  C   UNL     1       6.241  16.838  12.539  1.00  0.00     0.000 A 
HETATM   23  C   UNL     1       7.149  17.483  13.357  1.00  0.00     0.001 A 
HETATM   24  C   UNL     1       7.852  18.575  12.884  1.00  0.00     0.008 A 
ENDBRANCH  14  19
ENDBRANCH   3  14
TORSDOF 5
ENDMDL
MODEL 13
REMARK VINA RESULT:    -6.387      1.680      5.680
REMARK INTER + INTRA:          -8.362
REMARK INTER:                  -8.618
REMARK INTRA:                   0.256
REMARK UNBOUND:                -0.295
REMARK  5 active torsions:
REMARK  status: ('A' for Active; 'I' for Inactive)
REMARK    1  A    between atoms: C_2  and  C_3 
REMARK    2  A    between atoms: C_2  and  C_6 
REMARK    3  A    between atoms: C_2  and  C_13 
REMARK    4  A    between atoms: C_3  and  C_4 
REMARK    5  A    between atoms: C_14  and  O_23 
ROOT
HETATM    1  C   UNL     1       7.837  21.414  13.771  1.00  0.00     0.032 A 
HETATM    2  C   UNL     1       6.922  21.171  11.184  1.00  0.00     0.298 A 
HETATM    3  C   UNL     1       7.572  20.070  11.761  1.00  0.00     0.060 A 
HETATM    4  C   UNL     1       8.042  20.154  13.041  1.00  0.00     0.091 A 
HETATM    5  C   UNL     1       8.293  21.570  15.082  1.00  0.00     0.017 A 
HETATM    6  C   UNL     1       8.085  22.763  15.737  1.00  0.00     0.001 A 
HETATM    7  C   UNL     1       7.427  23.806  15.102  1.00  0.00     0.003 A 
HETATM    8  C   UNL     1       6.973  23.665  13.808  1.00  0.00     0.038 A 
HETATM    9  C   UNL     1       7.172  22.470  13.129  1.00  0.00     0.092 A 
HETATM   10  O   UNL     1       6.735  22.316  11.861  1.00  0.00    -0.274 OA
HETATM   11  O   UNL     1       6.507  21.083  10.043  1.00  0.00    -0.259 OA
ENDROOT
BRANCH   4  12
HETATM   12  O   UNL     1       8.678  19.109  13.621  1.00  0.00    -0.359 OA
HETATM   13  H   UNL     1       8.078  18.753  14.289  1.00  0.00     0.217 HD
ENDBRANCH   4  12
BRANCH   3  14
HETATM   14  C   UNL     1       7.757  18.801  10.969  1.00  0.00     0.067 C 
BRANCH  14  15
HETATM   15  C   UNL     1       7.662  17.597  11.907  1.00  0.00     0.092 C 
BRANCH  15  16
HETATM   16  C   UNL     1       6.214  17.301  12.202  1.00  0.00     0.124 C 
HETATM   17  C   UNL     1       5.180  17.437  11.115  1.00  0.00     0.091 C 
HETATM   18  O   UNL     1       5.883  16.956  13.310  1.00  0.00    -0.298 OA
ENDBRANCH  15  16
ENDBRANCH  14  15
BRANCH  14  19
HETATM   19  C   UNL     1       9.108  18.815  10.305  1.00  0.00    -0.049 A 
HETATM   20  C   UNL     1      10.213  18.323  10.975  1.00  0.00     0.008 A 
HETATM   21  C   UNL     1      11.454  18.335  10.366  1.00  0.00     0.001 A 
HETATM   22  C   UNL     1      11.590  18.839   9.086  1.00  0.00     0.000 A 
HETATM   23  C   UNL     1      10.485  19.330   8.417  1.00  0.00     0.001 A 
HETATM   24  C   UNL     1       9.244  19.313   9.024  1.00  0.00     0.008 A 
ENDBRANCH  14  19
ENDBRANCH   3  14
TORSDOF 5
ENDMDL
MODEL 14
REMARK VINA RESULT:    -6.296      2.289      6.225
REMARK INTER + INTRA:          -8.247
REMARK INTER:                  -8.239
REMARK INTRA:                  -0.009
REMARK UNBOUND:                -0.295
REMARK  5 active torsions:
REMARK  status: ('A' for Active; 'I' for Inactive)
REMARK    1  A    between atoms: C_2  and  C_3 
REMARK    2  A    between atoms: C_2  and  C_6 
REMARK    3  A    between atoms: C_2  and  C_13 
REMARK    4  A    between atoms: C_3  and  C_4 
REMARK    5  A    between atoms: C_14  and  O_23 
ROOT
HETATM    1  C   UNL     1       6.715  23.966  12.456  1.00  0.00     0.032 A 
HETATM    2  C   UNL     1       5.987  21.433  11.656  1.00  0.00     0.298 A 
HETATM    3  C   UNL     1       7.328  21.656  12.003  1.00  0.00     0.060 A 
HETATM    4  C   UNL     1       7.727  22.900  12.401  1.00  0.00     0.091 A 
HETATM    5  C   UNL     1       7.054  25.262  12.853  1.00  0.00     0.017 A 
HETATM    6  C   UNL     1       6.083  26.237  12.892  1.00  0.00     0.001 A 
HETATM    7  C   UNL     1       4.775  25.938  12.540  1.00  0.00     0.003 A 
HETATM    8  C   UNL     1       4.428  24.664  12.145  1.00  0.00     0.038 A 
HETATM    9  C   UNL     1       5.392  23.665  12.099  1.00  0.00     0.092 A 
HETATM   10  O   UNL     1       5.069  22.412  11.714  1.00  0.00    -0.274 OA
HETATM   11  O   UNL     1       5.642  20.319  11.303  1.00  0.00    -0.259 OA
ENDROOT
BRANCH   4  12
HETATM   12  O   UNL     1       9.014  23.145  12.737  1.00  0.00    -0.359 OA
HETATM   13  H   UNL     1       9.265  22.478  13.390  1.00  0.00     0.217 HD
ENDBRANCH   4  12
BRANCH   3  14
HETATM   14  C   UNL     1       8.324  20.529  11.930  1.00  0.00     0.067 C 
BRANCH  14  15
HETATM   15  C   UNL     1       8.083  19.715  10.657  1.00  0.00     0.092 C 
BRANCH  15  16
HETATM   16  C   UNL     1       9.321  19.746   9.798  1.00  0.00     0.124 C 
HETATM   17  C   UNL     1      10.633  19.250  10.349  1.00  0.00     0.091 C 
HETATM   18  O   UNL     1       9.262  20.169   8.670  1.00  0.00    -0.298 OA
ENDBRANCH  15  16
ENDBRANCH  14  15
BRANCH  14  19
HETATM   19  C   UNL     1       8.164  19.638  13.133  1.00  0.00    -0.049 A 
HETATM   20  C   UNL     1       8.114  18.265  12.975  1.00  0.00     0.008 A 
HETATM   21  C   UNL     1       7.966  17.446  14.079  1.00  0.00     0.001 A 
HETATM   22  C   UNL     1       7.870  18.000  15.341  1.00  0.00     0.000 A 
HETATM   23  C   UNL     1       7.921  19.372  15.499  1.00  0.00     0.001 A 
HETATM   24  C   UNL     1       8.073  20.190  14.396  1.00  0.00     0.008 A 
ENDBRANCH  14  19
ENDBRANCH   3  14
TORSDOF 5
ENDMDL
MODEL 15
REMARK VINA RESULT:    -6.101      2.787      6.580
REMARK INTER + INTRA:          -8.001
REMARK INTER:                  -7.895
REMARK INTRA:                  -0.106
REMARK UNBOUND:                -0.295
REMARK  5 active torsions:
REMARK  status: ('A' for Active; 'I' for Inactive)
REMARK    1  A    between atoms: C_2  and  C_3 
REMARK    2  A    between atoms: C_2  and  C_6 
REMARK    3  A    between atoms: C_2  and  C_13 
REMARK    4  A    between atoms: C_3  and  C_4 
REMARK    5  A    between atoms: C_14  and  O_23 
ROOT
HETATM    1  C   UNL     1       6.562  24.874  12.938  1.00  0.00     0.032 A 
HETATM    2  C   UNL     1       5.120  22.527  12.934  1.00  0.00     0.298 A 
HETATM    3  C   UNL     1       6.519  22.441  12.943  1.00  0.00     0.060 A 
HETATM    4  C   UNL     1       7.268  23.584  12.943  1.00  0.00     0.091 A 
HETATM    5  C   UNL     1       7.264  26.081  12.936  1.00  0.00     0.017 A 
HETATM    6  C   UNL     1       6.572  27.271  12.930  1.00  0.00     0.001 A 
HETATM    7  C   UNL     1       5.185  27.275  12.927  1.00  0.00     0.003 A 
HETATM    8  C   UNL     1       4.480  26.090  12.928  1.00  0.00     0.038 A 
HETATM    9  C   UNL     1       5.159  24.878  12.934  1.00  0.00     0.092 A 
HETATM   10  O   UNL     1       4.483  23.710  12.934  1.00  0.00    -0.274 OA
HETATM   11  O   UNL     1       4.462  21.501  12.935  1.00  0.00    -0.259 OA
ENDROOT
BRANCH   4  12
HETATM   12  O   UNL     1       8.620  23.531  12.948  1.00  0.00    -0.359 OA
HETATM   13  H   UNL     1       8.868  22.756  13.467  1.00  0.00     0.217 HD
ENDBRANCH   4  12
BRANCH   3  14
HETATM   14  C   UNL     1       7.195  21.094  12.949  1.00  0.00     0.067 C 
BRANCH  14  15
HETATM   15  C   UNL     1       8.346  21.105  13.956  1.00  0.00     0.092 C 
BRANCH  15  16
HETATM   16  C   UNL     1       7.953  20.314  15.177  1.00  0.00     0.124 C 
HETATM   17  C   UNL     1       8.105  18.815  15.184  1.00  0.00     0.091 C 
HETATM   18  O   UNL     1       7.517  20.881  16.149  1.00  0.00    -0.298 OA
ENDBRANCH  15  16
ENDBRANCH  14  15
BRANCH  14  19
HETATM   19  C   UNL     1       7.732  20.796  11.575  1.00  0.00    -0.049 A 
HETATM   20  C   UNL     1       6.998  21.141  10.455  1.00  0.00     0.008 A 
HETATM   21  C   UNL     1       7.491  20.868   9.193  1.00  0.00     0.001 A 
HETATM   22  C   UNL     1       8.719  20.251   9.050  1.00  0.00     0.000 A 
HETATM   23  C   UNL     1       9.453  19.907  10.169  1.00  0.00     0.001 A 
HETATM   24  C   UNL     1       8.962  20.185  11.430  1.00  0.00     0.008 A 
ENDBRANCH  14  19
ENDBRANCH   3  14
TORSDOF 5
ENDMDL
MODEL 16
REMARK VINA RESULT:    -6.040      2.597      5.756
REMARK INTER + INTRA:          -7.924
REMARK INTER:                  -8.033
REMARK INTRA:                   0.109
REMARK UNBOUND:                -0.295
REMARK  5 active torsions:
REMARK  status: ('A' for Active; 'I' for Inactive)
REMARK    1  A    between atoms: C_2  and  C_3 
REMARK    2  A    between atoms: C_2  and  C_6 
REMARK    3  A    between atoms: C_2  and  C_13 
REMARK    4  A    between atoms: C_3  and  C_4 
REMARK    5  A    between atoms: C_14  and  O_23 
ROOT
HETATM    1  C   UNL     1       7.790  21.641  14.880  1.00  0.00     0.032 A 
HETATM    2  C   UNL     1       6.952  19.967  12.859  1.00  0.00     0.298 A 
HETATM    3  C   UNL     1       7.567  21.176  12.502  1.00  0.00     0.060 A 
HETATM    4  C   UNL     1       7.993  22.033  13.477  1.00  0.00     0.091 A 
HETATM    5  C   UNL     1       8.200  22.470  15.926  1.00  0.00     0.017 A 
HETATM    6  C   UNL     1       7.994  22.073  17.229  1.00  0.00     0.001 A 
HETATM    7  C   UNL     1       7.384  20.858  17.503  1.00  0.00     0.003 A 
HETATM    8  C   UNL     1       6.974  20.031  16.479  1.00  0.00     0.038 A 
HETATM    9  C   UNL     1       7.172  20.412  15.158  1.00  0.00     0.092 A 
HETATM   10  O   UNL     1       6.775  19.615  14.144  1.00  0.00    -0.274 OA
HETATM   11  O   UNL     1       6.577  19.210  11.982  1.00  0.00    -0.259 OA
ENDROOT
BRANCH   4  12
HETATM   12  O   UNL     1       8.585  23.208  13.161  1.00  0.00    -0.359 OA
HETATM   13  H   UNL     1       8.286  23.856  13.812  1.00  0.00     0.217 HD
ENDBRANCH   4  12
BRANCH   3  14
HETATM   14  C   UNL     1       7.751  21.530  11.049  1.00  0.00     0.067 C 
BRANCH  14  15
HETATM   15  C   UNL     1       6.405  21.444  10.329  1.00  0.00     0.092 C 
BRANCH  15  16
HETATM   16  C   UNL     1       5.442  22.426  10.943  1.00  0.00     0.124 C 
HETATM   17  C   UNL     1       4.087  21.961  11.411  1.00  0.00     0.091 C 
HETATM   18  O   UNL     1       5.755  23.586  11.060  1.00  0.00    -0.298 OA
ENDBRANCH  15  16
ENDBRANCH  14  15
BRANCH  14  19
HETATM   19  C   UNL     1       8.722  20.568  10.417  1.00  0.00    -0.049 A 
HETATM   20  C   UNL     1       8.574  20.209   9.090  1.00  0.00     0.008 A 
HETATM   21  C   UNL     1       9.464  19.326   8.509  1.00  0.00     0.001 A 
HETATM   22  C   UNL     1      10.503  18.802   9.254  1.00  0.00     0.000 A 
HETATM   23  C   UNL     1      10.652  19.161  10.580  1.00  0.00     0.001 A 
HETATM   24  C   UNL     1       9.764  20.048  11.159  1.00  0.00     0.008 A 
ENDBRANCH  14  19
ENDBRANCH   3  14
TORSDOF 5
ENDMDL
MODEL 17
REMARK VINA RESULT:    -5.977      2.241      5.710
REMARK INTER + INTRA:          -7.845
REMARK INTER:                  -7.518
REMARK INTRA:                  -0.326
REMARK UNBOUND:                -0.295
REMARK  5 active torsions:
REMARK  status: ('A' for Active; 'I' for Inactive)
REMARK    1  A    between atoms: C_2  and  C_3 
REMARK    2  A    between atoms: C_2  and  C_6 
REMARK    3  A    between atoms: C_2  and  C_13 
REMARK    4  A    between atoms: C_3  and  C_4 
REMARK    5  A    between atoms: C_14  and  O_23 
ROOT
HETATM    1  C   UNL     1       6.335  18.706  13.993  1.00  0.00     0.032 A 
HETATM    2  C   UNL     1       8.048  20.856  14.166  1.00  0.00     0.298 A 
HETATM    3  C   UNL     1       7.505  20.544  12.911  1.00  0.00     0.060 A 
HETATM    4  C   UNL     1       6.653  19.483  12.786  1.00  0.00     0.091 A 
HETATM    5  C   UNL     1       5.473  17.608  13.938  1.00  0.00     0.017 A 
HETATM    6  C   UNL     1       5.196  16.902  15.086  1.00  0.00     0.001 A 
HETATM    7  C   UNL     1       5.768  17.275  16.294  1.00  0.00     0.003 A 
HETATM    8  C   UNL     1       6.621  18.356  16.362  1.00  0.00     0.038 A 
HETATM    9  C   UNL     1       6.914  19.083  15.215  1.00  0.00     0.092 A 
HETATM   10  O   UNL     1       7.747  20.143  15.264  1.00  0.00    -0.274 OA
HETATM   11  O   UNL     1       8.806  21.805  14.266  1.00  0.00    -0.259 OA
ENDROOT
BRANCH   4  12
HETATM   12  O   UNL     1       6.118  19.157  11.587  1.00  0.00    -0.359 OA
HETATM   13  H   UNL     1       5.986  19.984  11.106  1.00  0.00     0.217 HD
ENDBRANCH   4  12
BRANCH   3  14
HETATM   14  C   UNL     1       7.863  21.373  11.705  1.00  0.00     0.067 C 
BRANCH  14  15
HETATM   15  C   UNL     1       6.584  21.851  11.017  1.00  0.00     0.092 C 
BRANCH  15  16
HETATM   16  C   UNL     1       6.087  23.103  11.692  1.00  0.00     0.124 C 
HETATM   17  C   UNL     1       7.063  24.173  12.108  1.00  0.00     0.091 C 
HETATM   18  O   UNL     1       4.908  23.249  11.900  1.00  0.00    -0.298 OA
ENDBRANCH  15  16
ENDBRANCH  14  15
BRANCH  14  19
HETATM   19  C   UNL     1       8.669  20.540  10.744  1.00  0.00    -0.049 A 
HETATM   20  C   UNL     1       9.767  19.830  11.197  1.00  0.00     0.008 A 
HETATM   21  C   UNL     1      10.506  19.064  10.315  1.00  0.00     0.001 A 
HETATM   22  C   UNL     1      10.149  19.008   8.982  1.00  0.00     0.000 A 
HETATM   23  C   UNL     1       9.053  19.716   8.530  1.00  0.00     0.001 A 
HETATM   24  C   UNL     1       8.310  20.478   9.412  1.00  0.00     0.008 A 
ENDBRANCH  14  19
ENDBRANCH   3  14
TORSDOF 5
ENDMDL
MODEL 18
REMARK VINA RESULT:    -5.903      2.937      4.698
REMARK INTER + INTRA:          -7.752
REMARK INTER:                  -7.723
REMARK INTRA:                  -0.029
REMARK UNBOUND:                -0.295
REMARK  5 active torsions:
REMARK  status: ('A' for Active; 'I' for Inactive)
REMARK    1  A    between atoms: C_2  and  C_3 
REMARK    2  A    between atoms: C_2  and  C_6 
REMARK    3  A    between atoms: C_2  and  C_13 
REMARK    4  A    between atoms: C_3  and  C_4 
REMARK    5  A    between atoms: C_14  and  O_23 
ROOT
HETATM    1  C   UNL     1       7.800  21.007  10.536  1.00  0.00     0.032 A 
HETATM    2  C   UNL     1       8.139  21.911  13.116  1.00  0.00     0.298 A 
HETATM    3  C   UNL     1       7.087  22.450  12.361  1.00  0.00     0.060 A 
HETATM    4  C   UNL     1       6.889  22.027  11.077  1.00  0.00     0.091 A 
HETATM    5  C   UNL     1       7.658  20.532   9.231  1.00  0.00     0.017 A 
HETATM    6  C   UNL     1       8.528  19.577   8.756  1.00  0.00     0.001 A 
HETATM    7  C   UNL     1       9.543  19.088   9.566  1.00  0.00     0.003 A 
HETATM    8  C   UNL     1       9.695  19.550  10.856  1.00  0.00     0.038 A 
HETATM    9  C   UNL     1       8.827  20.513  11.355  1.00  0.00     0.092 A 
HETATM   10  O   UNL     1       8.963  20.977  12.615  1.00  0.00    -0.274 OA
HETATM   11  O   UNL     1       8.305  22.295  14.261  1.00  0.00    -0.259 OA
ENDROOT
BRANCH   4  12
HETATM   12  O   UNL     1       5.885  22.532  10.324  1.00  0.00    -0.359 OA
HETATM   13  H   UNL     1       5.501  23.264  10.824  1.00  0.00     0.217 HD
ENDBRANCH   4  12
BRANCH   3  14
HETATM   14  C   UNL     1       6.181  23.492  12.962  1.00  0.00     0.067 C 
BRANCH  14  15
HETATM   15  C   UNL     1       7.019  24.673  13.455  1.00  0.00     0.092 C 
BRANCH  15  16
HETATM   16  C   UNL     1       6.460  25.956  12.896  1.00  0.00     0.124 C 
HETATM   17  C   UNL     1       6.997  27.282  13.368  1.00  0.00     0.091 C 
HETATM   18  O   UNL     1       5.582  25.921  12.069  1.00  0.00    -0.298 OA
ENDBRANCH  15  16
ENDBRANCH  14  15
BRANCH  14  19
HETATM   19  C   UNL     1       5.425  22.895  14.120  1.00  0.00    -0.049 A 
HETATM   20  C   UNL     1       5.418  23.536  15.345  1.00  0.00     0.008 A 
HETATM   21  C   UNL     1       4.724  22.988  16.408  1.00  0.00     0.001 A 
HETATM   22  C   UNL     1       4.038  21.800  16.246  1.00  0.00     0.000 A 
HETATM   23  C   UNL     1       4.045  21.160  15.021  1.00  0.00     0.001 A 
HETATM   24  C   UNL     1       4.734  21.710  13.957  1.00  0.00     0.008 A 
ENDBRANCH  14  19
ENDBRANCH   3  14
TORSDOF 5
ENDMDL
MODEL 19
REMARK VINA RESULT:    -5.827      1.874      5.766
REMARK INTER + INTRA:          -7.655
REMARK INTER:                  -7.698
REMARK INTRA:                   0.043
REMARK UNBOUND:                -0.295
REMARK  5 active torsions:
REMARK  status: ('A' for Active; 'I' for Inactive)
REMARK    1  A    between atoms: C_2  and  C_3 
REMARK    2  A    between atoms: C_2  and  C_6 
REMARK    3  A    between atoms: C_2  and  C_13 
REMARK    4  A    between atoms: C_3  and  C_4 
REMARK    5  A    between atoms: C_14  and  O_23 
ROOT
HETATM    1  C   UNL     1       5.860  23.673  12.046  1.00  0.00     0.032 A 
HETATM    2  C   UNL     1       7.939  21.924  12.497  1.00  0.00     0.298 A 
HETATM    3  C   UNL     1       6.830  21.458  11.776  1.00  0.00     0.060 A 
HETATM    4  C   UNL     1       5.777  22.297  11.536  1.00  0.00     0.091 A 
HETATM    5  C   UNL     1       4.820  24.583  11.838  1.00  0.00     0.017 A 
HETATM    6  C   UNL     1       4.928  25.864  12.330  1.00  0.00     0.001 A 
HETATM    7  C   UNL     1       6.062  26.253  13.029  1.00  0.00     0.003 A 
HETATM    8  C   UNL     1       7.095  25.365  13.242  1.00  0.00     0.038 A 
HETATM    9  C   UNL     1       7.006  24.067  12.754  1.00  0.00     0.092 A 
HETATM   10  O   UNL     1       8.007  23.185  12.955  1.00  0.00    -0.274 OA
HETATM   11  O   UNL     1       8.872  21.168  12.704  1.00  0.00    -0.259 OA
ENDROOT
BRANCH   4  12
HETATM   12  O   UNL     1       4.692  21.873  10.848  1.00  0.00    -0.359 OA
HETATM   13  H   UNL     1       4.435  22.594  10.259  1.00  0.00     0.217 HD
ENDBRANCH   4  12
BRANCH   3  14
HETATM   14  C   UNL     1       6.795  20.038  11.275  1.00  0.00     0.067 C 
BRANCH  14  15
HETATM   15  C   UNL     1       6.836  19.077  12.463  1.00  0.00     0.092 C 
BRANCH  15  16
HETATM   16  C   UNL     1       5.513  18.365  12.581  1.00  0.00     0.124 C 
HETATM   17  C   UNL     1       4.670  18.134  11.353  1.00  0.00     0.091 C 
HETATM   18  O   UNL     1       5.127  17.981  13.658  1.00  0.00    -0.298 OA
ENDBRANCH  15  16
ENDBRANCH  14  15
BRANCH  14  19
HETATM   19  C   UNL     1       7.986  19.790  10.387  1.00  0.00    -0.049 A 
HETATM   20  C   UNL     1       8.969  18.901  10.781  1.00  0.00     0.008 A 
HETATM   21  C   UNL     1      10.062  18.672   9.967  1.00  0.00     0.001 A 
HETATM   22  C   UNL     1      10.172  19.332   8.758  1.00  0.00     0.000 A 
HETATM   23  C   UNL     1       9.190  20.220   8.364  1.00  0.00     0.001 A 
HETATM   24  C   UNL     1       8.094  20.445   9.176  1.00  0.00     0.008 A 
ENDBRANCH  14  19
ENDBRANCH   3  14
TORSDOF 5
ENDMDL
MODEL 20
REMARK VINA RESULT:    -5.605      2.195      3.194
REMARK INTER + INTRA:          -7.375
REMARK INTER:                  -7.080
REMARK INTRA:                  -0.295
REMARK UNBOUND:                -0.295
REMARK  5 active torsions:
REMARK  status: ('A' for Active; 'I' for Inactive)
REMARK    1  A    between atoms: C_2  and  C_3 
REMARK    2  A    between atoms: C_2  and  C_6 
REMARK    3  A    between atoms: C_2  and  C_13 
REMARK    4  A    between atoms: C_3  and  C_4 
REMARK    5  A    between atoms: C_14  and  O_23 
ROOT
HETATM    1  C   UNL     1       7.707  20.928  10.703  1.00  0.00     0.032 A 
HETATM    2  C   UNL     1       7.980  21.275  13.422  1.00  0.00     0.298 A 
HETATM    3  C   UNL     1       6.839  21.803  12.801  1.00  0.00     0.060 A 
HETATM    4  C   UNL     1       6.670  21.653  11.453  1.00  0.00     0.091 A 
HETATM    5  C   UNL     1       7.600  20.740   9.324  1.00  0.00     0.017 A 
HETATM    6  C   UNL     1       8.588  20.058   8.651  1.00  0.00     0.001 A 
HETATM    7  C   UNL     1       9.686  19.559   9.337  1.00  0.00     0.003 A 
HETATM    8  C   UNL     1       9.804  19.739  10.698  1.00  0.00     0.038 A 
HETATM    9  C   UNL     1       8.818  20.424  11.396  1.00  0.00     0.092 A 
HETATM   10  O   UNL     1       8.919  20.610  12.729  1.00  0.00    -0.274 OA
HETATM   11  O   UNL     1       8.119  21.414  14.624  1.00  0.00    -0.259 OA
ENDROOT
BRANCH   4  12
HETATM   12  O   UNL     1       5.581  22.156  10.827  1.00  0.00    -0.359 OA
HETATM   13  H   UNL     1       5.710  23.111  10.767  1.00  0.00     0.217 HD
ENDBRANCH   4  12
BRANCH   3  14
HETATM   14  C   UNL     1       5.806  22.537  13.616  1.00  0.00     0.067 C 
BRANCH  14  15
HETATM   15  C   UNL     1       4.418  21.968  13.312  1.00  0.00     0.092 C 
BRANCH  15  16
HETATM   16  C   UNL     1       4.284  20.605  13.941  1.00  0.00     0.124 C 
HETATM   17  C   UNL     1       4.446  20.444  15.431  1.00  0.00     0.091 C 
HETATM   18  O   UNL     1       4.047  19.644  13.253  1.00  0.00    -0.298 OA
ENDBRANCH  15  16
ENDBRANCH  14  15
BRANCH  14  19
HETATM   19  C   UNL     1       5.836  24.000  13.265  1.00  0.00    -0.049 A 
HETATM   20  C   UNL     1       4.707  24.612  12.753  1.00  0.00     0.008 A 
HETATM   21  C   UNL     1       4.734  25.956  12.431  1.00  0.00     0.001 A 
HETATM   22  C   UNL     1       5.890  26.689  12.622  1.00  0.00     0.000 A 
HETATM   23  C   UNL     1       7.018  26.077  13.134  1.00  0.00     0.001 A 
HETATM   24  C   UNL     1       6.989  24.735  13.461  1.00  0.00     0.008 A 
ENDBRANCH  14  19
ENDBRANCH   3  14
TORSDOF 5
ENDMDL
