MODEL 1
REMARK VINA RESULT:    -6.229      0.000      0.000
REMARK INTER + INTRA:          -8.168
REMARK INTER:                  -8.778
REMARK INTRA:                   0.610
REMARK UNBOUND:                 0.610
REMARK  7 active torsions:
REMARK  status: ('A' for Active; 'I' for Inactive)
REMARK    1  A    between atoms: C_13  and  C_14 
REMARK    2  A    between atoms: C_14  and  C_19 
REMARK    3  A    between atoms: C_15  and  C_20 
REMARK    4  A    between atoms: C_16  and  C_21 
REMARK    5  A    between atoms: C_17  and  C_23 
REMARK    6  A    between atoms: C_18  and  C_26 
REMARK    7  A    between atoms: C_22  and  C_28 
ROOT
HETATM    1  O   UNL     1      50.428  23.090  10.442  1.00  0.00    -0.304 OA
HETATM    2  O   UNL     1      53.445  22.043   6.308  1.00  0.00    -0.304 OA
HETATM    3  O   UNL     1      49.169  23.883   5.486  1.00  0.00    -0.304 OA
HETATM    4  O   UNL     1      52.330  20.616   8.939  1.00  0.00    -0.270 OA
HETATM    5  O   UNL     1      51.638  24.626   9.220  1.00  0.00    -0.263 OA
HETATM    6  O   UNL     1      49.665  21.735   8.369  1.00  0.00    -0.270 OA
HETATM    7  O   UNL     1      51.097  22.923   3.063  1.00  0.00    -0.270 OA
HETATM    8  O   UNL     1      55.366  21.912   5.056  1.00  0.00    -0.263 OA
HETATM    9  O   UNL     1      48.544  22.027   4.276  1.00  0.00    -0.263 OA
HETATM   10  N   UNL     1      53.574  22.545   9.278  1.00  0.00    -0.340 N 
HETATM   11  N   UNL     1      47.956  23.143   7.699  1.00  0.00    -0.340 N 
HETATM   12  N   UNL     1      52.305  23.927   4.779  1.00  0.00    -0.340 N 
HETATM   13  C   UNL     1      52.777  22.880  10.476  1.00  0.00     0.190 C 
HETATM   14  C   UNL     1      47.694  22.293   6.517  1.00  0.00     0.190 C 
HETATM   15  C   UNL     1      53.590  23.371   4.309  1.00  0.00     0.190 C 
HETATM   16  C   UNL     1      53.967  21.100   7.264  1.00  0.00     0.227 C 
HETATM   17  C   UNL     1      49.183  23.540   9.863  1.00  0.00     0.227 C 
HETATM   18  C   UNL     1      49.894  24.506   4.411  1.00  0.00     0.227 C 
HETATM   19  C   UNL     1      53.219  21.388   8.562  1.00  0.00     0.250 C 
HETATM   20  C   UNL     1      51.575  23.660   9.969  1.00  0.00     0.283 C 
HETATM   21  C   UNL     1      48.963  22.730   8.583  1.00  0.00     0.250 C 
HETATM   22  C   UNL     1      51.143  23.702   4.020  1.00  0.00     0.250 C 
HETATM   23  C   UNL     1      54.248  22.375   5.260  1.00  0.00     0.283 C 
HETATM   24  C   UNL     1      48.524  22.699   5.301  1.00  0.00     0.283 C 
HETATM   25  C   UNL     1      54.655  23.460   8.897  1.00  0.00     0.153 C 
HETATM   26  C   UNL     1      47.173  24.372   7.846  1.00  0.00     0.153 C 
HETATM   27  C   UNL     1      52.340  24.841   5.922  1.00  0.00     0.153 C 
ENDROOT
BRANCH  17  28
HETATM   28  C   UNL     1      48.091  23.243  10.881  1.00  0.00     0.016 C 
HETATM   29  C   UNL     1      48.559  22.187  11.881  1.00  0.00     0.012 C 
HETATM   30  C   UNL     1      47.670  24.520  11.608  1.00  0.00     0.012 C 
ENDBRANCH  17  28
BRANCH  13  31
HETATM   31  C   UNL     1      53.500  23.674  11.559  1.00  0.00     0.014 C 
HETATM   32  C   UNL     1      52.479  24.353  12.474  1.00  0.00     0.012 C 
BRANCH  31  33
HETATM   33  C   UNL     1      54.456  22.752  12.335  1.00  0.00     0.002 C 
HETATM   34  C   UNL     1      55.870  23.303  12.462  1.00  0.00     0.005 C 
ENDBRANCH  31  33
ENDBRANCH  13  31
BRANCH  14  35
HETATM   35  C   UNL     1      46.217  22.215   6.130  1.00  0.00     0.010 C 
HETATM   36  C   UNL     1      45.914  23.158   4.967  1.00  0.00     0.012 C 
HETATM   37  C   UNL     1      45.828  20.781   5.772  1.00  0.00     0.012 C 
ENDBRANCH  14  35
BRANCH  16  38
HETATM   38  C   UNL     1      53.694  19.686   6.757  1.00  0.00     0.016 C 
HETATM   39  C   UNL     1      54.999  18.986   6.382  1.00  0.00     0.012 C 
HETATM   40  C   UNL     1      52.741  19.717   5.563  1.00  0.00     0.012 C 
ENDBRANCH  16  38
BRANCH  18  41
HETATM   41  C   UNL     1      48.990  24.808   3.216  1.00  0.00     0.016 C 
HETATM   42  C   UNL     1      49.797  25.417   2.072  1.00  0.00     0.012 C 
HETATM   43  C   UNL     1      47.853  25.742   3.627  1.00  0.00     0.012 C 
ENDBRANCH  18  41
BRANCH  15  44
HETATM   44  C   UNL     1      54.572  24.482   3.933  1.00  0.00     0.010 C 
HETATM   45  C   UNL     1      55.231  24.182   2.590  1.00  0.00     0.012 C 
HETATM   46  C   UNL     1      55.626  24.654   5.024  1.00  0.00     0.012 C 
ENDBRANCH  15  44
TORSDOF 7
ENDMDL
MODEL 2
REMARK VINA RESULT:    -5.811      1.777      6.667
REMARK INTER + INTRA:          -7.578
REMARK INTER:                  -8.429
REMARK INTRA:                   0.851
REMARK UNBOUND:                 0.610
REMARK  7 active torsions:
REMARK  status: ('A' for Active; 'I' for Inactive)
REMARK    1  A    between atoms: C_13  and  C_14 
REMARK    2  A    between atoms: C_14  and  C_19 
REMARK    3  A    between atoms: C_15  and  C_20 
REMARK    4  A    between atoms: C_16  and  C_21 
REMARK    5  A    between atoms: C_17  and  C_23 
REMARK    6  A    between atoms: C_18  and  C_26 
REMARK    7  A    between atoms: C_22  and  C_28 
ROOT
HETATM    1  O   UNL     1      51.595  23.715  10.664  1.00  0.00    -0.304 OA
HETATM    2  O   UNL     1      49.203  22.952   6.083  1.00  0.00    -0.304 OA
HETATM    3  O   UNL     1      53.556  21.184   6.599  1.00  0.00    -0.304 OA
HETATM    4  O   UNL     1      49.925  25.327   8.094  1.00  0.00    -0.270 OA
HETATM    5  O   UNL     1      50.577  21.765   9.971  1.00  0.00    -0.263 OA
HETATM    6  O   UNL     1      52.645  24.228   8.351  1.00  0.00    -0.270 OA
HETATM    7  O   UNL     1      51.996  21.048   3.761  1.00  0.00    -0.270 OA
HETATM    8  O   UNL     1      47.481  22.491   4.633  1.00  0.00    -0.263 OA
HETATM    9  O   UNL     1      54.345  22.478   4.867  1.00  0.00    -0.263 OA
HETATM   10  N   UNL     1      48.648  23.600   8.975  1.00  0.00    -0.340 N 
HETATM   11  N   UNL     1      54.436  22.771   8.501  1.00  0.00    -0.340 N 
HETATM   12  N   UNL     1      50.555  20.698   5.554  1.00  0.00    -0.340 N 
HETATM   13  C   UNL     1      49.265  23.788  10.304  1.00  0.00     0.190 C 
HETATM   14  C   UNL     1      54.864  23.126   7.131  1.00  0.00     0.190 C 
HETATM   15  C   UNL     1      49.349  20.962   4.741  1.00  0.00     0.190 C 
HETATM   16  C   UNL     1      48.546  24.155   6.529  1.00  0.00     0.227 C 
HETATM   17  C   UNL     1      52.911  23.151  10.471  1.00  0.00     0.227 C 
HETATM   18  C   UNL     1      52.995  20.161   5.756  1.00  0.00     0.227 C 
HETATM   19  C   UNL     1      49.101  24.420   7.926  1.00  0.00     0.250 C 
HETATM   20  C   UNL     1      50.529  22.944  10.296  1.00  0.00     0.283 C 
HETATM   21  C   UNL     1      53.311  23.429   9.019  1.00  0.00     0.250 C 
HETATM   22  C   UNL     1      51.813  20.686   4.927  1.00  0.00     0.250 C 
HETATM   23  C   UNL     1      48.559  22.204   5.144  1.00  0.00     0.283 C 
HETATM   24  C   UNL     1      54.219  22.245   6.064  1.00  0.00     0.283 C 
HETATM   25  C   UNL     1      47.635  22.550   8.832  1.00  0.00     0.153 C 
HETATM   26  C   UNL     1      55.192  21.735   9.208  1.00  0.00     0.153 C 
HETATM   27  C   UNL     1      50.357  20.282   6.943  1.00  0.00     0.153 C 
ENDROOT
BRANCH  17  28
HETATM   28  C   UNL     1      53.844  23.871  11.433  1.00  0.00     0.016 C 
HETATM   29  C   UNL     1      53.085  24.931  12.229  1.00  0.00     0.012 C 
HETATM   30  C   UNL     1      54.519  22.876  12.376  1.00  0.00     0.012 C 
ENDBRANCH  17  28
BRANCH  13  31
HETATM   31  C   UNL     1      48.395  23.422  11.502  1.00  0.00     0.014 C 
HETATM   32  C   UNL     1      49.256  23.342  12.764  1.00  0.00     0.012 C 
BRANCH  31  33
HETATM   33  C   UNL     1      47.244  24.433  11.644  1.00  0.00     0.002 C 
HETATM   34  C   UNL     1      45.894  23.789  11.927  1.00  0.00     0.005 C 
ENDBRANCH  31  33
ENDBRANCH  13  31
BRANCH  14  35
HETATM   35  C   UNL     1      56.381  23.135   6.943  1.00  0.00     0.010 C 
HETATM   36  C   UNL     1      56.828  21.941   6.102  1.00  0.00     0.012 C 
HETATM   37  C   UNL     1      56.837  24.444   6.298  1.00  0.00     0.012 C 
ENDBRANCH  14  35
BRANCH  16  38
HETATM   38  C   UNL     1      48.887  25.286   5.562  1.00  0.00     0.016 C 
HETATM   39  C   UNL     1      47.650  25.713   4.775  1.00  0.00     0.012 C 
HETATM   40  C   UNL     1      50.006  24.863   4.611  1.00  0.00     0.012 C 
ENDBRANCH  16  38
BRANCH  18  41
HETATM   41  C   UNL     1      54.062  19.482   4.899  1.00  0.00     0.016 C 
HETATM   42  C   UNL     1      53.429  18.441   3.979  1.00  0.00     0.012 C 
HETATM   43  C   UNL     1      55.131  18.840   5.781  1.00  0.00     0.012 C 
ENDBRANCH  18  41
BRANCH  15  44
HETATM   44  C   UNL     1      48.434  19.738   4.691  1.00  0.00     0.010 C 
HETATM   45  C   UNL     1      49.237  18.482   4.366  1.00  0.00     0.012 C 
HETATM   46  C   UNL     1      47.320  19.945   3.669  1.00  0.00     0.012 C 
ENDBRANCH  15  44
TORSDOF 7
ENDMDL
MODEL 3
REMARK VINA RESULT:    -5.382      2.884      6.708
REMARK INTER + INTRA:          -6.974
REMARK INTER:                  -8.123
REMARK INTRA:                   1.148
REMARK UNBOUND:                 0.610
REMARK  7 active torsions:
REMARK  status: ('A' for Active; 'I' for Inactive)
REMARK    1  A    between atoms: C_13  and  C_14 
REMARK    2  A    between atoms: C_14  and  C_19 
REMARK    3  A    between atoms: C_15  and  C_20 
REMARK    4  A    between atoms: C_16  and  C_21 
REMARK    5  A    between atoms: C_17  and  C_23 
REMARK    6  A    between atoms: C_18  and  C_26 
REMARK    7  A    between atoms: C_22  and  C_28 
ROOT
HETATM    1  O   UNL     1      49.933  22.077   8.693  1.00  0.00    -0.304 OA
HETATM    2  O   UNL     1      47.088  25.871   6.501  1.00  0.00    -0.304 OA
HETATM    3  O   UNL     1      47.690  21.884   4.033  1.00  0.00    -0.304 OA
HETATM    4  O   UNL     1      49.933  25.446   7.889  1.00  0.00    -0.270 OA
HETATM    5  O   UNL     1      47.632  22.147   8.563  1.00  0.00    -0.263 OA
HETATM    6  O   UNL     1      50.299  22.995   6.297  1.00  0.00    -0.270 OA
HETATM    7  O   UNL     1      46.180  24.455   2.761  1.00  0.00    -0.270 OA
HETATM    8  O   UNL     1      45.559  27.580   6.375  1.00  0.00    -0.263 OA
HETATM    9  O   UNL     1      48.745  23.030   2.338  1.00  0.00    -0.263 OA
HETATM   10  N   UNL     1      48.082  24.886   9.172  1.00  0.00    -0.340 N 
HETATM   11  N   UNL     1      49.908  21.022   5.153  1.00  0.00    -0.340 N 
HETATM   12  N   UNL     1      45.650  24.170   5.008  1.00  0.00    -0.340 N 
HETATM   13  C   UNL     1      48.843  23.818   9.852  1.00  0.00     0.190 C 
HETATM   14  C   UNL     1      50.079  21.717   3.859  1.00  0.00     0.190 C 
HETATM   15  C   UNL     1      45.130  25.546   5.143  1.00  0.00     0.190 C 
HETATM   16  C   UNL     1      47.924  26.642   7.385  1.00  0.00     0.227 C 
HETATM   17  C   UNL     1      50.006  21.058   7.671  1.00  0.00     0.227 C 
HETATM   18  C   UNL     1      46.356  22.214   3.608  1.00  0.00     0.227 C 
HETATM   19  C   UNL     1      48.740  25.615   8.165  1.00  0.00     0.250 C 
HETATM   20  C   UNL     1      48.697  22.585   8.976  1.00  0.00     0.283 C 
HETATM   21  C   UNL     1      50.080  21.779   6.322  1.00  0.00     0.250 C 
HETATM   22  C   UNL     1      46.066  23.716   3.744  1.00  0.00     0.250 C 
HETATM   23  C   UNL     1      45.929  26.448   6.081  1.00  0.00     0.283 C 
HETATM   24  C   UNL     1      48.774  22.302   3.325  1.00  0.00     0.283 C 
HETATM   25  C   UNL     1      46.684  25.090   9.567  1.00  0.00     0.153 C 
HETATM   26  C   UNL     1      49.535  19.606   5.127  1.00  0.00     0.153 C 
HETATM   27  C   UNL     1      45.536  23.286   6.169  1.00  0.00     0.153 C 
ENDROOT
BRANCH  17  28
HETATM   28  C   UNL     1      51.280  20.267   7.928  1.00  0.00     0.016 C 
HETATM   29  C   UNL     1      52.501  21.186   7.900  1.00  0.00     0.012 C 
HETATM   30  C   UNL     1      51.197  19.529   9.264  1.00  0.00     0.012 C 
ENDBRANCH  17  28
BRANCH  13  31
HETATM   31  C   UNL     1      48.418  23.501  11.281  1.00  0.00     0.014 C 
HETATM   32  C   UNL     1      48.084  22.014  11.406  1.00  0.00     0.012 C 
BRANCH  31  33
HETATM   33  C   UNL     1      49.519  23.937  12.265  1.00  0.00     0.002 C 
HETATM   34  C   UNL     1      50.930  23.639  11.776  1.00  0.00     0.005 C 
ENDBRANCH  31  33
ENDBRANCH  13  31
BRANCH  14  35
HETATM   35  C   UNL     1      50.736  20.856   2.781  1.00  0.00     0.010 C 
HETATM   36  C   UNL     1      49.726  20.480   1.700  1.00  0.00     0.012 C 
HETATM   37  C   UNL     1      51.933  21.581   2.165  1.00  0.00     0.012 C 
ENDBRANCH  14  35
BRANCH  16  38
HETATM   38  C   UNL     1      48.817  27.552   6.545  1.00  0.00     0.016 C 
HETATM   39  C   UNL     1      48.442  29.018   6.753  1.00  0.00     0.012 C 
HETATM   40  C   UNL     1      48.725  27.181   5.066  1.00  0.00     0.012 C 
ENDBRANCH  16  38
BRANCH  18  41
HETATM   41  C   UNL     1      46.058  21.680   2.207  1.00  0.00     0.016 C 
HETATM   42  C   UNL     1      44.644  22.065   1.776  1.00  0.00     0.012 C 
HETATM   43  C   UNL     1      46.240  20.165   2.161  1.00  0.00     0.012 C 
ENDBRANCH  18  41
BRANCH  15  44
HETATM   44  C   UNL     1      43.651  25.545   5.532  1.00  0.00     0.010 C 
HETATM   45  C   UNL     1      42.803  24.951   4.411  1.00  0.00     0.012 C 
HETATM   46  C   UNL     1      43.186  26.959   5.868  1.00  0.00     0.012 C 
ENDBRANCH  15  44
TORSDOF 7
ENDMDL
MODEL 4
REMARK VINA RESULT:    -5.352      2.004      7.799
REMARK INTER + INTRA:          -6.931
REMARK INTER:                  -7.751
REMARK INTRA:                   0.820
REMARK UNBOUND:                 0.610
REMARK  7 active torsions:
REMARK  status: ('A' for Active; 'I' for Inactive)
REMARK    1  A    between atoms: C_13  and  C_14 
REMARK    2  A    between atoms: C_14  and  C_19 
REMARK    3  A    between atoms: C_15  and  C_20 
REMARK    4  A    between atoms: C_16  and  C_21 
REMARK    5  A    between atoms: C_17  and  C_23 
REMARK    6  A    between atoms: C_18  and  C_26 
REMARK    7  A    between atoms: C_22  and  C_28 
ROOT
HETATM    1  O   UNL     1      53.485  25.901   5.243  1.00  0.00    -0.304 OA
HETATM    2  O   UNL     1      49.565  22.559   6.110  1.00  0.00    -0.304 OA
HETATM    3  O   UNL     1      52.119  23.949   9.836  1.00  0.00    -0.304 OA
HETATM    4  O   UNL     1      52.126  22.881   4.229  1.00  0.00    -0.270 OA
HETATM    5  O   UNL     1      51.413  26.431   6.104  1.00  0.00    -0.263 OA
HETATM    6  O   UNL     1      53.702  23.692   6.582  1.00  0.00    -0.270 OA
HETATM    7  O   UNL     1      49.810  21.690  10.110  1.00  0.00    -0.270 OA
HETATM    8  O   UNL     1      47.474  21.631   5.896  1.00  0.00    -0.263 OA
HETATM    9  O   UNL     1      52.768  21.783  10.266  1.00  0.00    -0.263 OA
HETATM   10  N   UNL     1      50.560  24.589   4.115  1.00  0.00    -0.340 N 
HETATM   11  N   UNL     1      54.340  24.623   8.601  1.00  0.00    -0.340 N 
HETATM   12  N   UNL     1      49.191  23.379   8.635  1.00  0.00    -0.340 N 
HETATM   13  C   UNL     1      51.621  25.578   3.835  1.00  0.00     0.190 C 
HETATM   14  C   UNL     1      54.347  23.287   9.236  1.00  0.00     0.190 C 
HETATM   15  C   UNL     1      48.115  22.568   8.029  1.00  0.00     0.190 C 
HETATM   16  C   UNL     1      49.873  22.256   4.735  1.00  0.00     0.227 C 
HETATM   17  C   UNL     1      54.112  26.049   6.536  1.00  0.00     0.227 C 
HETATM   18  C   UNL     1      50.834  23.832  10.474  1.00  0.00     0.227 C 
HETATM   19  C   UNL     1      50.954  23.257   4.336  1.00  0.00     0.250 C 
HETATM   20  C   UNL     1      52.127  26.037   5.192  1.00  0.00     0.283 C 
HETATM   21  C   UNL     1      54.028  24.689   7.235  1.00  0.00     0.250 C 
HETATM   22  C   UNL     1      49.909  22.860   9.726  1.00  0.00     0.250 C 
HETATM   23  C   UNL     1      48.329  22.208   6.561  1.00  0.00     0.283 C 
HETATM   24  C   UNL     1      52.991  22.905   9.824  1.00  0.00     0.283 C 
HETATM   25  C   UNL     1      49.176  25.069   4.180  1.00  0.00     0.153 C 
HETATM   26  C   UNL     1      54.621  25.785   9.447  1.00  0.00     0.153 C 
HETATM   27  C   UNL     1      49.333  24.763   8.180  1.00  0.00     0.153 C 
ENDROOT
BRANCH  17  28
HETATM   28  C   UNL     1      55.563  26.433   6.281  1.00  0.00     0.016 C 
HETATM   29  C   UNL     1      55.964  26.100   4.844  1.00  0.00     0.012 C 
HETATM   30  C   UNL     1      55.786  27.917   6.568  1.00  0.00     0.012 C 
ENDBRANCH  17  28
BRANCH  13  31
HETATM   31  C   UNL     1      51.208  26.781   2.993  1.00  0.00     0.014 C 
HETATM   32  C   UNL     1      52.208  27.921   3.190  1.00  0.00     0.012 C 
BRANCH  31  33
HETATM   33  C   UNL     1      51.076  26.368   1.516  1.00  0.00     0.002 C 
HETATM   34  C   UNL     1      52.243  25.533   1.008  1.00  0.00     0.005 C 
ENDBRANCH  31  33
ENDBRANCH  13  31
BRANCH  14  35
HETATM   35  C   UNL     1      55.435  23.116  10.296  1.00  0.00     0.010 C 
HETATM   36  C   UNL     1      54.816  22.890  11.673  1.00  0.00     0.012 C 
HETATM   37  C   UNL     1      56.366  21.959   9.932  1.00  0.00     0.012 C 
ENDBRANCH  14  35
BRANCH  16  38
HETATM   38  C   UNL     1      50.379  20.818   4.653  1.00  0.00     0.016 C 
HETATM   39  C   UNL     1      49.373  19.933   3.919  1.00  0.00     0.012 C 
HETATM   40  C   UNL     1      50.659  20.264   6.049  1.00  0.00     0.012 C 
ENDBRANCH  16  38
BRANCH  18  41
HETATM   41  C   UNL     1      50.965  23.497  11.959  1.00  0.00     0.016 C 
HETATM   42  C   UNL     1      49.617  23.643  12.663  1.00  0.00     0.012 C 
HETATM   43  C   UNL     1      52.014  24.388  12.619  1.00  0.00     0.012 C 
ENDBRANCH  18  41
BRANCH  15  44
HETATM   44  C   UNL     1      46.747  23.222   8.227  1.00  0.00     0.010 C 
HETATM   45  C   UNL     1      46.626  24.478   7.370  1.00  0.00     0.012 C 
HETATM   46  C   UNL     1      46.521  23.550   9.700  1.00  0.00     0.012 C 
ENDBRANCH  15  44
TORSDOF 7
ENDMDL
MODEL 5
REMARK VINA RESULT:    -5.314      2.326      7.086
REMARK INTER + INTRA:          -6.878
REMARK INTER:                  -7.786
REMARK INTRA:                   0.908
REMARK UNBOUND:                 0.610
REMARK  7 active torsions:
REMARK  status: ('A' for Active; 'I' for Inactive)
REMARK    1  A    between atoms: C_13  and  C_14 
REMARK    2  A    between atoms: C_14  and  C_19 
REMARK    3  A    between atoms: C_15  and  C_20 
REMARK    4  A    between atoms: C_16  and  C_21 
REMARK    5  A    between atoms: C_17  and  C_23 
REMARK    6  A    between atoms: C_18  and  C_26 
REMARK    7  A    between atoms: C_22  and  C_28 
ROOT
HETATM    1  O   UNL     1      46.946  24.531   5.094  1.00  0.00    -0.304 OA
HETATM    2  O   UNL     1      49.054  23.550   9.772  1.00  0.00    -0.304 OA
HETATM    3  O   UNL     1      51.134  21.626   5.989  1.00  0.00    -0.304 OA
HETATM    4  O   UNL     1      46.226  23.414   8.293  1.00  0.00    -0.270 OA
HETATM    5  O   UNL     1      48.827  25.533   5.974  1.00  0.00    -0.263 OA
HETATM    6  O   UNL     1      47.546  22.168   5.973  1.00  0.00    -0.270 OA
HETATM    7  O   UNL     1      52.122  20.942   9.000  1.00  0.00    -0.270 OA
HETATM    8  O   UNL     1      49.770  23.974  11.914  1.00  0.00    -0.263 OA
HETATM    9  O   UNL     1      50.758  19.504   6.796  1.00  0.00    -0.263 OA
HETATM   10  N   UNL     1      47.250  25.496   8.339  1.00  0.00    -0.340 N 
HETATM   11  N   UNL     1      49.087  21.619   4.338  1.00  0.00    -0.340 N 
HETATM   12  N   UNL     1      51.516  23.177   8.779  1.00  0.00    -0.340 N 
HETATM   13  C   UNL     1      46.657  25.845   7.031  1.00  0.00     0.190 C 
HETATM   14  C   UNL     1      49.367  20.330   5.007  1.00  0.00     0.190 C 
HETATM   15  C   UNL     1      51.406  23.375  10.240  1.00  0.00     0.190 C 
HETATM   16  C   UNL     1      47.686  23.809  10.146  1.00  0.00     0.227 C 
HETATM   17  C   UNL     1      47.737  23.741   4.180  1.00  0.00     0.227 C 
HETATM   18  C   UNL     1      52.303  21.869   6.792  1.00  0.00     0.227 C 
HETATM   19  C   UNL     1      46.986  24.213   8.851  1.00  0.00     0.250 C 
HETATM   20  C   UNL     1      47.623  25.315   5.984  1.00  0.00     0.283 C 
HETATM   21  C   UNL     1      48.113  22.449   4.911  1.00  0.00     0.250 C 
HETATM   22  C   UNL     1      51.967  21.940   8.289  1.00  0.00     0.250 C 
HETATM   23  C   UNL     1      49.998  23.681  10.744  1.00  0.00     0.283 C 
HETATM   24  C   UNL     1      50.483  20.433   6.045  1.00  0.00     0.283 C 
HETATM   25  C   UNL     1      48.102  26.494   8.994  1.00  0.00     0.153 C 
HETATM   26  C   UNL     1      49.870  21.956   3.146  1.00  0.00     0.153 C 
HETATM   27  C   UNL     1      51.320  24.347   7.921  1.00  0.00     0.153 C 
ENDROOT
BRANCH  17  28
HETATM   28  C   UNL     1      46.854  23.440   2.978  1.00  0.00     0.016 C 
HETATM   29  C   UNL     1      45.376  23.521   3.361  1.00  0.00     0.012 C 
HETATM   30  C   UNL     1      47.161  24.399   1.829  1.00  0.00     0.012 C 
ENDBRANCH  17  28
BRANCH  13  31
HETATM   31  C   UNL     1      46.387  27.327   6.795  1.00  0.00     0.014 C 
HETATM   32  C   UNL     1      46.487  27.642   5.302  1.00  0.00     0.012 C 
BRANCH  31  33
HETATM   33  C   UNL     1      45.017  27.711   7.383  1.00  0.00     0.002 C 
HETATM   34  C   UNL     1      43.947  27.959   6.329  1.00  0.00     0.005 C 
ENDBRANCH  31  33
ENDBRANCH  13  31
BRANCH  14  35
HETATM   35  C   UNL     1      49.668  19.186   4.039  1.00  0.00     0.010 C 
HETATM   36  C   UNL     1      51.149  18.819   4.081  1.00  0.00     0.012 C 
HETATM   37  C   UNL     1      48.805  17.966   4.361  1.00  0.00     0.012 C 
ENDBRANCH  14  35
BRANCH  16  38
HETATM   38  C   UNL     1      47.090  22.533  10.735  1.00  0.00     0.016 C 
HETATM   39  C   UNL     1      46.576  22.783  12.152  1.00  0.00     0.012 C 
HETATM   40  C   UNL     1      48.120  21.405  10.731  1.00  0.00     0.012 C 
ENDBRANCH  16  38
BRANCH  18  41
HETATM   41  C   UNL     1      53.420  20.872   6.484  1.00  0.00     0.016 C 
HETATM   42  C   UNL     1      54.623  21.117   7.392  1.00  0.00     0.012 C 
HETATM   43  C   UNL     1      53.829  20.961   5.016  1.00  0.00     0.012 C 
ENDBRANCH  18  41
BRANCH  15  44
HETATM   44  C   UNL     1      52.394  24.434  10.732  1.00  0.00     0.010 C 
HETATM   45  C   UNL     1      53.709  24.336   9.965  1.00  0.00     0.012 C 
HETATM   46  C   UNL     1      52.632  24.284  12.232  1.00  0.00     0.012 C 
ENDBRANCH  15  44
TORSDOF 7
ENDMDL
MODEL 6
REMARK VINA RESULT:    -5.092      2.155      6.640
REMARK INTER + INTRA:          -6.566
REMARK INTER:                  -7.582
REMARK INTRA:                   1.016
REMARK UNBOUND:                 0.610
REMARK  7 active torsions:
REMARK  status: ('A' for Active; 'I' for Inactive)
REMARK    1  A    between atoms: C_13  and  C_14 
REMARK    2  A    between atoms: C_14  and  C_19 
REMARK    3  A    between atoms: C_15  and  C_20 
REMARK    4  A    between atoms: C_16  and  C_21 
REMARK    5  A    between atoms: C_17  and  C_23 
REMARK    6  A    between atoms: C_18  and  C_26 
REMARK    7  A    between atoms: C_22  and  C_28 
ROOT
HETATM    1  O   UNL     1      47.186  24.636   8.215  1.00  0.00    -0.304 OA
HETATM    2  O   UNL     1      50.729  24.962   4.390  1.00  0.00    -0.304 OA
HETATM    3  O   UNL     1      51.620  21.982   7.949  1.00  0.00    -0.304 OA
HETATM    4  O   UNL     1      49.105  26.860   6.381  1.00  0.00    -0.270 OA
HETATM    5  O   UNL     1      47.475  23.124   6.498  1.00  0.00    -0.263 OA
HETATM    6  O   UNL     1      49.723  25.009   8.587  1.00  0.00    -0.270 OA
HETATM    7  O   UNL     1      53.795  22.528   5.609  1.00  0.00    -0.270 OA
HETATM    8  O   UNL     1      51.534  25.134   2.245  1.00  0.00    -0.263 OA
HETATM    9  O   UNL     1      53.538  23.129   8.500  1.00  0.00    -0.263 OA
HETATM   10  N   UNL     1      47.826  25.510   4.994  1.00  0.00    -0.340 N 
HETATM   11  N   UNL     1      50.135  23.091   9.814  1.00  0.00    -0.340 N 
HETATM   12  N   UNL     1      51.626  22.465   4.771  1.00  0.00    -0.340 N 
HETATM   13  C   UNL     1      46.772  25.405   6.024  1.00  0.00     0.190 C 
HETATM   14  C   UNL     1      51.576  23.416   9.874  1.00  0.00     0.190 C 
HETATM   15  C   UNL     1      52.009  23.128   3.507  1.00  0.00     0.190 C 
HETATM   16  C   UNL     1      50.117  26.264   4.297  1.00  0.00     0.227 C 
HETATM   17  C   UNL     1      47.785  23.735   9.172  1.00  0.00     0.227 C 
HETATM   18  C   UNL     1      52.216  21.234   6.874  1.00  0.00     0.227 C 
HETATM   19  C   UNL     1      48.980  26.246   5.316  1.00  0.00     0.250 C 
HETATM   20  C   UNL     1      47.174  24.237   6.909  1.00  0.00     0.283 C 
HETATM   21  C   UNL     1      49.293  24.002   9.159  1.00  0.00     0.250 C 
HETATM   22  C   UNL     1      52.626  22.141   5.704  1.00  0.00     0.250 C 
HETATM   23  C   UNL     1      51.395  24.509   3.292  1.00  0.00     0.283 C 
HETATM   24  C   UNL     1      52.360  22.846   8.694  1.00  0.00     0.283 C 
HETATM   25  C   UNL     1      47.614  24.810   3.723  1.00  0.00     0.153 C 
HETATM   26  C   UNL     1      49.692  21.828  10.409  1.00  0.00     0.153 C 
HETATM   27  C   UNL     1      50.241  22.014   4.906  1.00  0.00     0.153 C 
ENDROOT
BRANCH  17  28
HETATM   28  C   UNL     1      47.190  24.076  10.531  1.00  0.00     0.016 C 
HETATM   29  C   UNL     1      46.852  25.564  10.613  1.00  0.00     0.012 C 
HETATM   30  C   UNL     1      45.948  23.230  10.805  1.00  0.00     0.012 C 
ENDBRANCH  17  28
BRANCH  13  31
HETATM   31  C   UNL     1      45.351  25.210   5.508  1.00  0.00     0.014 C 
HETATM   32  C   UNL     1      44.711  24.000   6.192  1.00  0.00     0.012 C 
BRANCH  31  33
HETATM   33  C   UNL     1      44.535  26.498   5.717  1.00  0.00     0.002 C 
HETATM   34  C   UNL     1      45.205  27.503   6.643  1.00  0.00     0.005 C 
ENDBRANCH  31  33
ENDBRANCH  13  31
BRANCH  14  35
HETATM   35  C   UNL     1      52.246  23.004  11.184  1.00  0.00     0.010 C 
HETATM   36  C   UNL     1      53.764  22.953  11.022  1.00  0.00     0.012 C 
HETATM   37  C   UNL     1      51.861  23.961  12.312  1.00  0.00     0.012 C 
ENDBRANCH  14  35
BRANCH  16  38
HETATM   38  C   UNL     1      51.163  27.322   4.637  1.00  0.00     0.016 C 
HETATM   39  C   UNL     1      51.511  28.152   3.403  1.00  0.00     0.012 C 
HETATM   40  C   UNL     1      52.418  26.673   5.217  1.00  0.00     0.012 C 
ENDBRANCH  16  38
BRANCH  18  41
HETATM   41  C   UNL     1      53.360  20.348   7.363  1.00  0.00     0.016 C 
HETATM   42  C   UNL     1      53.865  19.451   6.235  1.00  0.00     0.012 C 
HETATM   43  C   UNL     1      52.915  19.508   8.558  1.00  0.00     0.012 C 
ENDBRANCH  18  41
BRANCH  15  44
HETATM   44  C   UNL     1      51.737  22.227   2.302  1.00  0.00     0.010 C 
HETATM   45  C   UNL     1      52.938  22.216   1.361  1.00  0.00     0.012 C 
HETATM   46  C   UNL     1      50.480  22.685   1.566  1.00  0.00     0.012 C 
ENDBRANCH  15  44
TORSDOF 7
ENDMDL
MODEL 7
REMARK VINA RESULT:    -5.083      7.390     11.960
REMARK INTER + INTRA:          -6.552
REMARK INTER:                  -7.481
REMARK INTRA:                   0.928
REMARK UNBOUND:                 0.610
REMARK  7 active torsions:
REMARK  status: ('A' for Active; 'I' for Inactive)
REMARK    1  A    between atoms: C_13  and  C_14 
REMARK    2  A    between atoms: C_14  and  C_19 
REMARK    3  A    between atoms: C_15  and  C_20 
REMARK    4  A    between atoms: C_16  and  C_21 
REMARK    5  A    between atoms: C_17  and  C_23 
REMARK    6  A    between atoms: C_18  and  C_26 
REMARK    7  A    between atoms: C_22  and  C_28 
ROOT
HETATM    1  O   UNL     1      47.005  30.453   0.180  1.00  0.00    -0.304 OA
HETATM    2  O   UNL     1      46.382  32.635   4.886  1.00  0.00    -0.304 OA
HETATM    3  O   UNL     1      45.970  27.936   4.581  1.00  0.00    -0.304 OA
HETATM    4  O   UNL     1      45.295  32.929   1.897  1.00  0.00    -0.270 OA
HETATM    5  O   UNL     1      48.566  30.493   1.877  1.00  0.00    -0.263 OA
HETATM    6  O   UNL     1      45.001  30.001   1.759  1.00  0.00    -0.270 OA
HETATM    7  O   UNL     1      45.371  29.516   7.348  1.00  0.00    -0.270 OA
HETATM    8  O   UNL     1      46.785  34.067   6.636  1.00  0.00    -0.263 OA
HETATM    9  O   UNL     1      43.794  28.026   5.328  1.00  0.00    -0.263 OA
HETATM   10  N   UNL     1      47.590  33.146   2.170  1.00  0.00    -0.340 N 
HETATM   11  N   UNL     1      45.340  27.730   2.037  1.00  0.00    -0.340 N 
HETATM   12  N   UNL     1      47.174  30.438   6.203  1.00  0.00    -0.340 N 
HETATM   13  C   UNL     1      47.830  32.564   0.834  1.00  0.00     0.190 C 
HETATM   14  C   UNL     1      44.203  27.656   2.980  1.00  0.00     0.190 C 
HETATM   15  C   UNL     1      47.123  31.698   6.973  1.00  0.00     0.190 C 
HETATM   16  C   UNL     1      46.012  33.735   4.031  1.00  0.00     0.227 C 
HETATM   17  C   UNL     1      46.729  29.053   0.404  1.00  0.00     0.227 C 
HETATM   18  C   UNL     1      46.563  28.027   5.889  1.00  0.00     0.227 C 
HETATM   19  C   UNL     1      46.257  33.239   2.609  1.00  0.00     0.250 C 
HETATM   20  C   UNL     1      47.877  31.059   1.040  1.00  0.00     0.283 C 
HETATM   21  C   UNL     1      45.621  28.976   1.457  1.00  0.00     0.250 C 
HETATM   22  C   UNL     1      46.300  29.391   6.545  1.00  0.00     0.250 C 
HETATM   23  C   UNL     1      46.762  32.938   6.158  1.00  0.00     0.283 C 
HETATM   24  C   UNL     1      44.619  27.909   4.427  1.00  0.00     0.283 C 
HETATM   25  C   UNL     1      48.756  33.551   2.961  1.00  0.00     0.153 C 
HETATM   26  C   UNL     1      46.115  26.509   1.801  1.00  0.00     0.153 C 
HETATM   27  C   UNL     1      48.261  30.280   5.235  1.00  0.00     0.153 C 
ENDROOT
BRANCH  17  28
HETATM   28  C   UNL     1      46.250  28.482  -0.923  1.00  0.00     0.016 C 
HETATM   29  C   UNL     1      45.787  29.600  -1.856  1.00  0.00     0.012 C 
HETATM   30  C   UNL     1      47.352  27.655  -1.584  1.00  0.00     0.012 C 
ENDBRANCH  17  28
BRANCH  13  31
HETATM   31  C   UNL     1      49.091  33.037   0.117  1.00  0.00     0.014 C 
HETATM   32  C   UNL     1      49.533  31.985  -0.903  1.00  0.00     0.012 C 
BRANCH  31  33
HETATM   33  C   UNL     1      48.842  34.410  -0.531  1.00  0.00     0.002 C 
HETATM   34  C   UNL     1      47.459  34.554  -1.150  1.00  0.00     0.005 C 
ENDBRANCH  31  33
ENDBRANCH  13  31
BRANCH  14  35
HETATM   35  C   UNL     1      43.414  26.350   2.892  1.00  0.00     0.010 C 
HETATM   36  C   UNL     1      42.930  25.917   4.274  1.00  0.00     0.012 C 
HETATM   37  C   UNL     1      42.232  26.497   1.933  1.00  0.00     0.012 C 
ENDBRANCH  14  35
BRANCH  16  38
HETATM   38  C   UNL     1      44.540  34.065   4.269  1.00  0.00     0.016 C 
HETATM   39  C   UNL     1      44.396  35.415   4.969  1.00  0.00     0.012 C 
HETATM   40  C   UNL     1      43.866  32.964   5.085  1.00  0.00     0.012 C 
ENDBRANCH  16  38
BRANCH  18  41
HETATM   41  C   UNL     1      46.156  26.855   6.781  1.00  0.00     0.016 C 
HETATM   42  C   UNL     1      47.044  26.790   8.021  1.00  0.00     0.012 C 
HETATM   43  C   UNL     1      46.221  25.542   6.004  1.00  0.00     0.012 C 
ENDBRANCH  18  41
BRANCH  15  44
HETATM   44  C   UNL     1      48.419  31.927   7.751  1.00  0.00     0.010 C 
HETATM   45  C   UNL     1      49.538  32.362   6.808  1.00  0.00     0.012 C 
HETATM   46  C   UNL     1      48.815  30.665   8.511  1.00  0.00     0.012 C 
ENDBRANCH  15  44
TORSDOF 7
ENDMDL
MODEL 8
REMARK VINA RESULT:    -5.073      2.119      6.387
REMARK INTER + INTRA:          -6.538
REMARK INTER:                  -7.190
REMARK INTRA:                   0.652
REMARK UNBOUND:                 0.610
REMARK  7 active torsions:
REMARK  status: ('A' for Active; 'I' for Inactive)
REMARK    1  A    between atoms: C_13  and  C_14 
REMARK    2  A    between atoms: C_14  and  C_19 
REMARK    3  A    between atoms: C_15  and  C_20 
REMARK    4  A    between atoms: C_16  and  C_21 
REMARK    5  A    between atoms: C_17  and  C_23 
REMARK    6  A    between atoms: C_18  and  C_26 
REMARK    7  A    between atoms: C_22  and  C_28 
ROOT
HETATM    1  O   UNL     1      48.631  20.416   4.394  1.00  0.00    -0.304 OA
HETATM    2  O   UNL     1      53.274  22.318   5.848  1.00  0.00    -0.304 OA
HETATM    3  O   UNL     1      49.568  23.219   8.641  1.00  0.00    -0.304 OA
HETATM    4  O   UNL     1      51.347  22.267   3.301  1.00  0.00    -0.270 OA
HETATM    5  O   UNL     1      50.008  19.540   6.023  1.00  0.00    -0.263 OA
HETATM    6  O   UNL     1      49.068  22.881   5.063  1.00  0.00    -0.270 OA
HETATM    7  O   UNL     1      52.483  24.515   9.219  1.00  0.00    -0.270 OA
HETATM    8  O   UNL     1      55.545  22.354   6.190  1.00  0.00    -0.263 OA
HETATM    9  O   UNL     1      49.824  25.487   8.339  1.00  0.00    -0.263 OA
HETATM   10  N   UNL     1      52.011  20.198   4.116  1.00  0.00    -0.340 N 
HETATM   11  N   UNL     1      47.635  22.961   6.878  1.00  0.00    -0.340 N 
HETATM   12  N   UNL     1      52.651  22.324   8.456  1.00  0.00    -0.340 N 
HETATM   13  C   UNL     1      50.729  19.593   3.699  1.00  0.00     0.190 C 
HETATM   14  C   UNL     1      48.049  24.351   7.167  1.00  0.00     0.190 C 
HETATM   15  C   UNL     1      54.080  22.469   8.109  1.00  0.00     0.190 C 
HETATM   16  C   UNL     1      53.459  22.225   4.422  1.00  0.00     0.227 C 
HETATM   17  C   UNL     1      47.714  20.934   5.383  1.00  0.00     0.227 C 
HETATM   18  C   UNL     1      50.589  23.104   9.649  1.00  0.00     0.227 C 
HETATM   19  C   UNL     1      52.184  21.576   3.893  1.00  0.00     0.250 C 
HETATM   20  C   UNL     1      49.769  19.819   4.856  1.00  0.00     0.283 C 
HETATM   21  C   UNL     1      48.202  22.336   5.758  1.00  0.00     0.250 C 
HETATM   22  C   UNL     1      51.988  23.392   9.085  1.00  0.00     0.250 C 
HETATM   23  C   UNL     1      54.395  22.361   6.619  1.00  0.00     0.283 C 
HETATM   24  C   UNL     1      49.256  24.427   8.099  1.00  0.00     0.283 C 
HETATM   25  C   UNL     1      52.999  19.330   4.766  1.00  0.00     0.153 C 
HETATM   26  C   UNL     1      46.693  22.321   7.799  1.00  0.00     0.153 C 
HETATM   27  C   UNL     1      52.044  21.003   8.289  1.00  0.00     0.153 C 
ENDROOT
BRANCH  17  28
HETATM   28  C   UNL     1      46.345  21.001   4.722  1.00  0.00     0.016 C 
HETATM   29  C   UNL     1      46.483  21.082   3.202  1.00  0.00     0.012 C 
HETATM   30  C   UNL     1      45.495  19.795   5.119  1.00  0.00     0.012 C 
ENDBRANCH  17  28
BRANCH  13  31
HETATM   31  C   UNL     1      50.776  18.113   3.336  1.00  0.00     0.014 C 
HETATM   32  C   UNL     1      49.413  17.470   3.600  1.00  0.00     0.012 C 
BRANCH  31  33
HETATM   33  C   UNL     1      51.227  17.944   1.875  1.00  0.00     0.002 C 
HETATM   34  C   UNL     1      50.140  17.402   0.957  1.00  0.00     0.005 C 
ENDBRANCH  31  33
ENDBRANCH  13  31
BRANCH  14  35
HETATM   35  C   UNL     1      46.921  25.228   7.712  1.00  0.00     0.010 C 
HETATM   36  C   UNL     1      47.186  25.604   9.168  1.00  0.00     0.012 C 
HETATM   37  C   UNL     1      46.753  26.484   6.858  1.00  0.00     0.012 C 
ENDBRANCH  14  35
BRANCH  16  38
HETATM   38  C   UNL     1      53.652  23.631   3.860  1.00  0.00     0.016 C 
HETATM   39  C   UNL     1      55.079  23.816   3.348  1.00  0.00     0.012 C 
HETATM   40  C   UNL     1      53.322  24.684   4.917  1.00  0.00     0.012 C 
ENDBRANCH  16  38
BRANCH  18  41
HETATM   41  C   UNL     1      50.266  23.943  10.884  1.00  0.00     0.016 C 
HETATM   42  C   UNL     1      51.367  23.803  11.932  1.00  0.00     0.012 C 
HETATM   43  C   UNL     1      48.914  23.539  11.469  1.00  0.00     0.012 C 
ENDBRANCH  18  41
BRANCH  15  44
HETATM   44  C   UNL     1      54.948  21.499   8.912  1.00  0.00     0.010 C 
HETATM   45  C   UNL     1      56.168  22.218   9.480  1.00  0.00     0.012 C 
HETATM   46  C   UNL     1      55.373  20.319   8.043  1.00  0.00     0.012 C 
ENDBRANCH  15  44
TORSDOF 7
ENDMDL
MODEL 9
REMARK VINA RESULT:    -5.021      2.826      5.860
REMARK INTER + INTRA:          -6.466
REMARK INTER:                  -7.414
REMARK INTRA:                   0.948
REMARK UNBOUND:                 0.610
REMARK  7 active torsions:
REMARK  status: ('A' for Active; 'I' for Inactive)
REMARK    1  A    between atoms: C_13  and  C_14 
REMARK    2  A    between atoms: C_14  and  C_19 
REMARK    3  A    between atoms: C_15  and  C_20 
REMARK    4  A    between atoms: C_16  and  C_21 
REMARK    5  A    between atoms: C_17  and  C_23 
REMARK    6  A    between atoms: C_18  and  C_26 
REMARK    7  A    between atoms: C_22  and  C_28 
ROOT
HETATM    1  O   UNL     1      53.440  26.910   6.336  1.00  0.00    -0.304 OA
HETATM    2  O   UNL     1      55.240  23.024   9.329  1.00  0.00    -0.304 OA
HETATM    3  O   UNL     1      52.436  21.873   5.702  1.00  0.00    -0.304 OA
HETATM    4  O   UNL     1      53.729  25.825   9.613  1.00  0.00    -0.270 OA
HETATM    5  O   UNL     1      55.177  25.486   5.815  1.00  0.00    -0.263 OA
HETATM    6  O   UNL     1      51.965  25.054   7.384  1.00  0.00    -0.270 OA
HETATM    7  O   UNL     1      53.453  19.651   7.831  1.00  0.00    -0.270 OA
HETATM    8  O   UNL     1      56.746  21.834  10.590  1.00  0.00    -0.263 OA
HETATM    9  O   UNL     1      50.883  20.948   7.127  1.00  0.00    -0.263 OA
HETATM   10  N   UNL     1      55.797  25.886   8.560  1.00  0.00    -0.340 N 
HETATM   11  N   UNL     1      51.161  24.154   5.410  1.00  0.00    -0.340 N 
HETATM   12  N   UNL     1      55.111  21.212   7.357  1.00  0.00    -0.340 N 
HETATM   13  C   UNL     1      55.358  27.008   7.705  1.00  0.00     0.190 C 
HETATM   14  C   UNL     1      50.430  23.111   6.161  1.00  0.00     0.190 C 
HETATM   15  C   UNL     1      55.907  20.850   8.549  1.00  0.00     0.190 C 
HETATM   16  C   UNL     1      55.275  24.120  10.265  1.00  0.00     0.227 C 
HETATM   17  C   UNL     1      52.558  26.251   5.400  1.00  0.00     0.227 C 
HETATM   18  C   UNL     1      53.305  20.726   5.689  1.00  0.00     0.227 C 
HETATM   19  C   UNL     1      54.860  25.348   9.461  1.00  0.00     0.250 C 
HETATM   20  C   UNL     1      54.684  26.372   6.501  1.00  0.00     0.283 C 
HETATM   21  C   UNL     1      51.877  25.105   6.152  1.00  0.00     0.250 C 
HETATM   22  C   UNL     1      53.949  20.480   7.062  1.00  0.00     0.250 C 
HETATM   23  C   UNL     1      56.031  21.950   9.600  1.00  0.00     0.283 C 
HETATM   24  C   UNL     1      51.271  21.860   6.405  1.00  0.00     0.283 C 
HETATM   25  C   UNL     1      57.165  25.387   8.386  1.00  0.00     0.153 C 
HETATM   26  C   UNL     1      51.118  24.102   3.947  1.00  0.00     0.153 C 
HETATM   27  C   UNL     1      55.678  22.204   6.442  1.00  0.00     0.153 C 
ENDROOT
BRANCH  17  28
HETATM   28  C   UNL     1      51.534  27.286   4.956  1.00  0.00     0.016 C 
HETATM   29  C   UNL     1      51.841  28.649   5.577  1.00  0.00     0.012 C 
HETATM   30  C   UNL     1      51.497  27.389   3.432  1.00  0.00     0.012 C 
ENDBRANCH  17  28
BRANCH  13  31
HETATM   31  C   UNL     1      56.450  27.969   7.250  1.00  0.00     0.014 C 
HETATM   32  C   UNL     1      55.968  28.767   6.037  1.00  0.00     0.012 C 
BRANCH  31  33
HETATM   33  C   UNL     1      56.870  28.879   8.419  1.00  0.00     0.002 C 
HETATM   34  C   UNL     1      58.347  28.781   8.771  1.00  0.00     0.005 C 
ENDBRANCH  31  33
ENDBRANCH  13  31
BRANCH  14  35
HETATM   35  C   UNL     1      49.095  22.719   5.528  1.00  0.00     0.010 C 
HETATM   36  C   UNL     1      49.149  21.288   4.998  1.00  0.00     0.012 C 
HETATM   37  C   UNL     1      47.955  22.874   6.534  1.00  0.00     0.012 C 
ENDBRANCH  14  35
BRANCH  16  38
HETATM   38  C   UNL     1      54.293  23.828  11.397  1.00  0.00     0.016 C 
HETATM   39  C   UNL     1      55.031  23.318  12.633  1.00  0.00     0.012 C 
HETATM   40  C   UNL     1      53.238  22.817  10.948  1.00  0.00     0.012 C 
ENDBRANCH  16  38
BRANCH  18  41
HETATM   41  C   UNL     1      52.602  19.487   5.136  1.00  0.00     0.016 C 
HETATM   42  C   UNL     1      53.570  18.308   5.065  1.00  0.00     0.012 C 
HETATM   43  C   UNL     1      52.008  19.777   3.759  1.00  0.00     0.012 C 
ENDBRANCH  18  41
BRANCH  15  44
HETATM   44  C   UNL     1      57.288  20.325   8.156  1.00  0.00     0.010 C 
HETATM   45  C   UNL     1      57.712  19.189   9.083  1.00  0.00     0.012 C 
HETATM   46  C   UNL     1      58.315  21.454   8.183  1.00  0.00     0.012 C 
ENDBRANCH  15  44
TORSDOF 7
ENDMDL
MODEL 10
REMARK VINA RESULT:    -4.881      8.778     13.033
REMARK INTER + INTRA:          -6.268
REMARK INTER:                  -6.880
REMARK INTRA:                   0.612
REMARK UNBOUND:                 0.610
REMARK  7 active torsions:
REMARK  status: ('A' for Active; 'I' for Inactive)
REMARK    1  A    between atoms: C_13  and  C_14 
REMARK    2  A    between atoms: C_14  and  C_19 
REMARK    3  A    between atoms: C_15  and  C_20 
REMARK    4  A    between atoms: C_16  and  C_21 
REMARK    5  A    between atoms: C_17  and  C_23 
REMARK    6  A    between atoms: C_18  and  C_26 
REMARK    7  A    between atoms: C_22  and  C_28 
ROOT
HETATM    1  O   UNL     1      50.281  32.747   0.681  1.00  0.00    -0.304 OA
HETATM    2  O   UNL     1      47.908  31.235   5.083  1.00  0.00    -0.304 OA
HETATM    3  O   UNL     1      45.979  34.817   2.677  1.00  0.00    -0.304 OA
HETATM    4  O   UNL     1      50.804  32.090   4.041  1.00  0.00    -0.270 OA
HETATM    5  O   UNL     1      48.383  31.445   0.823  1.00  0.00    -0.263 OA
HETATM    6  O   UNL     1      49.575  34.344   2.597  1.00  0.00    -0.270 OA
HETATM    7  O   UNL     1      44.819  33.888   5.558  1.00  0.00    -0.270 OA
HETATM    8  O   UNL     1      47.093  29.788   6.671  1.00  0.00    -0.263 OA
HETATM    9  O   UNL     1      46.258  36.238   4.466  1.00  0.00    -0.263 OA
HETATM   10  N   UNL     1      49.833  30.275   2.969  1.00  0.00    -0.340 N 
HETATM   11  N   UNL     1      48.107  35.651   1.377  1.00  0.00    -0.340 N 
HETATM   12  N   UNL     1      45.492  32.069   4.274  1.00  0.00    -0.340 N 
HETATM   13  C   UNL     1      50.502  30.632   1.701  1.00  0.00     0.190 C 
HETATM   14  C   UNL     1      47.760  36.424   2.589  1.00  0.00     0.190 C 
HETATM   15  C   UNL     1      45.531  31.159   5.437  1.00  0.00     0.190 C 
HETATM   16  C   UNL     1      49.261  30.817   5.352  1.00  0.00     0.227 C 
HETATM   17  C   UNL     1      49.517  33.894   0.247  1.00  0.00     0.227 C 
HETATM   18  C   UNL     1      44.776  34.207   3.178  1.00  0.00     0.227 C 
HETATM   19  C   UNL     1      50.037  31.121   4.074  1.00  0.00     0.250 C 
HETATM   20  C   UNL     1      49.579  31.623   1.012  1.00  0.00     0.283 C 
HETATM   21  C   UNL     1      49.071  34.640   1.508  1.00  0.00     0.250 C 
HETATM   22  C   UNL     1      45.036  33.387   4.451  1.00  0.00     0.250 C 
HETATM   23  C   UNL     1      46.918  30.634   5.799  1.00  0.00     0.283 C 
HETATM   24  C   UNL     1      46.595  35.815   3.366  1.00  0.00     0.283 C 
HETATM   25  C   UNL     1      48.975  29.086   2.979  1.00  0.00     0.153 C 
HETATM   26  C   UNL     1      47.396  35.966   0.136  1.00  0.00     0.153 C 
HETATM   27  C   UNL     1      45.762  31.494   2.955  1.00  0.00     0.153 C 
ENDROOT
BRANCH  17  28
HETATM   28  C   UNL     1      50.454  34.758  -0.584  1.00  0.00     0.016 C 
HETATM   29  C   UNL     1      51.913  34.430  -0.269  1.00  0.00     0.012 C 
HETATM   30  C   UNL     1      50.175  34.575  -2.076  1.00  0.00     0.012 C 
ENDBRANCH  17  28
BRANCH  13  31
HETATM   31  C   UNL     1      50.822  29.472   0.765  1.00  0.00     0.014 C 
HETATM   32  C   UNL     1      50.948  29.984  -0.671  1.00  0.00     0.012 C 
BRANCH  31  33
HETATM   33  C   UNL     1      52.095  28.749   1.241  1.00  0.00     0.002 C 
HETATM   34  C   UNL     1      53.225  29.691   1.629  1.00  0.00     0.005 C 
ENDBRANCH  31  33
ENDBRANCH  13  31
BRANCH  14  35
HETATM   35  C   UNL     1      47.481  37.902   2.316  1.00  0.00     0.010 C 
HETATM   36  C   UNL     1      46.088  38.288   2.808  1.00  0.00     0.012 C 
HETATM   37  C   UNL     1      48.543  38.783   2.973  1.00  0.00     0.012 C 
ENDBRANCH  14  35
BRANCH  16  38
HETATM   38  C   UNL     1      49.793  31.617   6.539  1.00  0.00     0.016 C 
HETATM   39  C   UNL     1      49.975  30.715   7.759  1.00  0.00     0.012 C 
HETATM   40  C   UNL     1      48.858  32.779   6.868  1.00  0.00     0.012 C 
ENDBRANCH  16  38
BRANCH  18  41
HETATM   41  C   UNL     1      43.651  35.227   3.353  1.00  0.00     0.016 C 
HETATM   42  C   UNL     1      42.377  34.542   3.842  1.00  0.00     0.012 C 
HETATM   43  C   UNL     1      43.393  35.969   2.043  1.00  0.00     0.012 C 
ENDBRANCH  18  41
BRANCH  15  44
HETATM   44  C   UNL     1      44.547  30.001   5.270  1.00  0.00     0.010 C 
HETATM   45  C   UNL     1      43.813  29.729   6.580  1.00  0.00     0.012 C 
HETATM   46  C   UNL     1      45.273  28.748   4.789  1.00  0.00     0.012 C 
ENDBRANCH  15  44
TORSDOF 7
ENDMDL
MODEL 11
REMARK VINA RESULT:    -4.791      1.982      6.640
REMARK INTER + INTRA:          -6.142
REMARK INTER:                  -6.947
REMARK INTRA:                   0.805
REMARK UNBOUND:                 0.610
REMARK  7 active torsions:
REMARK  status: ('A' for Active; 'I' for Inactive)
REMARK    1  A    between atoms: C_13  and  C_14 
REMARK    2  A    between atoms: C_14  and  C_19 
REMARK    3  A    between atoms: C_15  and  C_20 
REMARK    4  A    between atoms: C_16  and  C_21 
REMARK    5  A    between atoms: C_17  and  C_23 
REMARK    6  A    between atoms: C_18  and  C_26 
REMARK    7  A    between atoms: C_22  and  C_28 
ROOT
HETATM    1  O   UNL     1      48.207  23.903   8.296  1.00  0.00    -0.304 OA
HETATM    2  O   UNL     1      51.585  25.207   4.530  1.00  0.00    -0.304 OA
HETATM    3  O   UNL     1      53.109  22.288   7.921  1.00  0.00    -0.304 OA
HETATM    4  O   UNL     1      49.595  26.592   6.610  1.00  0.00    -0.270 OA
HETATM    5  O   UNL     1      48.811  22.591   6.498  1.00  0.00    -0.263 OA
HETATM    6  O   UNL     1      50.606  24.792   8.712  1.00  0.00    -0.270 OA
HETATM    7  O   UNL     1      55.108  23.426   5.636  1.00  0.00    -0.270 OA
HETATM    8  O   UNL     1      52.327  25.673   2.406  1.00  0.00    -0.263 OA
HETATM    9  O   UNL     1      54.736  23.788   8.555  1.00  0.00    -0.263 OA
HETATM   10  N   UNL     1      48.634  25.079   5.136  1.00  0.00    -0.340 N 
HETATM   11  N   UNL     1      51.425  22.941   9.832  1.00  0.00    -0.340 N 
HETATM   12  N   UNL     1      53.001  22.944   4.775  1.00  0.00    -0.340 N 
HETATM   13  C   UNL     1      47.631  24.690   6.148  1.00  0.00     0.190 C 
HETATM   14  C   UNL     1      52.763  23.566   9.923  1.00  0.00     0.190 C 
HETATM   15  C   UNL     1      53.228  23.747   3.555  1.00  0.00     0.190 C 
HETATM   16  C   UNL     1      50.706  26.349   4.506  1.00  0.00     0.227 C 
HETATM   17  C   UNL     1      48.990  23.098   9.205  1.00  0.00     0.227 C 
HETATM   18  C   UNL     1      53.849  21.751   6.810  1.00  0.00     0.227 C 
HETATM   19  C   UNL     1      49.603  26.027   5.510  1.00  0.00     0.250 C 
HETATM   20  C   UNL     1      48.278  23.587   6.969  1.00  0.00     0.283 C 
HETATM   21  C   UNL     1      50.404  23.684   9.222  1.00  0.00     0.250 C 
HETATM   22  C   UNL     1      54.051  22.791   5.698  1.00  0.00     0.250 C 
HETATM   23  C   UNL     1      52.329  24.973   3.414  1.00  0.00     0.283 C 
HETATM   24  C   UNL     1      53.648  23.247   8.720  1.00  0.00     0.283 C 
HETATM   25  C   UNL     1      48.573  24.425   3.825  1.00  0.00     0.153 C 
HETATM   26  C   UNL     1      51.268  21.580  10.349  1.00  0.00     0.153 C 
HETATM   27  C   UNL     1      51.746  22.198   4.871  1.00  0.00     0.153 C 
ENDROOT
BRANCH  17  28
HETATM   28  C   UNL     1      48.340  23.224  10.576  1.00  0.00     0.016 C 
HETATM   29  C   UNL     1      47.680  24.593  10.735  1.00  0.00     0.012 C 
HETATM   30  C   UNL     1      47.318  22.109  10.793  1.00  0.00     0.012 C 
ENDBRANCH  17  28
BRANCH  13  31
HETATM   31  C   UNL     1      46.283  24.223   5.609  1.00  0.00     0.014 C 
HETATM   32  C   UNL     1      45.547  23.415   6.679  1.00  0.00     0.012 C 
BRANCH  31  33
HETATM   33  C   UNL     1      45.464  25.432   5.124  1.00  0.00     0.002 C 
HETATM   34  C   UNL     1      45.404  26.574   6.129  1.00  0.00     0.005 C 
ENDBRANCH  31  33
ENDBRANCH  13  31
BRANCH  14  35
HETATM   35  C   UNL     1      53.510  23.232  11.215  1.00  0.00     0.010 C 
HETATM   36  C   UNL     1      54.968  22.885  10.921  1.00  0.00     0.012 C 
HETATM   37  C   UNL     1      53.426  24.396  12.203  1.00  0.00     0.012 C 
ENDBRANCH  14  35
BRANCH  16  38
HETATM   38  C   UNL     1      51.499  27.587   4.915  1.00  0.00     0.016 C 
HETATM   39  C   UNL     1      51.553  28.596   3.770  1.00  0.00     0.012 C 
HETATM   40  C   UNL     1      52.910  27.201   5.356  1.00  0.00     0.012 C 
ENDBRANCH  16  38
BRANCH  18  41
HETATM   41  C   UNL     1      55.160  21.105   7.258  1.00  0.00     0.016 C 
HETATM   42  C   UNL     1      55.914  20.534   6.060  1.00  0.00     0.012 C 
HETATM   43  C   UNL     1      54.893  20.015   8.294  1.00  0.00     0.012 C 
ENDBRANCH  18  41
BRANCH  15  44
HETATM   44  C   UNL     1      53.153  22.880   2.298  1.00  0.00     0.010 C 
HETATM   45  C   UNL     1      54.320  23.190   1.364  1.00  0.00     0.012 C 
HETATM   46  C   UNL     1      51.821  23.090   1.583  1.00  0.00     0.012 C 
ENDBRANCH  15  44
TORSDOF 7
ENDMDL
MODEL 12
REMARK VINA RESULT:    -4.780      3.286      6.299
REMARK INTER + INTRA:          -6.125
REMARK INTER:                  -7.053
REMARK INTRA:                   0.928
REMARK UNBOUND:                 0.610
REMARK  7 active torsions:
REMARK  status: ('A' for Active; 'I' for Inactive)
REMARK    1  A    between atoms: C_13  and  C_14 
REMARK    2  A    between atoms: C_14  and  C_19 
REMARK    3  A    between atoms: C_15  and  C_20 
REMARK    4  A    between atoms: C_16  and  C_21 
REMARK    5  A    between atoms: C_17  and  C_23 
REMARK    6  A    between atoms: C_18  and  C_26 
REMARK    7  A    between atoms: C_22  and  C_28 
ROOT
HETATM    1  O   UNL     1      57.909  23.031   9.042  1.00  0.00    -0.304 OA
HETATM    2  O   UNL     1      55.415  19.349   6.301  1.00  0.00    -0.304 OA
HETATM    3  O   UNL     1      52.915  23.112   7.690  1.00  0.00    -0.304 OA
HETATM    4  O   UNL     1      57.278  19.629   8.880  1.00  0.00    -0.270 OA
HETATM    5  O   UNL     1      57.364  23.138   6.804  1.00  0.00    -0.263 OA
HETATM    6  O   UNL     1      55.666  21.938   9.744  1.00  0.00    -0.270 OA
HETATM    7  O   UNL     1      51.510  20.596   6.203  1.00  0.00    -0.270 OA
HETATM    8  O   UNL     1      55.094  17.763   4.670  1.00  0.00    -0.263 OA
HETATM    9  O   UNL     1      51.496  21.781   8.921  1.00  0.00    -0.263 OA
HETATM   10  N   UNL     1      58.174  20.415   6.889  1.00  0.00    -0.340 N 
HETATM   11  N   UNL     1      54.378  23.860   9.742  1.00  0.00    -0.340 N 
HETATM   12  N   UNL     1      53.607  21.063   5.311  1.00  0.00    -0.340 N 
HETATM   13  C   UNL     1      58.930  21.459   7.611  1.00  0.00     0.190 C 
HETATM   14  C   UNL     1      53.171  23.074  10.077  1.00  0.00     0.190 C 
HETATM   15  C   UNL     1      53.710  19.744   4.652  1.00  0.00     0.190 C 
HETATM   16  C   UNL     1      56.473  18.569   6.893  1.00  0.00     0.227 C 
HETATM   17  C   UNL     1      56.871  23.974   9.387  1.00  0.00     0.227 C 
HETATM   18  C   UNL     1      52.269  22.864   6.428  1.00  0.00     0.227 C 
HETATM   19  C   UNL     1      57.339  19.574   7.647  1.00  0.00     0.250 C 
HETATM   20  C   UNL     1      57.985  22.642   7.735  1.00  0.00     0.283 C 
HETATM   21  C   UNL     1      55.593  23.167   9.635  1.00  0.00     0.250 C 
HETATM   22  C   UNL     1      52.421  21.401   5.983  1.00  0.00     0.250 C 
HETATM   23  C   UNL     1      54.818  18.841   5.187  1.00  0.00     0.283 C 
HETATM   24  C   UNL     1      52.436  22.564   8.839  1.00  0.00     0.283 C 
HETATM   25  C   UNL     1      58.317  20.350   5.431  1.00  0.00     0.153 C 
HETATM   26  C   UNL     1      54.218  25.297   9.510  1.00  0.00     0.153 C 
HETATM   27  C   UNL     1      54.685  22.024   5.073  1.00  0.00     0.153 C 
ENDROOT
BRANCH  17  28
HETATM   28  C   UNL     1      57.319  24.675  10.662  1.00  0.00     0.016 C 
HETATM   29  C   UNL     1      58.093  23.713  11.563  1.00  0.00     0.012 C 
HETATM   30  C   UNL     1      58.168  25.901  10.333  1.00  0.00     0.012 C 
ENDBRANCH  17  28
BRANCH  13  31
HETATM   31  C   UNL     1      60.242  21.897   6.969  1.00  0.00     0.014 C 
HETATM   32  C   UNL     1      60.641  23.277   7.495  1.00  0.00     0.012 C 
BRANCH  31  33
HETATM   33  C   UNL     1      61.330  20.839   7.221  1.00  0.00     0.002 C 
HETATM   34  C   UNL     1      62.303  20.673   6.063  1.00  0.00     0.005 C 
ENDBRANCH  31  33
ENDBRANCH  13  31
BRANCH  14  35
HETATM   35  C   UNL     1      52.192  23.810  10.990  1.00  0.00     0.010 C 
HETATM   36  C   UNL     1      51.002  22.918  11.337  1.00  0.00     0.012 C 
HETATM   37  C   UNL     1      52.893  24.286  12.263  1.00  0.00     0.012 C 
ENDBRANCH  14  35
BRANCH  16  38
HETATM   38  C   UNL     1      55.853  17.540   7.835  1.00  0.00     0.016 C 
HETATM   39  C   UNL     1      55.974  16.133   7.251  1.00  0.00     0.012 C 
HETATM   40  C   UNL     1      54.390  17.878   8.117  1.00  0.00     0.012 C 
ENDBRANCH  16  38
BRANCH  18  41
HETATM   41  C   UNL     1      50.814  23.331   6.433  1.00  0.00     0.016 C 
HETATM   42  C   UNL     1      50.240  23.315   5.018  1.00  0.00     0.012 C 
HETATM   43  C   UNL     1      50.701  24.727   7.042  1.00  0.00     0.012 C 
ENDBRANCH  18  41
BRANCH  15  44
HETATM   44  C   UNL     1      53.822  19.888   3.134  1.00  0.00     0.010 C 
HETATM   45  C   UNL     1      52.863  18.930   2.433  1.00  0.00     0.012 C 
HETATM   46  C   UNL     1      55.258  19.643   2.679  1.00  0.00     0.012 C 
ENDBRANCH  15  44
TORSDOF 7
ENDMDL
MODEL 13
REMARK VINA RESULT:    -4.768      4.583      8.717
REMARK INTER + INTRA:          -6.109
REMARK INTER:                  -6.771
REMARK INTRA:                   0.662
REMARK UNBOUND:                 0.610
REMARK  7 active torsions:
REMARK  status: ('A' for Active; 'I' for Inactive)
REMARK    1  A    between atoms: C_13  and  C_14 
REMARK    2  A    between atoms: C_14  and  C_19 
REMARK    3  A    between atoms: C_15  and  C_20 
REMARK    4  A    between atoms: C_16  and  C_21 
REMARK    5  A    between atoms: C_17  and  C_23 
REMARK    6  A    between atoms: C_18  and  C_26 
REMARK    7  A    between atoms: C_22  and  C_28 
ROOT
HETATM    1  O   UNL     1      44.863  27.979   4.458  1.00  0.00    -0.304 OA
HETATM    2  O   UNL     1      49.782  29.686   4.884  1.00  0.00    -0.304 OA
HETATM    3  O   UNL     1      48.966  25.119   5.785  1.00  0.00    -0.304 OA
HETATM    4  O   UNL     1      46.847  30.418   5.912  1.00  0.00    -0.270 OA
HETATM    5  O   UNL     1      46.548  27.668   2.915  1.00  0.00    -0.263 OA
HETATM    6  O   UNL     1      46.391  27.570   6.511  1.00  0.00    -0.270 OA
HETATM    7  O   UNL     1      51.891  26.440   6.236  1.00  0.00    -0.270 OA
HETATM    8  O   UNL     1      51.678  30.868   4.347  1.00  0.00    -0.263 OA
HETATM    9  O   UNL     1      49.726  25.354   7.945  1.00  0.00    -0.263 OA
HETATM   10  N   UNL     1      47.134  30.361   3.609  1.00  0.00    -0.340 N 
HETATM   11  N   UNL     1      46.416  25.259   6.414  1.00  0.00    -0.340 N 
HETATM   12  N   UNL     1      50.847  27.287   4.338  1.00  0.00    -0.340 N 
HETATM   13  C   UNL     1      45.741  29.908   3.421  1.00  0.00     0.190 C 
HETATM   14  C   UNL     1      47.350  25.203   7.559  1.00  0.00     0.190 C 
HETATM   15  C   UNL     1      51.751  28.454   4.262  1.00  0.00     0.190 C 
HETATM   16  C   UNL     1      49.055  30.906   5.131  1.00  0.00     0.227 C 
HETATM   17  C   UNL     1      44.933  26.600   4.881  1.00  0.00     0.227 C 
HETATM   18  C   UNL     1      50.273  25.003   5.196  1.00  0.00     0.227 C 
HETATM   19  C   UNL     1      47.586  30.545   4.929  1.00  0.00     0.250 C 
HETATM   20  C   UNL     1      45.780  28.393   3.534  1.00  0.00     0.283 C 
HETATM   21  C   UNL     1      45.976  26.524   6.000  1.00  0.00     0.250 C 
HETATM   22  C   UNL     1      51.075  26.307   5.319  1.00  0.00     0.250 C 
HETATM   23  C   UNL     1      51.078  29.806   4.485  1.00  0.00     0.283 C 
HETATM   24  C   UNL     1      48.815  25.251   7.131  1.00  0.00     0.283 C 
HETATM   25  C   UNL     1      47.960  30.553   2.413  1.00  0.00     0.153 C 
HETATM   26  C   UNL     1      46.045  23.997   5.770  1.00  0.00     0.153 C 
HETATM   27  C   UNL     1      49.864  27.122   3.266  1.00  0.00     0.153 C 
ENDROOT
BRANCH  17  28
HETATM   28  C   UNL     1      43.553  26.231   5.408  1.00  0.00     0.016 C 
HETATM   29  C   UNL     1      42.935  27.403   6.168  1.00  0.00     0.012 C 
HETATM   30  C   UNL     1      42.639  25.793   4.264  1.00  0.00     0.012 C 
ENDBRANCH  17  28
BRANCH  13  31
HETATM   31  C   UNL     1      45.075  30.320   2.113  1.00  0.00     0.014 C 
HETATM   32  C   UNL     1      44.021  29.285   1.717  1.00  0.00     0.012 C 
BRANCH  31  33
HETATM   33  C   UNL     1      44.482  31.734   2.249  1.00  0.00     0.002 C 
HETATM   34  C   UNL     1      44.404  32.230   3.686  1.00  0.00     0.005 C 
ENDBRANCH  31  33
ENDBRANCH  13  31
BRANCH  14  35
HETATM   35  C   UNL     1      47.122  24.004   8.481  1.00  0.00     0.010 C 
HETATM   36  C   UNL     1      48.232  22.970   8.305  1.00  0.00     0.012 C 
HETATM   37  C   UNL     1      47.036  24.453   9.939  1.00  0.00     0.012 C 
ENDBRANCH  14  35
BRANCH  16  38
HETATM   38  C   UNL     1      49.333  31.361   6.561  1.00  0.00     0.016 C 
HETATM   39  C   UNL     1      50.152  32.651   6.568  1.00  0.00     0.012 C 
HETATM   40  C   UNL     1      50.054  30.265   7.345  1.00  0.00     0.012 C 
ENDBRANCH  16  38
BRANCH  18  41
HETATM   41  C   UNL     1      51.033  23.790   5.731  1.00  0.00     0.016 C 
HETATM   42  C   UNL     1      52.429  23.717   5.117  1.00  0.00     0.012 C 
HETATM   43  C   UNL     1      50.256  22.505   5.451  1.00  0.00     0.012 C 
ENDBRANCH  18  41
BRANCH  15  44
HETATM   44  C   UNL     1      52.544  28.459   2.955  1.00  0.00     0.010 C 
HETATM   45  C   UNL     1      54.018  28.744   3.225  1.00  0.00     0.012 C 
HETATM   46  C   UNL     1      51.965  29.483   1.983  1.00  0.00     0.012 C 
ENDBRANCH  15  44
TORSDOF 7
ENDMDL
MODEL 14
REMARK VINA RESULT:    -4.695      4.694      7.939
REMARK INTER + INTRA:          -6.006
REMARK INTER:                  -6.741
REMARK INTRA:                   0.735
REMARK UNBOUND:                 0.610
REMARK  7 active torsions:
REMARK  status: ('A' for Active; 'I' for Inactive)
REMARK    1  A    between atoms: C_13  and  C_14 
REMARK    2  A    between atoms: C_14  and  C_19 
REMARK    3  A    between atoms: C_15  and  C_20 
REMARK    4  A    between atoms: C_16  and  C_21 
REMARK    5  A    between atoms: C_17  and  C_23 
REMARK    6  A    between atoms: C_18  and  C_26 
REMARK    7  A    between atoms: C_22  and  C_28 
ROOT
HETATM    1  O   UNL     1      47.030  22.792   5.924  1.00  0.00    -0.304 OA
HETATM    2  O   UNL     1      47.269  27.979   5.350  1.00  0.00    -0.304 OA
HETATM    3  O   UNL     1      44.764  25.539   2.169  1.00  0.00    -0.304 OA
HETATM    4  O   UNL     1      49.213  25.476   5.746  1.00  0.00    -0.270 OA
HETATM    5  O   UNL     1      45.379  24.299   6.490  1.00  0.00    -0.263 OA
HETATM    6  O   UNL     1      47.662  24.002   3.721  1.00  0.00    -0.270 OA
HETATM    7  O   UNL     1      45.254  28.728   1.858  1.00  0.00    -0.270 OA
HETATM    8  O   UNL     1      47.287  30.190   5.975  1.00  0.00    -0.263 OA
HETATM    9  O   UNL     1      46.127  26.263   0.462  1.00  0.00    -0.263 OA
HETATM   10  N   UNL     1      47.617  25.796   7.401  1.00  0.00    -0.340 N 
HETATM   11  N   UNL     1      45.927  23.194   2.423  1.00  0.00    -0.340 N 
HETATM   12  N   UNL     1      44.913  28.122   4.078  1.00  0.00    -0.340 N 
HETATM   13  C   UNL     1      47.528  24.340   7.633  1.00  0.00     0.190 C 
HETATM   14  C   UNL     1      46.382  24.007   1.275  1.00  0.00     0.190 C 
HETATM   15  C   UNL     1      45.473  29.388   4.594  1.00  0.00     0.190 C 
HETATM   16  C   UNL     1      48.494  27.734   6.068  1.00  0.00     0.227 C 
HETATM   17  C   UNL     1      46.290  22.345   4.767  1.00  0.00     0.227 C 
HETATM   18  C   UNL     1      43.965  26.734   2.218  1.00  0.00     0.227 C 
HETATM   19  C   UNL     1      48.482  26.242   6.385  1.00  0.00     0.250 C 
HETATM   20  C   UNL     1      46.498  23.826   6.641  1.00  0.00     0.283 C 
HETATM   21  C   UNL     1      46.686  23.254   3.600  1.00  0.00     0.250 C 
HETATM   22  C   UNL     1      44.778  27.949   2.689  1.00  0.00     0.250 C 
HETATM   23  C   UNL     1      46.764  29.243   5.395  1.00  0.00     0.283 C 
HETATM   24  C   UNL     1      45.764  25.403   1.257  1.00  0.00     0.283 C 
HETATM   25  C   UNL     1      46.773  26.674   8.218  1.00  0.00     0.153 C 
HETATM   26  C   UNL     1      44.698  22.412   2.264  1.00  0.00     0.153 C 
HETATM   27  C   UNL     1      44.358  27.180   5.051  1.00  0.00     0.153 C 
ENDROOT
BRANCH  17  28
HETATM   28  C   UNL     1      46.717  20.909   4.499  1.00  0.00     0.016 C 
HETATM   29  C   UNL     1      48.148  20.673   4.980  1.00  0.00     0.012 C 
HETATM   30  C   UNL     1      45.758  19.926   5.169  1.00  0.00     0.012 C 
ENDBRANCH  17  28
BRANCH  13  31
HETATM   31  C   UNL     1      47.155  23.911   9.048  1.00  0.00     0.014 C 
HETATM   32  C   UNL     1      46.639  22.471   9.035  1.00  0.00     0.012 C 
BRANCH  31  33
HETATM   33  C   UNL     1      48.362  24.090   9.986  1.00  0.00     0.002 C 
HETATM   34  C   UNL     1      48.088  23.671  11.423  1.00  0.00     0.005 C 
ENDBRANCH  31  33
ENDBRANCH  13  31
BRANCH  14  35
HETATM   35  C   UNL     1      46.169  23.332  -0.080  1.00  0.00     0.010 C 
HETATM   36  C   UNL     1      45.033  24.006  -0.847  1.00  0.00     0.012 C 
HETATM   37  C   UNL     1      47.457  23.355  -0.904  1.00  0.00     0.012 C 
ENDBRANCH  14  35
BRANCH  16  38
HETATM   38  C   UNL     1      49.671  28.112   5.171  1.00  0.00     0.016 C 
HETATM   39  C   UNL     1      50.405  29.330   5.729  1.00  0.00     0.012 C 
HETATM   40  C   UNL     1      49.196  28.380   3.744  1.00  0.00     0.012 C 
ENDBRANCH  16  38
BRANCH  18  41
HETATM   41  C   UNL     1      43.239  26.986   0.897  1.00  0.00     0.016 C 
HETATM   42  C   UNL     1      42.523  28.334   0.928  1.00  0.00     0.012 C 
HETATM   43  C   UNL     1      42.250  25.860   0.605  1.00  0.00     0.012 C 
ENDBRANCH  18  41
BRANCH  15  44
HETATM   44  C   UNL     1      44.431  30.171   5.395  1.00  0.00     0.010 C 
HETATM   45  C   UNL     1      44.620  31.672   5.195  1.00  0.00     0.012 C 
HETATM   46  C   UNL     1      44.514  29.809   6.875  1.00  0.00     0.012 C 
ENDBRANCH  15  44
TORSDOF 7
ENDMDL
MODEL 15
REMARK VINA RESULT:    -4.671      2.846      7.229
REMARK INTER + INTRA:          -5.971
REMARK INTER:                  -6.814
REMARK INTRA:                   0.843
REMARK UNBOUND:                 0.610
REMARK  7 active torsions:
REMARK  status: ('A' for Active; 'I' for Inactive)
REMARK    1  A    between atoms: C_13  and  C_14 
REMARK    2  A    between atoms: C_14  and  C_19 
REMARK    3  A    between atoms: C_15  and  C_20 
REMARK    4  A    between atoms: C_16  and  C_21 
REMARK    5  A    between atoms: C_17  and  C_23 
REMARK    6  A    between atoms: C_18  and  C_26 
REMARK    7  A    between atoms: C_22  and  C_28 
ROOT
HETATM    1  O   UNL     1      51.664  20.955   5.274  1.00  0.00    -0.304 OA
HETATM    2  O   UNL     1      46.679  21.172   3.725  1.00  0.00    -0.304 OA
HETATM    3  O   UNL     1      48.060  24.200   7.082  1.00  0.00    -0.304 OA
HETATM    4  O   UNL     1      48.823  19.041   4.758  1.00  0.00    -0.270 OA
HETATM    5  O   UNL     1      50.753  22.515   3.841  1.00  0.00    -0.263 OA
HETATM    6  O   UNL     1      49.623  20.932   6.871  1.00  0.00    -0.270 OA
HETATM    7  O   UNL     1      44.960  23.990   6.157  1.00  0.00    -0.270 OA
HETATM    8  O   UNL     1      44.901  21.141   2.271  1.00  0.00    -0.263 OA
HETATM    9  O   UNL     1      46.542  23.321   8.573  1.00  0.00    -0.263 OA
HETATM   10  N   UNL     1      49.402  20.221   2.845  1.00  0.00    -0.340 N 
HETATM   11  N   UNL     1      50.122  22.871   8.030  1.00  0.00    -0.340 N 
HETATM   12  N   UNL     1      46.414  23.764   4.355  1.00  0.00    -0.340 N 
HETATM   13  C   UNL     1      50.832  20.166   3.213  1.00  0.00     0.190 C 
HETATM   14  C   UNL     1      48.873  22.747   8.812  1.00  0.00     0.190 C 
HETATM   15  C   UNL     1      45.373  23.177   3.485  1.00  0.00     0.190 C 
HETATM   16  C   UNL     1      46.994  19.800   3.416  1.00  0.00     0.227 C 
HETATM   17  C   UNL     1      51.739  21.918   6.349  1.00  0.00     0.227 C 
HETATM   18  C   UNL     1      47.108  25.036   6.400  1.00  0.00     0.227 C 
HETATM   19  C   UNL     1      48.479  19.647   3.737  1.00  0.00     0.250 C 
HETATM   20  C   UNL     1      51.075  21.366   4.113  1.00  0.00     0.283 C 
HETATM   21  C   UNL     1      50.404  21.862   7.097  1.00  0.00     0.250 C 
HETATM   22  C   UNL     1      46.060  24.210   5.640  1.00  0.00     0.250 C 
HETATM   23  C   UNL     1      45.620  21.727   3.074  1.00  0.00     0.283 C 
HETATM   24  C   UNL     1      47.685  23.436   8.143  1.00  0.00     0.283 C 
HETATM   25  C   UNL     1      49.042  20.901   1.598  1.00  0.00     0.153 C 
HETATM   26  C   UNL     1      50.957  24.053   8.255  1.00  0.00     0.153 C 
HETATM   27  C   UNL     1      47.728  24.018   3.761  1.00  0.00     0.153 C 
ENDROOT
BRANCH  17  28
HETATM   28  C   UNL     1      52.881  21.479   7.254  1.00  0.00     0.016 C 
HETATM   29  C   UNL     1      52.561  20.139   7.915  1.00  0.00     0.012 C 
HETATM   30  C   UNL     1      54.188  21.389   6.468  1.00  0.00     0.012 C 
ENDBRANCH  17  28
BRANCH  13  31
HETATM   31  C   UNL     1      51.821  20.169   2.052  1.00  0.00     0.014 C 
HETATM   32  C   UNL     1      53.155  20.762   2.508  1.00  0.00     0.012 C 
BRANCH  31  33
HETATM   33  C   UNL     1      51.977  18.745   1.490  1.00  0.00     0.002 C 
HETATM   34  C   UNL     1      51.872  17.655   2.548  1.00  0.00     0.005 C 
ENDBRANCH  31  33
ENDBRANCH  13  31
BRANCH  14  35
HETATM   35  C   UNL     1      49.001  23.231  10.256  1.00  0.00     0.010 C 
HETATM   36  C   UNL     1      48.168  24.490  10.480  1.00  0.00     0.012 C 
HETATM   37  C   UNL     1      48.582  22.132  11.233  1.00  0.00     0.012 C 
ENDBRANCH  14  35
BRANCH  16  38
HETATM   38  C   UNL     1      46.132  18.891   4.288  1.00  0.00     0.016 C 
HETATM   39  C   UNL     1      45.177  18.066   3.427  1.00  0.00     0.012 C 
HETATM   40  C   UNL     1      45.353  19.711   5.315  1.00  0.00     0.012 C 
ENDBRANCH  16  38
BRANCH  18  41
HETATM   41  C   UNL     1      46.481  26.066   7.339  1.00  0.00     0.016 C 
HETATM   42  C   UNL     1      45.494  26.951   6.582  1.00  0.00     0.012 C 
HETATM   43  C   UNL     1      47.563  26.914   8.004  1.00  0.00     0.012 C 
ENDBRANCH  18  41
BRANCH  15  44
HETATM   44  C   UNL     1      45.122  24.047   2.253  1.00  0.00     0.010 C 
HETATM   45  C   UNL     1      46.343  24.043   1.337  1.00  0.00     0.012 C 
HETATM   46  C   UNL     1      44.765  25.471   2.670  1.00  0.00     0.012 C 
ENDBRANCH  15  44
TORSDOF 7
ENDMDL
MODEL 16
REMARK VINA RESULT:    -4.444      3.578      7.557
REMARK INTER + INTRA:          -5.652
REMARK INTER:                  -6.462
REMARK INTRA:                   0.809
REMARK UNBOUND:                 0.610
REMARK  7 active torsions:
REMARK  status: ('A' for Active; 'I' for Inactive)
REMARK    1  A    between atoms: C_13  and  C_14 
REMARK    2  A    between atoms: C_14  and  C_19 
REMARK    3  A    between atoms: C_15  and  C_20 
REMARK    4  A    between atoms: C_16  and  C_21 
REMARK    5  A    between atoms: C_17  and  C_23 
REMARK    6  A    between atoms: C_18  and  C_26 
REMARK    7  A    between atoms: C_22  and  C_28 
ROOT
HETATM    1  O   UNL     1      46.954  21.186   2.627  1.00  0.00    -0.304 OA
HETATM    2  O   UNL     1      49.548  24.287   5.936  1.00  0.00    -0.304 OA
HETATM    3  O   UNL     1      45.232  25.658   4.580  1.00  0.00    -0.304 OA
HETATM    4  O   UNL     1      49.967  22.819   3.131  1.00  0.00    -0.270 OA
HETATM    5  O   UNL     1      46.602  21.344   4.901  1.00  0.00    -0.263 OA
HETATM    6  O   UNL     1      47.294  23.734   2.297  1.00  0.00    -0.270 OA
HETATM    7  O   UNL     1      47.113  27.551   6.421  1.00  0.00    -0.270 OA
HETATM    8  O   UNL     1      50.890  24.852   7.713  1.00  0.00    -0.263 OA
HETATM    9  O   UNL     1      46.079  27.582   3.643  1.00  0.00    -0.263 OA
HETATM   10  N   UNL     1      49.442  21.447   4.928  1.00  0.00    -0.340 N 
HETATM   11  N   UNL     1      45.062  24.342   2.310  1.00  0.00    -0.340 N 
HETATM   12  N   UNL     1      47.312  25.308   7.007  1.00  0.00    -0.340 N 
HETATM   13  C   UNL     1      48.721  20.514   4.039  1.00  0.00     0.190 C 
HETATM   14  C   UNL     1      45.431  25.769   2.190  1.00  0.00     0.190 C 
HETATM   15  C   UNL     1      48.571  25.530   7.748  1.00  0.00     0.190 C 
HETATM   16  C   UNL     1      50.645  23.623   5.279  1.00  0.00     0.227 C 
HETATM   17  C   UNL     1      45.740  21.915   2.342  1.00  0.00     0.227 C 
HETATM   18  C   UNL     1      45.217  26.162   5.928  1.00  0.00     0.227 C 
HETATM   19  C   UNL     1      49.996  22.603   4.348  1.00  0.00     0.250 C 
HETATM   20  C   UNL     1      47.301  21.049   3.941  1.00  0.00     0.283 C 
HETATM   21  C   UNL     1      46.104  23.403   2.319  1.00  0.00     0.250 C 
HETATM   22  C   UNL     1      46.634  26.413   6.463  1.00  0.00     0.250 C 
HETATM   23  C   UNL     1      49.799  24.847   7.152  1.00  0.00     0.283 C 
HETATM   24  C   UNL     1      45.637  26.442   3.545  1.00  0.00     0.283 C 
HETATM   25  C   UNL     1      49.499  21.125   6.357  1.00  0.00     0.153 C 
HETATM   26  C   UNL     1      43.642  24.010   2.448  1.00  0.00     0.153 C 
HETATM   27  C   UNL     1      46.739  23.961   7.033  1.00  0.00     0.153 C 
ENDROOT
BRANCH  17  28
HETATM   28  C   UNL     1      45.264  21.458   0.971  1.00  0.00     0.016 C 
HETATM   29  C   UNL     1      46.401  20.788   0.200  1.00  0.00     0.012 C 
HETATM   30  C   UNL     1      44.075  20.507   1.102  1.00  0.00     0.012 C 
ENDBRANCH  17  28
BRANCH  13  31
HETATM   31  C   UNL     1      48.703  19.053   4.476  1.00  0.00     0.014 C 
HETATM   32  C   UNL     1      47.401  18.391   4.023  1.00  0.00     0.012 C 
BRANCH  31  33
HETATM   33  C   UNL     1      49.947  18.328   3.933  1.00  0.00     0.002 C 
HETATM   34  C   UNL     1      50.470  18.904   2.624  1.00  0.00     0.005 C 
ENDBRANCH  31  33
ENDBRANCH  13  31
BRANCH  14  35
HETATM   35  C   UNL     1      44.451  26.589   1.351  1.00  0.00     0.010 C 
HETATM   36  C   UNL     1      43.596  27.487   2.243  1.00  0.00     0.012 C 
HETATM   37  C   UNL     1      45.198  27.424   0.311  1.00  0.00     0.012 C 
ENDBRANCH  14  35
BRANCH  16  38
HETATM   38  C   UNL     1      51.453  24.660   4.505  1.00  0.00     0.016 C 
HETATM   39  C   UNL     1      52.841  24.831   5.119  1.00  0.00     0.012 C 
HETATM   40  C   UNL     1      50.717  25.998   4.467  1.00  0.00     0.012 C 
ENDBRANCH  16  38
BRANCH  18  41
HETATM   41  C   UNL     1      44.308  27.383   6.068  1.00  0.00     0.016 C 
HETATM   42  C   UNL     1      44.543  28.075   7.408  1.00  0.00     0.012 C 
HETATM   43  C   UNL     1      42.842  26.980   5.921  1.00  0.00     0.012 C 
ENDBRANCH  18  41
BRANCH  15  44
HETATM   44  C   UNL     1      48.418  25.163   9.225  1.00  0.00     0.010 C 
HETATM   45  C   UNL     1      48.281  23.651   9.388  1.00  0.00     0.012 C 
HETATM   46  C   UNL     1      47.217  25.882   9.832  1.00  0.00     0.012 C 
ENDBRANCH  15  44
TORSDOF 7
ENDMDL
MODEL 17
REMARK VINA RESULT:    -4.436     10.188     15.408
REMARK INTER + INTRA:          -5.641
REMARK INTER:                  -6.458
REMARK INTRA:                   0.817
REMARK UNBOUND:                 0.610
REMARK  7 active torsions:
REMARK  status: ('A' for Active; 'I' for Inactive)
REMARK    1  A    between atoms: C_13  and  C_14 
REMARK    2  A    between atoms: C_14  and  C_19 
REMARK    3  A    between atoms: C_15  and  C_20 
REMARK    4  A    between atoms: C_16  and  C_21 
REMARK    5  A    between atoms: C_17  and  C_23 
REMARK    6  A    between atoms: C_18  and  C_26 
REMARK    7  A    between atoms: C_22  and  C_28 
ROOT
HETATM    1  O   UNL     1      45.156  30.863  -0.752  1.00  0.00    -0.304 OA
HETATM    2  O   UNL     1      42.577  34.888   1.356  1.00  0.00    -0.304 OA
HETATM    3  O   UNL     1      45.697  32.617   4.086  1.00  0.00    -0.304 OA
HETATM    4  O   UNL     1      41.994  32.182  -0.237  1.00  0.00    -0.270 OA
HETATM    5  O   UNL     1      45.988  32.989  -0.426  1.00  0.00    -0.263 OA
HETATM    6  O   UNL     1      43.905  30.785   1.517  1.00  0.00    -0.270 OA
HETATM    7  O   UNL     1      43.808  34.973   5.266  1.00  0.00    -0.270 OA
HETATM    8  O   UNL     1      41.610  36.969   1.471  1.00  0.00    -0.263 OA
HETATM    9  O   UNL     1      44.045  32.035   5.580  1.00  0.00    -0.263 OA
HETATM   10  N   UNL     1      43.381  33.709  -1.301  1.00  0.00    -0.340 N 
HETATM   11  N   UNL     1      45.730  30.296   2.852  1.00  0.00    -0.340 N 
HETATM   12  N   UNL     1      44.529  35.448   3.106  1.00  0.00    -0.340 N 
HETATM   13  C   UNL     1      44.129  32.615  -1.953  1.00  0.00     0.190 C 
HETATM   14  C   UNL     1      44.884  30.358   4.063  1.00  0.00     0.190 C 
HETATM   15  C   UNL     1      43.496  36.484   2.902  1.00  0.00     0.190 C 
HETATM   16  C   UNL     1      41.642  34.476   0.340  1.00  0.00     0.227 C 
HETATM   17  C   UNL     1      45.941  30.339   0.341  1.00  0.00     0.227 C 
HETATM   18  C   UNL     1      45.875  33.950   4.598  1.00  0.00     0.227 C 
HETATM   19  C   UNL     1      42.344  33.354  -0.419  1.00  0.00     0.250 C 
HETATM   20  C   UNL     1      45.213  32.211  -0.967  1.00  0.00     0.283 C 
HETATM   21  C   UNL     1      45.103  30.497   1.613  1.00  0.00     0.250 C 
HETATM   22  C   UNL     1      44.636  34.826   4.362  1.00  0.00     0.250 C 
HETATM   23  C   UNL     1      42.463  36.161   1.826  1.00  0.00     0.283 C 
HETATM   24  C   UNL     1      44.807  31.762   4.659  1.00  0.00     0.283 C 
HETATM   25  C   UNL     1      43.792  35.087  -1.587  1.00  0.00     0.153 C 
HETATM   26  C   UNL     1      47.165  30.065   3.030  1.00  0.00     0.153 C 
HETATM   27  C   UNL     1      45.510  35.251   2.038  1.00  0.00     0.153 C 
ENDROOT
BRANCH  17  28
HETATM   28  C   UNL     1      46.187  28.867   0.040  1.00  0.00     0.016 C 
HETATM   29  C   UNL     1      45.161  28.343  -0.964  1.00  0.00     0.012 C 
HETATM   30  C   UNL     1      47.606  28.654  -0.484  1.00  0.00     0.012 C 
ENDBRANCH  17  28
BRANCH  13  31
HETATM   31  C   UNL     1      44.746  32.943  -3.308  1.00  0.00     0.014 C 
HETATM   32  C   UNL     1      45.996  32.090  -3.530  1.00  0.00     0.012 C 
BRANCH  31  33
HETATM   33  C   UNL     1      43.702  32.749  -4.421  1.00  0.00     0.002 C 
HETATM   34  C   UNL     1      43.278  34.046  -5.096  1.00  0.00     0.005 C 
ENDBRANCH  31  33
ENDBRANCH  13  31
BRANCH  14  35
HETATM   35  C   UNL     1      45.288  29.360   5.148  1.00  0.00     0.010 C 
HETATM   36  C   UNL     1      46.002  30.070   6.296  1.00  0.00     0.012 C 
HETATM   37  C   UNL     1      44.067  28.601   5.666  1.00  0.00     0.012 C 
ENDBRANCH  14  35
BRANCH  16  38
HETATM   38  C   UNL     1      40.366  33.987   1.019  1.00  0.00     0.016 C 
HETATM   39  C   UNL     1      39.195  34.915   0.700  1.00  0.00     0.012 C 
HETATM   40  C   UNL     1      40.566  33.878   2.529  1.00  0.00     0.012 C 
ENDBRANCH  16  38
BRANCH  18  41
HETATM   41  C   UNL     1      46.323  33.942   6.060  1.00  0.00     0.016 C 
HETATM   42  C   UNL     1      46.300  35.356   6.636  1.00  0.00     0.012 C 
HETATM   43  C   UNL     1      47.717  33.332   6.190  1.00  0.00     0.012 C 
ENDBRANCH  18  41
BRANCH  15  44
HETATM   44  C   UNL     1      44.125  37.854   2.646  1.00  0.00     0.010 C 
HETATM   45  C   UNL     1      45.525  37.921   3.251  1.00  0.00     0.012 C 
HETATM   46  C   UNL     1      43.241  38.962   3.211  1.00  0.00     0.012 C 
ENDBRANCH  15  44
TORSDOF 7
ENDMDL
MODEL 18
REMARK VINA RESULT:    -4.252     10.848     15.131
REMARK INTER + INTRA:          -5.381
REMARK INTER:                  -6.260
REMARK INTRA:                   0.878
REMARK UNBOUND:                 0.610
REMARK  7 active torsions:
REMARK  status: ('A' for Active; 'I' for Inactive)
REMARK    1  A    between atoms: C_13  and  C_14 
REMARK    2  A    between atoms: C_14  and  C_19 
REMARK    3  A    between atoms: C_15  and  C_20 
REMARK    4  A    between atoms: C_16  and  C_21 
REMARK    5  A    between atoms: C_17  and  C_23 
REMARK    6  A    between atoms: C_18  and  C_26 
REMARK    7  A    between atoms: C_22  and  C_28 
ROOT
HETATM    1  O   UNL     1      50.455  33.549   0.900  1.00  0.00    -0.304 OA
HETATM    2  O   UNL     1      46.131  33.754   3.823  1.00  0.00    -0.304 OA
HETATM    3  O   UNL     1      47.398  37.678   1.512  1.00  0.00    -0.304 OA
HETATM    4  O   UNL     1      49.199  32.899   4.061  1.00  0.00    -0.270 OA
HETATM    5  O   UNL     1      48.286  33.450   0.125  1.00  0.00    -0.263 OA
HETATM    6  O   UNL     1      49.957  35.379   2.665  1.00  0.00    -0.270 OA
HETATM    7  O   UNL     1      44.900  37.658   3.578  1.00  0.00    -0.270 OA
HETATM    8  O   UNL     1      44.150  33.043   4.743  1.00  0.00    -0.263 OA
HETATM    9  O   UNL     1      47.619  38.835   3.490  1.00  0.00    -0.263 OA
HETATM   10  N   UNL     1      47.964  31.811   2.425  1.00  0.00    -0.340 N 
HETATM   11  N   UNL     1      49.967  37.194   1.231  1.00  0.00    -0.340 N 
HETATM   12  N   UNL     1      45.012  35.690   2.343  1.00  0.00    -0.340 N 
HETATM   13  C   UNL     1      49.159  31.693   1.564  1.00  0.00     0.190 C 
HETATM   14  C   UNL     1      49.610  38.100   2.345  1.00  0.00     0.190 C 
HETATM   15  C   UNL     1      44.124  34.960   3.273  1.00  0.00     0.190 C 
HETATM   16  C   UNL     1      46.854  32.703   4.492  1.00  0.00     0.227 C 
HETATM   17  C   UNL     1      50.616  34.900   0.416  1.00  0.00     0.227 C 
HETATM   18  C   UNL     1      45.968  37.821   1.434  1.00  0.00     0.227 C 
HETATM   19  C   UNL     1      48.109  32.482   3.652  1.00  0.00     0.250 C 
HETATM   20  C   UNL     1      49.220  32.983   0.762  1.00  0.00     0.283 C 
HETATM   21  C   UNL     1      50.149  35.837   1.533  1.00  0.00     0.250 C 
HETATM   22  C   UNL     1      45.253  37.057   2.558  1.00  0.00     0.250 C 
HETATM   23  C   UNL     1      44.784  33.804   4.020  1.00  0.00     0.283 C 
HETATM   24  C   UNL     1      48.101  38.239   2.533  1.00  0.00     0.283 C 
HETATM   25  C   UNL     1      46.703  31.255   1.925  1.00  0.00     0.153 C 
HETATM   26  C   UNL     1      50.070  37.768  -0.112  1.00  0.00     0.153 C 
HETATM   27  C   UNL     1      45.452  34.987   1.137  1.00  0.00     0.153 C 
ENDROOT
BRANCH  17  28
HETATM   28  C   UNL     1      52.099  35.095   0.137  1.00  0.00     0.016 C 
HETATM   29  C   UNL     1      52.944  34.289   1.123  1.00  0.00     0.012 C 
HETATM   30  C   UNL     1      52.434  34.700  -1.301  1.00  0.00     0.012 C 
ENDBRANCH  17  28
BRANCH  13  31
HETATM   31  C   UNL     1      49.193  30.489   0.629  1.00  0.00     0.014 C 
HETATM   32  C   UNL     1      50.101  30.785  -0.566  1.00  0.00     0.012 C 
BRANCH  31  33
HETATM   33  C   UNL     1      49.637  29.236   1.404  1.00  0.00     0.002 C 
HETATM   34  C   UNL     1      50.720  29.507   2.439  1.00  0.00     0.005 C 
ENDBRANCH  31  33
ENDBRANCH  13  31
BRANCH  14  35
HETATM   35  C   UNL     1      50.245  39.486   2.239  1.00  0.00     0.010 C 
HETATM   36  C   UNL     1      49.311  40.454   1.516  1.00  0.00     0.012 C 
HETATM   37  C   UNL     1      50.604  40.023   3.624  1.00  0.00     0.012 C 
ENDBRANCH  14  35
BRANCH  16  38
HETATM   38  C   UNL     1      47.196  33.166   5.906  1.00  0.00     0.016 C 
HETATM   39  C   UNL     1      46.681  32.167   6.940  1.00  0.00     0.012 C 
HETATM   40  C   UNL     1      46.619  34.556   6.171  1.00  0.00     0.012 C 
ENDBRANCH  16  38
BRANCH  18  41
HETATM   41  C   UNL     1      45.547  39.287   1.355  1.00  0.00     0.016 C 
HETATM   42  C   UNL     1      44.025  39.409   1.355  1.00  0.00     0.012 C 
HETATM   43  C   UNL     1      46.138  39.949   0.112  1.00  0.00     0.012 C 
ENDBRANCH  18  41
BRANCH  15  44
HETATM   44  C   UNL     1      42.852  34.486   2.570  1.00  0.00     0.010 C 
HETATM   45  C   UNL     1      41.650  34.603   3.503  1.00  0.00     0.012 C 
HETATM   46  C   UNL     1      43.016  33.051   2.079  1.00  0.00     0.012 C 
ENDBRANCH  15  44
TORSDOF 7
ENDMDL
MODEL 19
REMARK VINA RESULT:    -4.249      8.276     12.110
REMARK INTER + INTRA:          -5.377
REMARK INTER:                  -6.165
REMARK INTRA:                   0.789
REMARK UNBOUND:                 0.610
REMARK  7 active torsions:
REMARK  status: ('A' for Active; 'I' for Inactive)
REMARK    1  A    between atoms: C_13  and  C_14 
REMARK    2  A    between atoms: C_14  and  C_19 
REMARK    3  A    between atoms: C_15  and  C_20 
REMARK    4  A    between atoms: C_16  and  C_21 
REMARK    5  A    between atoms: C_17  and  C_23 
REMARK    6  A    between atoms: C_18  and  C_26 
REMARK    7  A    between atoms: C_22  and  C_28 
ROOT
HETATM    1  O   UNL     1      50.368  33.117   1.018  1.00  0.00    -0.304 OA
HETATM    2  O   UNL     1      47.313  32.482   5.207  1.00  0.00    -0.304 OA
HETATM    3  O   UNL     1      46.668  29.541   1.564  1.00  0.00    -0.304 OA
HETATM    4  O   UNL     1      48.247  34.779   3.193  1.00  0.00    -0.270 OA
HETATM    5  O   UNL     1      50.614  31.503   2.646  1.00  0.00    -0.263 OA
HETATM    6  O   UNL     1      47.784  32.937   0.942  1.00  0.00    -0.270 OA
HETATM    7  O   UNL     1      44.717  29.488   4.152  1.00  0.00    -0.270 OA
HETATM    8  O   UNL     1      46.748  32.376   7.432  1.00  0.00    -0.263 OA
HETATM    9  O   UNL     1      44.498  30.260   1.298  1.00  0.00    -0.263 OA
HETATM   10  N   UNL     1      49.940  33.682   4.341  1.00  0.00    -0.340 N 
HETATM   11  N   UNL     1      47.651  31.033  -0.365  1.00  0.00    -0.340 N 
HETATM   12  N   UNL     1      46.933  29.867   4.751  1.00  0.00    -0.340 N 
HETATM   13  C   UNL     1      50.863  33.859   3.201  1.00  0.00     0.190 C 
HETATM   14  C   UNL     1      46.177  31.034  -0.250  1.00  0.00     0.190 C 
HETATM   15  C   UNL     1      46.569  30.373   6.091  1.00  0.00     0.190 C 
HETATM   16  C   UNL     1      47.639  33.881   5.326  1.00  0.00     0.227 C 
HETATM   17  C   UNL     1      49.868  32.150   0.069  1.00  0.00     0.227 C 
HETATM   18  C   UNL     1      46.377  28.633   2.642  1.00  0.00     0.227 C 
HETATM   19  C   UNL     1      48.625  34.160   4.195  1.00  0.00     0.250 C 
HETATM   20  C   UNL     1      50.619  32.672   2.284  1.00  0.00     0.283 C 
HETATM   21  C   UNL     1      48.350  32.076   0.259  1.00  0.00     0.250 C 
HETATM   22  C   UNL     1      45.923  29.374   3.908  1.00  0.00     0.250 C 
HETATM   23  C   UNL     1      46.894  31.844   6.335  1.00  0.00     0.283 C 
HETATM   24  C   UNL     1      45.677  30.253   0.963  1.00  0.00     0.283 C 
HETATM   25  C   UNL     1      50.446  32.991   5.531  1.00  0.00     0.153 C 
HETATM   26  C   UNL     1      48.280  29.926  -1.089  1.00  0.00     0.153 C 
HETATM   27  C   UNL     1      48.358  29.740   4.440  1.00  0.00     0.153 C 
ENDROOT
BRANCH  17  28
HETATM   28  C   UNL     1      50.211  32.674  -1.318  1.00  0.00     0.016 C 
HETATM   29  C   UNL     1      50.502  34.174  -1.270  1.00  0.00     0.012 C 
HETATM   30  C   UNL     1      51.402  31.917  -1.902  1.00  0.00     0.012 C 
ENDBRANCH  17  28
BRANCH  13  31
HETATM   31  C   UNL     1      52.344  33.959   3.550  1.00  0.00     0.014 C 
HETATM   32  C   UNL     1      53.191  33.600   2.328  1.00  0.00     0.012 C 
BRANCH  31  33
HETATM   33  C   UNL     1      52.662  35.365   4.088  1.00  0.00     0.002 C 
HETATM   34  C   UNL     1      54.149  35.621   4.291  1.00  0.00     0.005 C 
ENDBRANCH  31  33
ENDBRANCH  13  31
BRANCH  14  35
HETATM   35  C   UNL     1      45.461  30.544  -1.509  1.00  0.00     0.010 C 
HETATM   36  C   UNL     1      44.849  29.164  -1.279  1.00  0.00     0.012 C 
HETATM   37  C   UNL     1      44.385  31.540  -1.942  1.00  0.00     0.012 C 
ENDBRANCH  14  35
BRANCH  16  38
HETATM   38  C   UNL     1      46.358  34.697   5.172  1.00  0.00     0.016 C 
HETATM   39  C   UNL     1      45.983  35.364   6.494  1.00  0.00     0.012 C 
HETATM   40  C   UNL     1      45.214  33.816   4.673  1.00  0.00     0.012 C 
ENDBRANCH  16  38
BRANCH  18  41
HETATM   41  C   UNL     1      45.399  27.539   2.215  1.00  0.00     0.016 C 
HETATM   42  C   UNL     1      45.080  26.617   3.389  1.00  0.00     0.012 C 
HETATM   43  C   UNL     1      45.967  26.740   1.044  1.00  0.00     0.012 C 
ENDBRANCH  18  41
BRANCH  15  44
HETATM   44  C   UNL     1      47.168  29.501   7.196  1.00  0.00     0.010 C 
HETATM   45  C   UNL     1      48.664  29.767   7.334  1.00  0.00     0.012 C 
HETATM   46  C   UNL     1      46.907  28.025   6.911  1.00  0.00     0.012 C 
ENDBRANCH  15  44
TORSDOF 7
ENDMDL
MODEL 20
REMARK VINA RESULT:    -4.217      8.950     12.736
REMARK INTER + INTRA:          -5.332
REMARK INTER:                  -6.174
REMARK INTRA:                   0.843
REMARK UNBOUND:                 0.610
REMARK  7 active torsions:
REMARK  status: ('A' for Active; 'I' for Inactive)
REMARK    1  A    between atoms: C_13  and  C_14 
REMARK    2  A    between atoms: C_14  and  C_19 
REMARK    3  A    between atoms: C_15  and  C_20 
REMARK    4  A    between atoms: C_16  and  C_21 
REMARK    5  A    between atoms: C_17  and  C_23 
REMARK    6  A    between atoms: C_18  and  C_26 
REMARK    7  A    between atoms: C_22  and  C_28 
ROOT
HETATM    1  O   UNL     1      45.857  29.096   3.851  1.00  0.00    -0.304 OA
HETATM    2  O   UNL     1      46.645  34.208   3.120  1.00  0.00    -0.304 OA
HETATM    3  O   UNL     1      43.323  32.109   0.493  1.00  0.00    -0.304 OA
HETATM    4  O   UNL     1      48.295  31.475   3.225  1.00  0.00    -0.270 OA
HETATM    5  O   UNL     1      44.538  30.804   4.665  1.00  0.00    -0.263 OA
HETATM    6  O   UNL     1      46.233  30.213   1.543  1.00  0.00    -0.270 OA
HETATM    7  O   UNL     1      44.150  35.208   0.023  1.00  0.00    -0.270 OA
HETATM    8  O   UNL     1      47.055  36.399   3.679  1.00  0.00    -0.263 OA
HETATM    9  O   UNL     1      44.440  32.650  -1.446  1.00  0.00    -0.263 OA
HETATM   10  N   UNL     1      47.075  32.001   5.128  1.00  0.00    -0.340 N 
HETATM   11  N   UNL     1      44.205  29.634   0.592  1.00  0.00    -0.340 N 
HETATM   12  N   UNL     1      44.137  34.653   2.282  1.00  0.00    -0.340 N 
HETATM   13  C   UNL     1      46.844  30.569   5.407  1.00  0.00     0.190 C 
HETATM   14  C   UNL     1      44.547  30.380  -0.638  1.00  0.00     0.190 C 
HETATM   15  C   UNL     1      44.936  35.837   2.661  1.00  0.00     0.190 C 
HETATM   16  C   UNL     1      47.938  33.808   3.615  1.00  0.00     0.227 C 
HETATM   17  C   UNL     1      44.871  28.747   2.855  1.00  0.00     0.227 C 
HETATM   18  C   UNL     1      42.704  33.398   0.653  1.00  0.00     0.227 C 
HETATM   19  C   UNL     1      47.793  32.330   3.965  1.00  0.00     0.250 C 
HETATM   20  C   UNL     1      45.596  30.191   4.626  1.00  0.00     0.283 C 
HETATM   21  C   UNL     1      45.164  29.597   1.615  1.00  0.00     0.250 C 
HETATM   22  C   UNL     1      43.735  34.498   0.944  1.00  0.00     0.250 C 
HETATM   23  C   UNL     1      46.321  35.527   3.223  1.00  0.00     0.283 C 
HETATM   24  C   UNL     1      44.118  31.845  -0.579  1.00  0.00     0.283 C 
HETATM   25  C   UNL     1      46.509  32.981   6.061  1.00  0.00     0.153 C 
HETATM   26  C   UNL     1      42.878  29.018   0.673  1.00  0.00     0.153 C 
HETATM   27  C   UNL     1      43.650  33.792   3.361  1.00  0.00     0.153 C 
ENDROOT
BRANCH  17  28
HETATM   28  C   UNL     1      45.057  27.268   2.549  1.00  0.00     0.016 C 
HETATM   29  C   UNL     1      46.433  26.791   3.013  1.00  0.00     0.012 C 
HETATM   30  C   UNL     1      43.954  26.439   3.205  1.00  0.00     0.012 C 
ENDBRANCH  17  28
BRANCH  13  31
HETATM   31  C   UNL     1      46.679  30.192   6.876  1.00  0.00     0.014 C 
HETATM   32  C   UNL     1      45.627  29.090   7.015  1.00  0.00     0.012 C 
BRANCH  31  33
HETATM   33  C   UNL     1      48.038  29.780   7.468  1.00  0.00     0.002 C 
HETATM   34  C   UNL     1      48.766  30.913   8.177  1.00  0.00     0.005 C 
ENDBRANCH  31  33
ENDBRANCH  13  31
BRANCH  14  35
HETATM   35  C   UNL     1      44.011  29.738  -1.917  1.00  0.00     0.010 C 
HETATM   36  C   UNL     1      42.884  30.578  -2.513  1.00  0.00     0.012 C 
HETATM   37  C   UNL     1      45.134  29.548  -2.937  1.00  0.00     0.012 C 
ENDBRANCH  14  35
BRANCH  16  38
HETATM   38  C   UNL     1      48.973  34.030   2.515  1.00  0.00     0.016 C 
HETATM   39  C   UNL     1      49.932  35.156   2.897  1.00  0.00     0.012 C 
HETATM   40  C   UNL     1      48.289  34.337   1.185  1.00  0.00     0.012 C 
ENDBRANCH  16  38
BRANCH  18  41
HETATM   41  C   UNL     1      41.791  33.741  -0.523  1.00  0.00     0.016 C 
HETATM   42  C   UNL     1      41.175  35.126  -0.339  1.00  0.00     0.012 C 
HETATM   43  C   UNL     1      40.699  32.684  -0.681  1.00  0.00     0.012 C 
ENDBRANCH  18  41
BRANCH  15  44
HETATM   44  C   UNL     1      44.162  36.748   3.614  1.00  0.00     0.010 C 
HETATM   45  C   UNL     1      43.836  36.012   4.910  1.00  0.00     0.012 C 
HETATM   46  C   UNL     1      42.888  37.258   2.948  1.00  0.00     0.012 C 
ENDBRANCH  15  44
TORSDOF 7
ENDMDL
