MODEL 1
REMARK VINA RESULT:    -6.974      0.000      0.000
REMARK INTER + INTRA:          -8.267
REMARK INTER:                  -9.828
REMARK INTRA:                   1.561
REMARK UNBOUND:                 1.561
REMARK  7 active torsions:
REMARK  status: ('A' for Active; 'I' for Inactive)
REMARK    1  A    between atoms: C_13  and  C_14 
REMARK    2  A    between atoms: C_14  and  C_19 
REMARK    3  A    between atoms: C_15  and  C_20 
REMARK    4  A    between atoms: C_16  and  C_21 
REMARK    5  A    between atoms: C_17  and  C_23 
REMARK    6  A    between atoms: C_18  and  C_26 
REMARK    7  A    between atoms: C_22  and  C_28 
ROOT
HETATM    1  O   UNL     1      33.520  28.614  10.490  1.00  0.00    -0.304 OA
HETATM    2  O   UNL     1      32.008  29.143   5.518  1.00  0.00    -0.304 OA
HETATM    3  O   UNL     1      29.424  26.330   8.302  1.00  0.00    -0.304 OA
HETATM    4  O   UNL     1      34.620  28.427   7.211  1.00  0.00    -0.270 OA
HETATM    5  O   UNL     1      31.786  29.931   9.730  1.00  0.00    -0.263 OA
HETATM    6  O   UNL     1      32.991  26.642   8.894  1.00  0.00    -0.270 OA
HETATM    7  O   UNL     1      28.816  26.599   5.129  1.00  0.00    -0.270 OA
HETATM    8  O   UNL     1      31.580  30.206   3.526  1.00  0.00    -0.263 OA
HETATM    9  O   UNL     1      29.858  24.512   6.958  1.00  0.00    -0.263 OA
HETATM   10  N   UNL     1      33.651  30.489   7.658  1.00  0.00    -0.340 N 
HETATM   11  N   UNL     1      31.242  25.732  10.105  1.00  0.00    -0.340 N 
HETATM   12  N   UNL     1      29.432  28.638   6.064  1.00  0.00    -0.340 N 
HETATM   13  C   UNL     1      34.079  30.413   9.070  1.00  0.00     0.190 C 
HETATM   14  C   UNL     1      31.025  24.709   9.060  1.00  0.00     0.190 C 
HETATM   15  C   UNL     1      29.731  29.242   4.749  1.00  0.00     0.190 C 
HETATM   16  C   UNL     1      33.417  29.421   5.398  1.00  0.00     0.227 C 
HETATM   17  C   UNL     1      32.602  27.639  11.034  1.00  0.00     0.227 C 
HETATM   18  C   UNL     1      28.372  26.858   7.475  1.00  0.00     0.227 C 
HETATM   19  C   UNL     1      33.953  29.395   6.827  1.00  0.00     0.250 C 
HETATM   20  C   UNL     1      32.978  29.658   9.796  1.00  0.00     0.283 C 
HETATM   21  C   UNL     1      32.298  26.636   9.918  1.00  0.00     0.250 C 
HETATM   22  C   UNL     1      28.898  27.339   6.115  1.00  0.00     0.250 C 
HETATM   23  C   UNL     1      31.198  29.602   4.524  1.00  0.00     0.283 C 
HETATM   24  C   UNL     1      30.053  25.169   7.975  1.00  0.00     0.283 C 
HETATM   25  C   UNL     1      32.910  31.679   7.230  1.00  0.00     0.153 C 
HETATM   26  C   UNL     1      30.321  25.755  11.243  1.00  0.00     0.153 C 
HETATM   27  C   UNL     1      29.540  29.498   7.244  1.00  0.00     0.153 C 
ENDROOT
BRANCH  17  28
HETATM   28  C   UNL     1      33.319  26.956  12.189  1.00  0.00     0.016 C 
HETATM   29  C   UNL     1      34.227  25.839  11.676  1.00  0.00     0.012 C 
HETATM   30  C   UNL     1      34.125  27.970  13.000  1.00  0.00     0.012 C 
ENDBRANCH  17  28
BRANCH  13  31
HETATM   31  C   UNL     1      34.346  31.746   9.760  1.00  0.00     0.014 C 
HETATM   32  C   UNL     1      33.458  31.877  10.999  1.00  0.00     0.012 C 
BRANCH  31  33
HETATM   33  C   UNL     1      35.842  31.872  10.098  1.00  0.00     0.002 C 
HETATM   34  C   UNL     1      36.742  31.013   9.221  1.00  0.00     0.005 C 
ENDBRANCH  31  33
ENDBRANCH  13  31
BRANCH  14  35
HETATM   35  C   UNL     1      30.581  23.353   9.608  1.00  0.00     0.010 C 
HETATM   36  C   UNL     1      31.028  22.224   8.683  1.00  0.00     0.012 C 
HETATM   37  C   UNL     1      31.127  23.136  11.019  1.00  0.00     0.012 C 
ENDBRANCH  14  35
BRANCH  16  38
HETATM   38  C   UNL     1      34.058  28.338   4.534  1.00  0.00     0.016 C 
HETATM   39  C   UNL     1      34.507  28.914   3.192  1.00  0.00     0.012 C 
HETATM   40  C   UNL     1      33.091  27.176   4.321  1.00  0.00     0.012 C 
ENDBRANCH  16  38
BRANCH  18  41
HETATM   41  C   UNL     1      27.206  25.880   7.345  1.00  0.00     0.016 C 
HETATM   42  C   UNL     1      26.074  26.499   6.528  1.00  0.00     0.012 C 
HETATM   43  C   UNL     1      26.704  25.457   8.724  1.00  0.00     0.012 C 
ENDBRANCH  18  41
BRANCH  15  44
HETATM   44  C   UNL     1      28.836  30.451   4.476  1.00  0.00     0.010 C 
HETATM   45  C   UNL     1      28.325  30.425   3.038  1.00  0.00     0.012 C 
HETATM   46  C   UNL     1      29.589  31.748   4.757  1.00  0.00     0.012 C 
ENDBRANCH  15  44
TORSDOF 7
ENDMDL
MODEL 2
REMARK VINA RESULT:    -6.961      2.528      6.972
REMARK INTER + INTRA:          -8.248
REMARK INTER:                  -9.338
REMARK INTRA:                   1.089
REMARK UNBOUND:                 1.561
REMARK  7 active torsions:
REMARK  status: ('A' for Active; 'I' for Inactive)
REMARK    1  A    between atoms: C_13  and  C_14 
REMARK    2  A    between atoms: C_14  and  C_19 
REMARK    3  A    between atoms: C_15  and  C_20 
REMARK    4  A    between atoms: C_16  and  C_21 
REMARK    5  A    between atoms: C_17  and  C_23 
REMARK    6  A    between atoms: C_18  and  C_26 
REMARK    7  A    between atoms: C_22  and  C_28 
ROOT
HETATM    1  O   UNL     1      28.948  24.615   6.169  1.00  0.00    -0.304 OA
HETATM    2  O   UNL     1      31.354  29.080   7.420  1.00  0.00    -0.304 OA
HETATM    3  O   UNL     1      32.048  27.366   3.070  1.00  0.00    -0.304 OA
HETATM    4  O   UNL     1      30.987  26.110   8.536  1.00  0.00    -0.270 OA
HETATM    5  O   UNL     1      28.293  26.735   5.538  1.00  0.00    -0.263 OA
HETATM    6  O   UNL     1      31.476  25.073   5.823  1.00  0.00    -0.270 OA
HETATM    7  O   UNL     1      33.641  29.980   4.138  1.00  0.00    -0.270 OA
HETATM    8  O   UNL     1      31.622  31.164   8.350  1.00  0.00    -0.263 OA
HETATM    9  O   UNL     1      34.310  27.175   3.448  1.00  0.00    -0.263 OA
HETATM   10  N   UNL     1      29.035  27.325   8.218  1.00  0.00    -0.340 N 
HETATM   11  N   UNL     1      31.516  24.832   3.523  1.00  0.00    -0.340 N 
HETATM   12  N   UNL     1      31.438  29.949   4.885  1.00  0.00    -0.340 N 
HETATM   13  C   UNL     1      28.291  26.093   7.886  1.00  0.00     0.190 C 
HETATM   14  C   UNL     1      32.952  25.183   3.492  1.00  0.00     0.190 C 
HETATM   15  C   UNL     1      31.699  30.947   5.944  1.00  0.00     0.190 C 
HETATM   16  C   UNL     1      31.204  28.485   8.724  1.00  0.00     0.227 C 
HETATM   17  C   UNL     1      29.430  24.318   4.840  1.00  0.00     0.227 C 
HETATM   18  C   UNL     1      32.082  28.773   2.767  1.00  0.00     0.227 C 
HETATM   19  C   UNL     1      30.410  27.203   8.490  1.00  0.00     0.250 C 
HETATM   20  C   UNL     1      28.487  25.881   6.394  1.00  0.00     0.283 C 
HETATM   21  C   UNL     1      30.889  24.777   4.776  1.00  0.00     0.250 C 
HETATM   22  C   UNL     1      32.471  29.614   3.992  1.00  0.00     0.250 C 
HETATM   23  C   UNL     1      31.543  30.428   7.371  1.00  0.00     0.283 C 
HETATM   24  C   UNL     1      33.190  26.685   3.353  1.00  0.00     0.283 C 
HETATM   25  C   UNL     1      28.300  28.594   8.205  1.00  0.00     0.153 C 
HETATM   26  C   UNL     1      30.839  24.602   2.244  1.00  0.00     0.153 C 
HETATM   27  C   UNL     1      30.059  29.493   4.709  1.00  0.00     0.153 C 
ENDROOT
BRANCH  17  28
HETATM   28  C   UNL     1      29.332  22.810   4.663  1.00  0.00     0.016 C 
HETATM   29  C   UNL     1      29.470  22.099   6.008  1.00  0.00     0.012 C 
HETATM   30  C   UNL     1      28.014  22.430   3.989  1.00  0.00     0.012 C 
ENDBRANCH  17  28
BRANCH  13  31
HETATM   31  C   UNL     1      26.805  26.098   8.226  1.00  0.00     0.014 C 
HETATM   32  C   UNL     1      25.979  25.922   6.951  1.00  0.00     0.012 C 
BRANCH  31  33
HETATM   33  C   UNL     1      26.503  25.010   9.272  1.00  0.00     0.002 C 
HETATM   34  C   UNL     1      27.295  25.164  10.563  1.00  0.00     0.005 C 
ENDBRANCH  31  33
ENDBRANCH  13  31
BRANCH  14  35
HETATM   35  C   UNL     1      33.746  24.434   2.422  1.00  0.00     0.010 C 
HETATM   36  C   UNL     1      33.921  25.298   1.175  1.00  0.00     0.012 C 
HETATM   37  C   UNL     1      35.106  23.997   2.965  1.00  0.00     0.012 C 
ENDBRANCH  14  35
BRANCH  16  38
HETATM   38  C   UNL     1      32.590  28.195   9.293  1.00  0.00     0.016 C 
HETATM   39  C   UNL     1      32.884  29.102  10.487  1.00  0.00     0.012 C 
HETATM   40  C   UNL     1      33.661  28.364   8.216  1.00  0.00     0.012 C 
ENDBRANCH  16  38
BRANCH  18  41
HETATM   41  C   UNL     1      32.951  29.071   1.546  1.00  0.00     0.016 C 
HETATM   42  C   UNL     1      33.019  30.574   1.290  1.00  0.00     0.012 C 
HETATM   43  C   UNL     1      32.417  28.339   0.317  1.00  0.00     0.012 C 
ENDBRANCH  18  41
BRANCH  15  44
HETATM   44  C   UNL     1      30.858  32.208   5.738  1.00  0.00     0.010 C 
HETATM   45  C   UNL     1      29.392  31.932   6.060  1.00  0.00     0.012 C 
HETATM   46  C   UNL     1      31.009  32.722   4.309  1.00  0.00     0.012 C 
ENDBRANCH  15  44
TORSDOF 7
ENDMDL
MODEL 3
REMARK VINA RESULT:    -6.861      2.005      3.937
REMARK INTER + INTRA:          -8.108
REMARK INTER:                  -8.961
REMARK INTRA:                   0.854
REMARK UNBOUND:                 1.561
REMARK  7 active torsions:
REMARK  status: ('A' for Active; 'I' for Inactive)
REMARK    1  A    between atoms: C_13  and  C_14 
REMARK    2  A    between atoms: C_14  and  C_19 
REMARK    3  A    between atoms: C_15  and  C_20 
REMARK    4  A    between atoms: C_16  and  C_21 
REMARK    5  A    between atoms: C_17  and  C_23 
REMARK    6  A    between atoms: C_18  and  C_26 
REMARK    7  A    between atoms: C_22  and  C_28 
ROOT
HETATM    1  O   UNL     1      33.068  30.429   7.155  1.00  0.00    -0.304 OA
HETATM    2  O   UNL     1      30.437  26.970   4.257  1.00  0.00    -0.304 OA
HETATM    3  O   UNL     1      30.214  26.506   8.956  1.00  0.00    -0.304 OA
HETATM    4  O   UNL     1      33.370  28.209   4.514  1.00  0.00    -0.270 OA
HETATM    5  O   UNL     1      30.796  30.435   6.762  1.00  0.00    -0.263 OA
HETATM    6  O   UNL     1      33.219  27.857   7.435  1.00  0.00    -0.270 OA
HETATM    7  O   UNL     1      28.871  24.324   6.970  1.00  0.00    -0.270 OA
HETATM    8  O   UNL     1      29.124  26.197   2.537  1.00  0.00    -0.263 OA
HETATM    9  O   UNL     1      31.163  24.412   8.847  1.00  0.00    -0.263 OA
HETATM   10  N   UNL     1      31.653  29.727   4.146  1.00  0.00    -0.340 N 
HETATM   11  N   UNL     1      32.441  27.742   9.610  1.00  0.00    -0.340 N 
HETATM   12  N   UNL     1      28.616  26.492   6.166  1.00  0.00    -0.340 N 
HETATM   13  C   UNL     1      32.363  30.759   4.929  1.00  0.00     0.190 C 
HETATM   14  C   UNL     1      32.520  26.266   9.580  1.00  0.00     0.190 C 
HETATM   15  C   UNL     1      28.290  26.034   4.799  1.00  0.00     0.190 C 
HETATM   16  C   UNL     1      31.472  27.359   3.332  1.00  0.00     0.227 C 
HETATM   17  C   UNL     1      32.879  29.967   8.510  1.00  0.00     0.227 C 
HETATM   18  C   UNL     1      28.885  26.068   8.621  1.00  0.00     0.227 C 
HETATM   19  C   UNL     1      32.254  28.459   4.045  1.00  0.00     0.250 C 
HETATM   20  C   UNL     1      31.953  30.537   6.375  1.00  0.00     0.283 C 
HETATM   21  C   UNL     1      32.859  28.436   8.465  1.00  0.00     0.250 C 
HETATM   22  C   UNL     1      28.800  25.539   7.182  1.00  0.00     0.250 C 
HETATM   23  C   UNL     1      29.311  26.414   3.731  1.00  0.00     0.283 C 
HETATM   24  C   UNL     1      31.235  25.615   9.072  1.00  0.00     0.283 C 
HETATM   25  C   UNL     1      30.357  30.082   3.560  1.00  0.00     0.153 C 
HETATM   26  C   UNL     1      31.899  28.375  10.815  1.00  0.00     0.153 C 
HETATM   27  C   UNL     1      28.553  27.930   6.430  1.00  0.00     0.153 C 
ENDROOT
BRANCH  17  28
HETATM   28  C   UNL     1      34.071  30.465   9.316  1.00  0.00     0.016 C 
HETATM   29  C   UNL     1      35.272  30.714   8.404  1.00  0.00     0.012 C 
HETATM   30  C   UNL     1      33.710  31.735  10.084  1.00  0.00     0.012 C 
ENDBRANCH  17  28
BRANCH  13  31
HETATM   31  C   UNL     1      32.099  32.205   4.522  1.00  0.00     0.014 C 
HETATM   32  C   UNL     1      32.662  33.153   5.582  1.00  0.00     0.012 C 
BRANCH  31  33
HETATM   33  C   UNL     1      32.687  32.474   3.126  1.00  0.00     0.002 C 
HETATM   34  C   UNL     1      34.200  32.647   3.122  1.00  0.00     0.005 C 
ENDBRANCH  31  33
ENDBRANCH  13  31
BRANCH  14  35
HETATM   35  C   UNL     1      32.917  25.644  10.919  1.00  0.00     0.010 C 
HETATM   36  C   UNL     1      31.767  24.821  11.495  1.00  0.00     0.012 C 
HETATM   37  C   UNL     1      34.167  24.779  10.763  1.00  0.00     0.012 C 
ENDBRANCH  14  35
BRANCH  16  38
HETATM   38  C   UNL     1      32.348  26.144   3.038  1.00  0.00     0.016 C 
HETATM   39  C   UNL     1      32.160  25.681   1.594  1.00  0.00     0.012 C 
HETATM   40  C   UNL     1      32.037  25.007   4.010  1.00  0.00     0.012 C 
ENDBRANCH  16  38
BRANCH  18  41
HETATM   41  C   UNL     1      28.339  25.076   9.648  1.00  0.00     0.016 C 
HETATM   42  C   UNL     1      26.860  24.796   9.389  1.00  0.00     0.012 C 
HETATM   43  C   UNL     1      28.546  25.603  11.066  1.00  0.00     0.012 C 
ENDBRANCH  18  41
BRANCH  15  44
HETATM   44  C   UNL     1      26.887  26.480   4.384  1.00  0.00     0.010 C 
HETATM   45  C   UNL     1      25.904  26.297   5.537  1.00  0.00     0.012 C 
HETATM   46  C   UNL     1      26.424  25.707   3.153  1.00  0.00     0.012 C 
ENDBRANCH  15  44
TORSDOF 7
ENDMDL
MODEL 4
REMARK VINA RESULT:    -6.820      1.640      2.208
REMARK INTER + INTRA:          -8.050
REMARK INTER:                  -9.366
REMARK INTRA:                   1.316
REMARK UNBOUND:                 1.561
REMARK  7 active torsions:
REMARK  status: ('A' for Active; 'I' for Inactive)
REMARK    1  A    between atoms: C_13  and  C_14 
REMARK    2  A    between atoms: C_14  and  C_19 
REMARK    3  A    between atoms: C_15  and  C_20 
REMARK    4  A    between atoms: C_16  and  C_21 
REMARK    5  A    between atoms: C_17  and  C_23 
REMARK    6  A    between atoms: C_18  and  C_26 
REMARK    7  A    between atoms: C_22  and  C_28 
ROOT
HETATM    1  O   UNL     1      32.820  27.432   8.980  1.00  0.00    -0.304 OA
HETATM    2  O   UNL     1      31.561  29.743   4.467  1.00  0.00    -0.304 OA
HETATM    3  O   UNL     1      28.632  26.419   6.115  1.00  0.00    -0.304 OA
HETATM    4  O   UNL     1      34.031  28.254   5.840  1.00  0.00    -0.270 OA
HETATM    5  O   UNL     1      31.240  29.088   8.696  1.00  0.00    -0.263 OA
HETATM    6  O   UNL     1      32.186  26.171   6.807  1.00  0.00    -0.270 OA
HETATM    7  O   UNL     1      28.177  27.795   3.215  1.00  0.00    -0.270 OA
HETATM    8  O   UNL     1      31.307  31.449   2.949  1.00  0.00    -0.263 OA
HETATM    9  O   UNL     1      28.960  25.125   4.239  1.00  0.00    -0.263 OA
HETATM   10  N   UNL     1      33.228  30.128   6.950  1.00  0.00    -0.340 N 
HETATM   11  N   UNL     1      30.317  25.079   7.625  1.00  0.00    -0.340 N 
HETATM   12  N   UNL     1      28.931  29.333   4.789  1.00  0.00    -0.340 N 
HETATM   13  C   UNL     1      33.591  29.541   8.257  1.00  0.00     0.190 C 
HETATM   14  C   UNL     1      30.054  24.492   6.293  1.00  0.00     0.190 C 
HETATM   15  C   UNL     1      29.334  30.312   3.759  1.00  0.00     0.190 C 
HETATM   16  C   UNL     1      32.992  29.909   4.460  1.00  0.00     0.227 C 
HETATM   17  C   UNL     1      31.800  26.425   9.154  1.00  0.00     0.227 C 
HETATM   18  C   UNL     1      27.664  27.292   5.507  1.00  0.00     0.227 C 
HETATM   19  C   UNL     1      33.467  29.354   5.800  1.00  0.00     0.250 C 
HETATM   20  C   UNL     1      32.399  28.695   8.675  1.00  0.00     0.283 C 
HETATM   21  C   UNL     1      31.454  25.889   7.762  1.00  0.00     0.250 C 
HETATM   22  C   UNL     1      28.284  28.149   4.393  1.00  0.00     0.250 C 
HETATM   23  C   UNL     1      30.834  30.584   3.680  1.00  0.00     0.283 C 
HETATM   24  C   UNL     1      29.170  25.380   5.420  1.00  0.00     0.283 C 
HETATM   25  C   UNL     1      32.611  31.458   6.944  1.00  0.00     0.153 C 
HETATM   26  C   UNL     1      29.356  24.806   8.696  1.00  0.00     0.153 C 
HETATM   27  C   UNL     1      29.066  29.731   6.191  1.00  0.00     0.153 C 
ENDROOT
BRANCH  17  28
HETATM   28  C   UNL     1      32.408  25.328  10.017  1.00  0.00     0.016 C 
HETATM   29  C   UNL     1      33.909  25.553  10.197  1.00  0.00     0.012 C 
HETATM   30  C   UNL     1      31.710  25.259  11.374  1.00  0.00     0.012 C 
ENDBRANCH  17  28
BRANCH  13  31
HETATM   31  C   UNL     1      33.945  30.533   9.359  1.00  0.00     0.014 C 
HETATM   32  C   UNL     1      33.799  29.864  10.727  1.00  0.00     0.012 C 
BRANCH  31  33
HETATM   33  C   UNL     1      35.361  31.090   9.129  1.00  0.00     0.002 C 
HETATM   34  C   UNL     1      36.053  31.549  10.405  1.00  0.00     0.005 C 
ENDBRANCH  31  33
ENDBRANCH  13  31
BRANCH  14  35
HETATM   35  C   UNL     1      29.472  23.080   6.347  1.00  0.00     0.010 C 
HETATM   36  C   UNL     1      29.067  22.609   4.952  1.00  0.00     0.012 C 
HETATM   37  C   UNL     1      30.472  22.107   6.970  1.00  0.00     0.012 C 
ENDBRANCH  14  35
BRANCH  16  38
HETATM   38  C   UNL     1      33.571  29.123   3.287  1.00  0.00     0.016 C 
HETATM   39  C   UNL     1      34.137  30.070   2.230  1.00  0.00     0.012 C 
HETATM   40  C   UNL     1      32.510  28.210   2.674  1.00  0.00     0.012 C 
ENDBRANCH  16  38
BRANCH  18  41
HETATM   41  C   UNL     1      26.423  26.530   5.043  1.00  0.00     0.016 C 
HETATM   42  C   UNL     1      25.587  27.390   4.099  1.00  0.00     0.012 C 
HETATM   43  C   UNL     1      25.589  26.083   6.242  1.00  0.00     0.012 C 
ENDBRANCH  18  41
BRANCH  15  44
HETATM   44  C   UNL     1      28.559  31.622   3.903  1.00  0.00     0.010 C 
HETATM   45  C   UNL     1      28.031  32.083   2.548  1.00  0.00     0.012 C 
HETATM   46  C   UNL     1      29.440  32.697   4.533  1.00  0.00     0.012 C 
ENDBRANCH  15  44
TORSDOF 7
ENDMDL
MODEL 5
REMARK VINA RESULT:    -6.784      2.286      6.971
REMARK INTER + INTRA:          -8.000
REMARK INTER:                  -8.795
REMARK INTRA:                   0.796
REMARK UNBOUND:                 1.561
REMARK  7 active torsions:
REMARK  status: ('A' for Active; 'I' for Inactive)
REMARK    1  A    between atoms: C_13  and  C_14 
REMARK    2  A    between atoms: C_14  and  C_19 
REMARK    3  A    between atoms: C_15  and  C_20 
REMARK    4  A    between atoms: C_16  and  C_21 
REMARK    5  A    between atoms: C_17  and  C_23 
REMARK    6  A    between atoms: C_18  and  C_26 
REMARK    7  A    between atoms: C_22  and  C_28 
ROOT
HETATM    1  O   UNL     1      30.943  28.112   9.359  1.00  0.00    -0.304 OA
HETATM    2  O   UNL     1      28.927  26.296   4.896  1.00  0.00    -0.304 OA
HETATM    3  O   UNL     1      33.117  28.472   4.677  1.00  0.00    -0.304 OA
HETATM    4  O   UNL     1      28.101  28.126   7.380  1.00  0.00    -0.270 OA
HETATM    5  O   UNL     1      31.571  26.177   8.273  1.00  0.00    -0.263 OA
HETATM    6  O   UNL     1      30.700  29.497   7.183  1.00  0.00    -0.270 OA
HETATM    7  O   UNL     1      31.569  27.499   2.000  1.00  0.00    -0.270 OA
HETATM    8  O   UNL     1      27.836  24.842   3.491  1.00  0.00    -0.263 OA
HETATM    9  O   UNL     1      32.266  30.085   3.271  1.00  0.00    -0.263 OA
HETATM   10  N   UNL     1      28.763  25.960   7.888  1.00  0.00    -0.340 N 
HETATM   11  N   UNL     1      32.947  29.940   6.852  1.00  0.00    -0.340 N 
HETATM   12  N   UNL     1      31.324  25.974   3.740  1.00  0.00    -0.340 N 
HETATM   13  C   UNL     1      29.324  26.407   9.179  1.00  0.00     0.190 C 
HETATM   14  C   UNL     1      32.642  30.643   5.588  1.00  0.00     0.190 C 
HETATM   15  C   UNL     1      30.175  25.302   3.097  1.00  0.00     0.190 C 
HETATM   16  C   UNL     1      27.726  26.500   5.666  1.00  0.00     0.227 C 
HETATM   17  C   UNL     1      32.151  28.790   8.949  1.00  0.00     0.227 C 
HETATM   18  C   UNL     1      33.318  27.489   3.646  1.00  0.00     0.227 C 
HETATM   19  C   UNL     1      28.205  26.940   7.047  1.00  0.00     0.250 C 
HETATM   20  C   UNL     1      30.748  26.848   8.882  1.00  0.00     0.283 C 
HETATM   21  C   UNL     1      31.866  29.432   7.588  1.00  0.00     0.250 C 
HETATM   22  C   UNL     1      31.989  27.002   3.050  1.00  0.00     0.250 C 
HETATM   23  C   UNL     1      28.851  25.433   3.845  1.00  0.00     0.283 C 
HETATM   24  C   UNL     1      32.634  29.709   4.379  1.00  0.00     0.283 C 
HETATM   25  C   UNL     1      28.859  24.535   7.555  1.00  0.00     0.153 C 
HETATM   26  C   UNL     1      34.354  29.790   7.231  1.00  0.00     0.153 C 
HETATM   27  C   UNL     1      31.825  25.407   4.993  1.00  0.00     0.153 C 
ENDROOT
BRANCH  17  28
HETATM   28  C   UNL     1      32.437  29.855   9.997  1.00  0.00     0.016 C 
HETATM   29  C   UNL     1      31.136  30.367  10.614  1.00  0.00     0.012 C 
HETATM   30  C   UNL     1      33.365  29.310  11.081  1.00  0.00     0.012 C 
ENDBRANCH  17  28
BRANCH  13  31
HETATM   31  C   UNL     1      29.317  25.376  10.303  1.00  0.00     0.014 C 
HETATM   32  C   UNL     1      30.534  25.583  11.206  1.00  0.00     0.012 C 
BRANCH  31  33
HETATM   33  C   UNL     1      27.991  25.457  11.081  1.00  0.00     0.002 C 
HETATM   34  C   UNL     1      26.984  24.385  10.689  1.00  0.00     0.005 C 
ENDBRANCH  31  33
ENDBRANCH  13  31
BRANCH  14  35
HETATM   35  C   UNL     1      33.557  31.836   5.310  1.00  0.00     0.010 C 
HETATM   36  C   UNL     1      34.418  31.580   4.076  1.00  0.00     0.012 C 
HETATM   37  C   UNL     1      32.738  33.115   5.136  1.00  0.00     0.012 C 
ENDBRANCH  14  35
BRANCH  16  38
HETATM   38  C   UNL     1      26.887  27.581   4.989  1.00  0.00     0.016 C 
HETATM   39  C   UNL     1      25.597  26.988   4.426  1.00  0.00     0.012 C 
HETATM   40  C   UNL     1      27.686  28.270   3.884  1.00  0.00     0.012 C 
ENDBRANCH  16  38
BRANCH  18  41
HETATM   41  C   UNL     1      34.300  27.976   2.580  1.00  0.00     0.016 C 
HETATM   42  C   UNL     1      34.534  26.892   1.531  1.00  0.00     0.012 C 
HETATM   43  C   UNL     1      35.620  28.398   3.220  1.00  0.00     0.012 C 
ENDBRANCH  18  41
BRANCH  15  44
HETATM   44  C   UNL     1      30.483  23.833   2.805  1.00  0.00     0.010 C 
HETATM   45  C   UNL     1      30.558  23.035   4.104  1.00  0.00     0.012 C 
HETATM   46  C   UNL     1      31.783  23.706   2.017  1.00  0.00     0.012 C 
ENDBRANCH  15  44
TORSDOF 7
ENDMDL
MODEL 6
REMARK VINA RESULT:    -6.416      2.578      6.712
REMARK INTER + INTRA:          -7.481
REMARK INTER:                  -8.459
REMARK INTRA:                   0.978
REMARK UNBOUND:                 1.561
REMARK  7 active torsions:
REMARK  status: ('A' for Active; 'I' for Inactive)
REMARK    1  A    between atoms: C_13  and  C_14 
REMARK    2  A    between atoms: C_14  and  C_19 
REMARK    3  A    between atoms: C_15  and  C_20 
REMARK    4  A    between atoms: C_16  and  C_21 
REMARK    5  A    between atoms: C_17  and  C_23 
REMARK    6  A    between atoms: C_18  and  C_26 
REMARK    7  A    between atoms: C_22  and  C_28 
ROOT
HETATM    1  O   UNL     1      31.574  26.354   2.350  1.00  0.00    -0.304 OA
HETATM    2  O   UNL     1      32.360  29.720   6.266  1.00  0.00    -0.304 OA
HETATM    3  O   UNL     1      29.063  26.388   6.875  1.00  0.00    -0.304 OA
HETATM    4  O   UNL     1      31.784  29.723   3.124  1.00  0.00    -0.270 OA
HETATM    5  O   UNL     1      32.760  25.936   4.283  1.00  0.00    -0.263 OA
HETATM    6  O   UNL     1      29.700  27.685   3.546  1.00  0.00    -0.270 OA
HETATM    7  O   UNL     1      29.535  28.729   9.067  1.00  0.00    -0.270 OA
HETATM    8  O   UNL     1      33.537  31.052   7.723  1.00  0.00    -0.263 OA
HETATM    9  O   UNL     1      27.422  27.983   7.126  1.00  0.00    -0.263 OA
HETATM   10  N   UNL     1      33.686  28.582   3.809  1.00  0.00    -0.340 N 
HETATM   11  N   UNL     1      28.511  25.873   4.356  1.00  0.00    -0.340 N 
HETATM   12  N   UNL     1      31.541  27.994   8.147  1.00  0.00    -0.340 N 
HETATM   13  C   UNL     1      33.536  27.615   2.701  1.00  0.00     0.190 C 
HETATM   14  C   UNL     1      27.563  26.778   5.041  1.00  0.00     0.190 C 
HETATM   15  C   UNL     1      32.283  29.186   8.610  1.00  0.00     0.190 C 
HETATM   16  C   UNL     1      32.795  30.512   5.144  1.00  0.00     0.227 C 
HETATM   17  C   UNL     1      30.465  25.545   2.800  1.00  0.00     0.227 C 
HETATM   18  C   UNL     1      29.546  26.479   8.227  1.00  0.00     0.227 C 
HETATM   19  C   UNL     1      32.705  29.582   3.937  1.00  0.00     0.250 C 
HETATM   20  C   UNL     1      32.610  26.529   3.223  1.00  0.00     0.283 C 
HETATM   21  C   UNL     1      29.534  26.461   3.598  1.00  0.00     0.250 C 
HETATM   22  C   UNL     1      30.193  27.842   8.515  1.00  0.00     0.250 C 
HETATM   23  C   UNL     1      32.813  30.087   7.497  1.00  0.00     0.283 C 
HETATM   24  C   UNL     1      28.007  27.137   6.457  1.00  0.00     0.283 C 
HETATM   25  C   UNL     1      34.823  28.411   4.718  1.00  0.00     0.153 C 
HETATM   26  C   UNL     1      28.339  24.431   4.544  1.00  0.00     0.153 C 
HETATM   27  C   UNL     1      32.304  26.940   7.477  1.00  0.00     0.153 C 
ENDROOT
BRANCH  17  28
HETATM   28  C   UNL     1      29.766  25.022   1.554  1.00  0.00     0.016 C 
HETATM   29  C   UNL     1      28.999  26.144   0.856  1.00  0.00     0.012 C 
HETATM   30  C   UNL     1      30.774  24.387   0.596  1.00  0.00     0.012 C 
ENDBRANCH  17  28
BRANCH  13  31
HETATM   31  C   UNL     1      34.826  26.998   2.174  1.00  0.00     0.014 C 
HETATM   32  C   UNL     1      34.520  25.673   1.473  1.00  0.00     0.012 C 
BRANCH  31  33
HETATM   33  C   UNL     1      35.545  27.996   1.248  1.00  0.00     0.002 C 
HETATM   34  C   UNL     1      35.918  27.413  -0.108  1.00  0.00     0.005 C 
ENDBRANCH  31  33
ENDBRANCH  13  31
BRANCH  14  35
HETATM   35  C   UNL     1      26.126  26.257   5.069  1.00  0.00     0.010 C 
HETATM   36  C   UNL     1      25.593  26.220   6.500  1.00  0.00     0.012 C 
HETATM   37  C   UNL     1      25.223  27.116   4.185  1.00  0.00     0.012 C 
ENDBRANCH  14  35
BRANCH  16  38
HETATM   38  C   UNL     1      31.864  31.713   5.001  1.00  0.00     0.016 C 
HETATM   39  C   UNL     1      32.617  33.015   5.265  1.00  0.00     0.012 C 
HETATM   40  C   UNL     1      30.670  31.584   5.946  1.00  0.00     0.012 C 
ENDBRANCH  16  38
BRANCH  18  41
HETATM   41  C   UNL     1      28.464  26.113   9.242  1.00  0.00     0.016 C 
HETATM   42  C   UNL     1      29.073  25.916  10.628  1.00  0.00     0.012 C 
HETATM   43  C   UNL     1      27.716  24.857   8.800  1.00  0.00     0.012 C 
ENDBRANCH  18  41
BRANCH  15  44
HETATM   44  C   UNL     1      33.409  28.801   9.570  1.00  0.00     0.010 C 
HETATM   45  C   UNL     1      33.425  29.735  10.777  1.00  0.00     0.012 C 
HETATM   46  C   UNL     1      34.755  28.826   8.851  1.00  0.00     0.012 C 
ENDBRANCH  15  44
TORSDOF 7
ENDMDL
MODEL 7
REMARK VINA RESULT:    -6.142      2.246      4.030
REMARK INTER + INTRA:          -7.095
REMARK INTER:                  -7.714
REMARK INTRA:                   0.619
REMARK UNBOUND:                 1.561
REMARK  7 active torsions:
REMARK  status: ('A' for Active; 'I' for Inactive)
REMARK    1  A    between atoms: C_13  and  C_14 
REMARK    2  A    between atoms: C_14  and  C_19 
REMARK    3  A    between atoms: C_15  and  C_20 
REMARK    4  A    between atoms: C_16  and  C_21 
REMARK    5  A    between atoms: C_17  and  C_23 
REMARK    6  A    between atoms: C_18  and  C_26 
REMARK    7  A    between atoms: C_22  and  C_28 
ROOT
HETATM    1  O   UNL     1      30.887  27.338   8.440  1.00  0.00    -0.304 OA
HETATM    2  O   UNL     1      32.273  29.807   4.050  1.00  0.00    -0.304 OA
HETATM    3  O   UNL     1      28.100  27.587   4.088  1.00  0.00    -0.304 OA
HETATM    4  O   UNL     1      33.435  27.667   6.117  1.00  0.00    -0.270 OA
HETATM    5  O   UNL     1      30.111  29.391   7.733  1.00  0.00    -0.263 OA
HETATM    6  O   UNL     1      30.838  26.277   6.076  1.00  0.00    -0.270 OA
HETATM    7  O   UNL     1      29.266  28.961   1.393  1.00  0.00    -0.270 OA
HETATM    8  O   UNL     1      33.157  31.468   2.732  1.00  0.00    -0.263 OA
HETATM    9  O   UNL     1      28.758  26.207   2.367  1.00  0.00    -0.263 OA
HETATM   10  N   UNL     1      32.840  29.724   7.010  1.00  0.00    -0.340 N 
HETATM   11  N   UNL     1      28.569  25.833   5.990  1.00  0.00    -0.340 N 
HETATM   12  N   UNL     1      29.739  30.233   3.283  1.00  0.00    -0.340 N 
HETATM   13  C   UNL     1      32.461  29.089   8.289  1.00  0.00     0.190 C 
HETATM   14  C   UNL     1      28.702  25.322   4.609  1.00  0.00     0.190 C 
HETATM   15  C   UNL     1      30.787  31.014   2.594  1.00  0.00     0.190 C 
HETATM   16  C   UNL     1      33.567  29.525   4.616  1.00  0.00     0.227 C 
HETATM   17  C   UNL     1      29.638  26.697   8.103  1.00  0.00     0.227 C 
HETATM   18  C   UNL     1      27.756  28.700   3.243  1.00  0.00     0.227 C 
HETATM   19  C   UNL     1      33.282  28.885   5.972  1.00  0.00     0.250 C 
HETATM   20  C   UNL     1      31.012  28.661   8.125  1.00  0.00     0.283 C 
HETATM   21  C   UNL     1      29.738  26.258   6.639  1.00  0.00     0.250 C 
HETATM   22  C   UNL     1      28.991  29.296   2.550  1.00  0.00     0.250 C 
HETATM   23  C   UNL     1      32.201  30.810   3.131  1.00  0.00     0.283 C 
HETATM   24  C   UNL     1      28.542  26.416   3.556  1.00  0.00     0.283 C 
HETATM   25  C   UNL     1      32.694  31.179   6.899  1.00  0.00     0.153 C 
HETATM   26  C   UNL     1      27.226  25.896   6.571  1.00  0.00     0.153 C 
HETATM   27  C   UNL     1      29.411  30.607   4.659  1.00  0.00     0.153 C 
ENDROOT
BRANCH  17  28
HETATM   28  C   UNL     1      29.501  25.489   9.018  1.00  0.00     0.016 C 
HETATM   29  C   UNL     1      30.851  25.123   9.634  1.00  0.00     0.012 C 
HETATM   30  C   UNL     1      28.468  25.755  10.113  1.00  0.00     0.012 C 
ENDBRANCH  17  28
BRANCH  13  31
HETATM   31  C   UNL     1      32.617  29.952   9.536  1.00  0.00     0.014 C 
HETATM   32  C   UNL     1      31.867  29.314  10.707  1.00  0.00     0.012 C 
BRANCH  31  33
HETATM   33  C   UNL     1      34.110  30.163   9.845  1.00  0.00     0.002 C 
HETATM   34  C   UNL     1      34.470  31.606  10.168  1.00  0.00     0.005 C 
ENDBRANCH  31  33
ENDBRANCH  13  31
BRANCH  14  35
HETATM   35  C   UNL     1      27.763  24.159   4.291  1.00  0.00     0.010 C 
HETATM   36  C   UNL     1      26.721  24.575   3.255  1.00  0.00     0.012 C 
HETATM   37  C   UNL     1      28.552  22.946   3.798  1.00  0.00     0.012 C 
ENDBRANCH  14  35
BRANCH  16  38
HETATM   38  C   UNL     1      34.311  28.569   3.686  1.00  0.00     0.016 C 
HETATM   39  C   UNL     1      35.520  29.259   3.058  1.00  0.00     0.012 C 
HETATM   40  C   UNL     1      33.376  28.035   2.602  1.00  0.00     0.012 C 
ENDBRANCH  16  38
BRANCH  18  41
HETATM   41  C   UNL     1      26.641  28.344   2.260  1.00  0.00     0.016 C 
HETATM   42  C   UNL     1      26.235  29.569   1.443  1.00  0.00     0.012 C 
HETATM   43  C   UNL     1      25.436  27.770   3.001  1.00  0.00     0.012 C 
ENDBRANCH  18  41
BRANCH  15  44
HETATM   44  C   UNL     1      30.438  32.502   2.557  1.00  0.00     0.010 C 
HETATM   45  C   UNL     1      30.661  33.069   1.158  1.00  0.00     0.012 C 
HETATM   46  C   UNL     1      31.261  33.269   3.588  1.00  0.00     0.012 C 
ENDBRANCH  15  44
TORSDOF 7
ENDMDL
MODEL 8
REMARK VINA RESULT:    -6.077      3.184      7.185
REMARK INTER + INTRA:          -7.003
REMARK INTER:                  -8.072
REMARK INTRA:                   1.069
REMARK UNBOUND:                 1.561
REMARK  7 active torsions:
REMARK  status: ('A' for Active; 'I' for Inactive)
REMARK    1  A    between atoms: C_13  and  C_14 
REMARK    2  A    between atoms: C_14  and  C_19 
REMARK    3  A    between atoms: C_15  and  C_20 
REMARK    4  A    between atoms: C_16  and  C_21 
REMARK    5  A    between atoms: C_17  and  C_23 
REMARK    6  A    between atoms: C_18  and  C_26 
REMARK    7  A    between atoms: C_22  and  C_28 
ROOT
HETATM    1  O   UNL     1      33.615  27.849   2.326  1.00  0.00    -0.304 OA
HETATM    2  O   UNL     1      29.901  24.584   4.009  1.00  0.00    -0.304 OA
HETATM    3  O   UNL     1      30.972  28.280   6.754  1.00  0.00    -0.304 OA
HETATM    4  O   UNL     1      32.905  24.513   2.925  1.00  0.00    -0.270 OA
HETATM    5  O   UNL     1      31.341  28.215   2.232  1.00  0.00    -0.263 OA
HETATM    6  O   UNL     1      33.552  26.783   4.687  1.00  0.00    -0.270 OA
HETATM    7  O   UNL     1      28.886  25.996   7.722  1.00  0.00    -0.270 OA
HETATM    8  O   UNL     1      28.076  23.194   3.886  1.00  0.00    -0.263 OA
HETATM    9  O   UNL     1      31.612  26.887   8.471  1.00  0.00    -0.263 OA
HETATM   10  N   UNL     1      31.335  25.466   1.507  1.00  0.00    -0.340 N 
HETATM   11  N   UNL     1      33.416  28.746   5.903  1.00  0.00    -0.340 N 
HETATM   12  N   UNL     1      28.656  26.467   5.455  1.00  0.00    -0.340 N 
HETATM   13  C   UNL     1      32.348  26.396   0.967  1.00  0.00     0.190 C 
HETATM   14  C   UNL     1      33.319  27.980   7.164  1.00  0.00     0.190 C 
HETATM   15  C   UNL     1      27.906  25.222   5.190  1.00  0.00     0.190 C 
HETATM   16  C   UNL     1      30.667  23.703   3.164  1.00  0.00     0.227 C 
HETATM   17  C   UNL     1      33.769  28.793   3.408  1.00  0.00     0.227 C 
HETATM   18  C   UNL     1      29.563  28.194   7.030  1.00  0.00     0.227 C 
HETATM   19  C   UNL     1      31.736  24.586   2.528  1.00  0.00     0.250 C 
HETATM   20  C   UNL     1      32.343  27.598   1.897  1.00  0.00     0.283 C 
HETATM   21  C   UNL     1      33.567  28.018   4.713  1.00  0.00     0.250 C 
HETATM   22  C   UNL     1      29.014  26.781   6.778  1.00  0.00     0.250 C 
HETATM   23  C   UNL     1      28.617  24.222   4.281  1.00  0.00     0.283 C 
HETATM   24  C   UNL     1      31.879  27.634   7.536  1.00  0.00     0.283 C 
HETATM   25  C   UNL     1      29.973  25.550   0.969  1.00  0.00     0.153 C 
HETATM   26  C   UNL     1      33.313  30.205   5.978  1.00  0.00     0.153 C 
HETATM   27  C   UNL     1      28.831  27.402   4.343  1.00  0.00     0.153 C 
ENDROOT
BRANCH  17  28
HETATM   28  C   UNL     1      35.188  29.336   3.321  1.00  0.00     0.016 C 
HETATM   29  C   UNL     1      36.070  28.410   2.484  1.00  0.00     0.012 C 
HETATM   30  C   UNL     1      35.191  30.748   2.737  1.00  0.00     0.012 C 
ENDBRANCH  17  28
BRANCH  13  31
HETATM   31  C   UNL     1      32.142  26.845  -0.475  1.00  0.00     0.014 C 
HETATM   32  C   UNL     1      32.917  28.139  -0.732  1.00  0.00     0.012 C 
BRANCH  31  33
HETATM   33  C   UNL     1      32.551  25.718  -1.440  1.00  0.00     0.002 C 
HETATM   34  C   UNL     1      31.544  25.471  -2.554  1.00  0.00     0.005 C 
ENDBRANCH  31  33
ENDBRANCH  13  31
BRANCH  14  35
HETATM   35  C   UNL     1      34.008  28.656   8.349  1.00  0.00     0.010 C 
HETATM   36  C   UNL     1      33.870  27.806   9.611  1.00  0.00     0.012 C 
HETATM   37  C   UNL     1      35.482  28.918   8.040  1.00  0.00     0.012 C 
ENDBRANCH  14  35
BRANCH  16  38
HETATM   38  C   UNL     1      31.282  22.607   4.030  1.00  0.00     0.016 C 
HETATM   39  C   UNL     1      30.693  21.243   3.672  1.00  0.00     0.012 C 
HETATM   40  C   UNL     1      31.071  22.909   5.512  1.00  0.00     0.012 C 
ENDBRANCH  16  38
BRANCH  18  41
HETATM   41  C   UNL     1      29.224  28.718   8.425  1.00  0.00     0.016 C 
HETATM   42  C   UNL     1      27.711  28.787   8.620  1.00  0.00     0.012 C 
HETATM   43  C   UNL     1      29.857  30.089   8.651  1.00  0.00     0.012 C 
ENDBRANCH  18  41
BRANCH  15  44
HETATM   44  C   UNL     1      26.502  25.521   4.662  1.00  0.00     0.010 C 
HETATM   45  C   UNL     1      26.577  26.204   3.300  1.00  0.00     0.012 C 
HETATM   46  C   UNL     1      25.731  26.385   5.656  1.00  0.00     0.012 C 
ENDBRANCH  15  44
TORSDOF 7
ENDMDL
MODEL 9
REMARK VINA RESULT:    -5.985      2.601      6.318
REMARK INTER + INTRA:          -6.873
REMARK INTER:                  -7.677
REMARK INTRA:                   0.804
REMARK UNBOUND:                 1.561
REMARK  7 active torsions:
REMARK  status: ('A' for Active; 'I' for Inactive)
REMARK    1  A    between atoms: C_13  and  C_14 
REMARK    2  A    between atoms: C_14  and  C_19 
REMARK    3  A    between atoms: C_15  and  C_20 
REMARK    4  A    between atoms: C_16  and  C_21 
REMARK    5  A    between atoms: C_17  and  C_23 
REMARK    6  A    between atoms: C_18  and  C_26 
REMARK    7  A    between atoms: C_22  and  C_28 
ROOT
HETATM    1  O   UNL     1      33.179  27.160   2.250  1.00  0.00    -0.304 OA
HETATM    2  O   UNL     1      31.010  29.567   6.348  1.00  0.00    -0.304 OA
HETATM    3  O   UNL     1      30.822  24.845   6.233  1.00  0.00    -0.304 OA
HETATM    4  O   UNL     1      30.949  29.651   3.155  1.00  0.00    -0.270 OA
HETATM    5  O   UNL     1      34.100  27.357   4.355  1.00  0.00    -0.263 OA
HETATM    6  O   UNL     1      30.779  26.711   3.121  1.00  0.00    -0.270 OA
HETATM    7  O   UNL     1      29.320  26.547   8.547  1.00  0.00    -0.270 OA
HETATM    8  O   UNL     1      30.789  31.108   8.038  1.00  0.00    -0.263 OA
HETATM    9  O   UNL     1      28.520  24.884   6.228  1.00  0.00    -0.263 OA
HETATM   10  N   UNL     1      33.024  29.979   4.142  1.00  0.00    -0.340 N 
HETATM   11  N   UNL     1      31.059  24.474   3.641  1.00  0.00    -0.340 N 
HETATM   12  N   UNL     1      31.377  27.480   7.990  1.00  0.00    -0.340 N 
HETATM   13  C   UNL     1      33.700  29.336   2.996  1.00  0.00     0.190 C 
HETATM   14  C   UNL     1      29.679  24.404   4.168  1.00  0.00     0.190 C 
HETATM   15  C   UNL     1      31.050  28.777   8.619  1.00  0.00     0.190 C 
HETATM   16  C   UNL     1      30.914  30.602   5.350  1.00  0.00     0.227 C 
HETATM   17  C   UNL     1      32.875  25.764   2.463  1.00  0.00     0.227 C 
HETATM   18  C   UNL     1      30.955  25.032   7.654  1.00  0.00     0.227 C 
HETATM   19  C   UNL     1      31.619  30.040   4.119  1.00  0.00     0.250 C 
HETATM   20  C   UNL     1      33.709  27.847   3.304  1.00  0.00     0.283 C 
HETATM   21  C   UNL     1      31.486  25.697   3.104  1.00  0.00     0.250 C 
HETATM   22  C   UNL     1      30.463  26.417   8.098  1.00  0.00     0.250 C 
HETATM   23  C   UNL     1      30.948  29.954   7.652  1.00  0.00     0.283 C 
HETATM   24  C   UNL     1      29.595  24.753   5.652  1.00  0.00     0.283 C 
HETATM   25  C   UNL     1      33.860  30.475   5.240  1.00  0.00     0.153 C 
HETATM   26  C   UNL     1      31.895  23.276   3.749  1.00  0.00     0.153 C 
HETATM   27  C   UNL     1      32.723  27.315   7.439  1.00  0.00     0.153 C 
ENDROOT
BRANCH  17  28
HETATM   28  C   UNL     1      32.867  25.101   1.093  1.00  0.00     0.016 C 
HETATM   29  C   UNL     1      32.710  26.146  -0.011  1.00  0.00     0.012 C 
HETATM   30  C   UNL     1      34.142  24.285   0.880  1.00  0.00     0.012 C 
ENDBRANCH  17  28
BRANCH  13  31
HETATM   31  C   UNL     1      35.114  29.820   2.697  1.00  0.00     0.014 C 
HETATM   32  C   UNL     1      35.857  28.773   1.866  1.00  0.00     0.012 C 
BRANCH  31  33
HETATM   33  C   UNL     1      35.062  31.191   1.999  1.00  0.00     0.002 C 
HETATM   34  C   UNL     1      36.061  32.198   2.551  1.00  0.00     0.005 C 
ENDBRANCH  31  33
ENDBRANCH  13  31
BRANCH  14  35
HETATM   35  C   UNL     1      28.991  23.064   3.914  1.00  0.00     0.010 C 
HETATM   36  C   UNL     1      29.136  22.144   5.125  1.00  0.00     0.012 C 
HETATM   37  C   UNL     1      27.515  23.270   3.574  1.00  0.00     0.012 C 
ENDBRANCH  14  35
BRANCH  16  38
HETATM   38  C   UNL     1      29.438  30.883   5.076  1.00  0.00     0.016 C 
HETATM   39  C   UNL     1      29.029  32.234   5.658  1.00  0.00     0.012 C 
HETATM   40  C   UNL     1      28.563  29.768   5.646  1.00  0.00     0.012 C 
ENDBRANCH  16  38
BRANCH  18  41
HETATM   41  C   UNL     1      30.305  23.894   8.440  1.00  0.00     0.016 C 
HETATM   42  C   UNL     1      30.361  24.177   9.939  1.00  0.00     0.012 C 
HETATM   43  C   UNL     1      30.982  22.564   8.118  1.00  0.00     0.012 C 
ENDBRANCH  18  41
BRANCH  15  44
HETATM   44  C   UNL     1      32.018  29.102   9.758  1.00  0.00     0.010 C 
HETATM   45  C   UNL     1      32.168  27.903  10.690  1.00  0.00     0.012 C 
HETATM   46  C   UNL     1      31.540  30.328  10.530  1.00  0.00     0.012 C 
ENDBRANCH  15  44
TORSDOF 7
ENDMDL
MODEL 10
REMARK VINA RESULT:    -5.805      3.454      9.148
REMARK INTER + INTRA:          -6.620
REMARK INTER:                  -7.385
REMARK INTRA:                   0.764
REMARK UNBOUND:                 1.561
REMARK  7 active torsions:
REMARK  status: ('A' for Active; 'I' for Inactive)
REMARK    1  A    between atoms: C_13  and  C_14 
REMARK    2  A    between atoms: C_14  and  C_19 
REMARK    3  A    between atoms: C_15  and  C_20 
REMARK    4  A    between atoms: C_16  and  C_21 
REMARK    5  A    between atoms: C_17  and  C_23 
REMARK    6  A    between atoms: C_18  and  C_26 
REMARK    7  A    between atoms: C_22  and  C_28 
ROOT
HETATM    1  O   UNL     1      28.957  27.123   0.532  1.00  0.00    -0.304 OA
HETATM    2  O   UNL     1      29.100  25.361   5.448  1.00  0.00    -0.304 OA
HETATM    3  O   UNL     1      31.745  29.135   4.399  1.00  0.00    -0.304 OA
HETATM    4  O   UNL     1      29.441  24.286   2.460  1.00  0.00    -0.270 OA
HETATM    5  O   UNL     1      27.854  28.041   2.338  1.00  0.00    -0.263 OA
HETATM    6  O   UNL     1      31.129  26.623   1.855  1.00  0.00    -0.270 OA
HETATM    7  O   UNL     1      31.880  27.726   7.316  1.00  0.00    -0.270 OA
HETATM    8  O   UNL     1      28.302  24.501   7.424  1.00  0.00    -0.263 OA
HETATM    9  O   UNL     1      33.671  28.011   4.971  1.00  0.00    -0.263 OA
HETATM   10  N   UNL     1      27.413  25.301   2.950  1.00  0.00    -0.340 N 
HETATM   11  N   UNL     1      32.010  28.761   1.810  1.00  0.00    -0.340 N 
HETATM   12  N   UNL     1      29.711  27.761   6.476  1.00  0.00    -0.340 N 
HETATM   13  C   UNL     1      27.298  25.801   1.565  1.00  0.00     0.190 C 
HETATM   14  C   UNL     1      33.158  28.326   2.635  1.00  0.00     0.190 C 
HETATM   15  C   UNL     1      29.242  26.727   7.422  1.00  0.00     0.190 C 
HETATM   16  C   UNL     1      28.743  24.155   4.744  1.00  0.00     0.227 C 
HETATM   17  C   UNL     1      29.923  28.197   0.517  1.00  0.00     0.227 C 
HETATM   18  C   UNL     1      31.386  29.479   5.750  1.00  0.00     0.227 C 
HETATM   19  C   UNL     1      28.571  24.577   3.288  1.00  0.00     0.250 C 
HETATM   20  C   UNL     1      28.038  27.129   1.542  1.00  0.00     0.283 C 
HETATM   21  C   UNL     1      31.065  27.790   1.452  1.00  0.00     0.250 C 
HETATM   22  C   UNL     1      31.029  28.238   6.582  1.00  0.00     0.250 C 
HETATM   23  C   UNL     1      28.813  25.411   6.779  1.00  0.00     0.283 C 
HETATM   24  C   UNL     1      32.891  28.452   4.133  1.00  0.00     0.283 C 
HETATM   25  C   UNL     1      26.331  25.623   3.886  1.00  0.00     0.153 C 
HETATM   26  C   UNL     1      31.920  30.180   1.456  1.00  0.00     0.153 C 
HETATM   27  C   UNL     1      28.718  28.366   5.588  1.00  0.00     0.153 C 
ENDROOT
BRANCH  17  28
HETATM   28  C   UNL     1      30.420  28.321  -0.916  1.00  0.00     0.016 C 
HETATM   29  C   UNL     1      30.150  27.034  -1.694  1.00  0.00     0.012 C 
HETATM   30  C   UNL     1      29.768  29.515  -1.612  1.00  0.00     0.012 C 
ENDBRANCH  17  28
BRANCH  13  31
HETATM   31  C   UNL     1      25.880  25.980   1.034  1.00  0.00     0.014 C 
HETATM   32  C   UNL     1      25.882  26.976  -0.127  1.00  0.00     0.012 C 
BRANCH  31  33
HETATM   33  C   UNL     1      25.295  24.615   0.631  1.00  0.00     0.002 C 
HETATM   34  C   UNL     1      24.882  24.533  -0.832  1.00  0.00     0.005 C 
ENDBRANCH  31  33
ENDBRANCH  13  31
BRANCH  14  35
HETATM   35  C   UNL     1      34.469  29.029   2.285  1.00  0.00     0.010 C 
HETATM   36  C   UNL     1      34.832  30.059   3.353  1.00  0.00     0.012 C 
HETATM   37  C   UNL     1      35.599  28.013   2.116  1.00  0.00     0.012 C 
ENDBRANCH  14  35
BRANCH  16  38
HETATM   38  C   UNL     1      29.872  23.140   4.907  1.00  0.00     0.016 C 
HETATM   39  C   UNL     1      29.412  21.954   5.753  1.00  0.00     0.012 C 
HETATM   40  C   UNL     1      31.102  23.798   5.532  1.00  0.00     0.012 C 
ENDBRANCH  16  38
BRANCH  18  41
HETATM   41  C   UNL     1      32.449  30.350   6.417  1.00  0.00     0.016 C 
HETATM   42  C   UNL     1      32.084  30.622   7.874  1.00  0.00     0.012 C 
HETATM   43  C   UNL     1      32.624  31.662   5.653  1.00  0.00     0.012 C 
ENDBRANCH  18  41
BRANCH  15  44
HETATM   44  C   UNL     1      28.135  27.266   8.329  1.00  0.00     0.010 C 
HETATM   45  C   UNL     1      28.365  28.743   8.633  1.00  0.00     0.012 C 
HETATM   46  C   UNL     1      28.060  26.455   9.619  1.00  0.00     0.012 C 
ENDBRANCH  15  44
TORSDOF 7
ENDMDL
MODEL 11
REMARK VINA RESULT:    -5.739      3.325      7.804
REMARK INTER + INTRA:          -6.527
REMARK INTER:                  -7.705
REMARK INTRA:                   1.178
REMARK UNBOUND:                 1.561
REMARK  7 active torsions:
REMARK  status: ('A' for Active; 'I' for Inactive)
REMARK    1  A    between atoms: C_13  and  C_14 
REMARK    2  A    between atoms: C_14  and  C_19 
REMARK    3  A    between atoms: C_15  and  C_20 
REMARK    4  A    between atoms: C_16  and  C_21 
REMARK    5  A    between atoms: C_17  and  C_23 
REMARK    6  A    between atoms: C_18  and  C_26 
REMARK    7  A    between atoms: C_22  and  C_28 
ROOT
HETATM    1  O   UNL     1      33.824  25.730   2.180  1.00  0.00    -0.304 OA
HETATM    2  O   UNL     1      28.989  25.471   4.141  1.00  0.00    -0.304 OA
HETATM    3  O   UNL     1      31.445  29.439   4.893  1.00  0.00    -0.304 OA
HETATM    4  O   UNL     1      31.705  23.790   4.114  1.00  0.00    -0.270 OA
HETATM    5  O   UNL     1      31.943  26.724   1.291  1.00  0.00    -0.263 OA
HETATM    6  O   UNL     1      33.200  26.273   4.636  1.00  0.00    -0.270 OA
HETATM    7  O   UNL     1      28.532  28.967   6.234  1.00  0.00    -0.270 OA
HETATM    8  O   UNL     1      26.747  24.973   4.214  1.00  0.00    -0.263 OA
HETATM    9  O   UNL     1      31.339  29.136   7.172  1.00  0.00    -0.263 OA
HETATM   10  N   UNL     1      30.770  24.245   2.039  1.00  0.00    -0.340 N 
HETATM   11  N   UNL     1      33.882  28.484   4.640  1.00  0.00    -0.340 N 
HETATM   12  N   UNL     1      28.629  28.127   4.067  1.00  0.00    -0.340 N 
HETATM   13  C   UNL     1      32.110  24.300   1.419  1.00  0.00     0.190 C 
HETATM   14  C   UNL     1      33.406  28.648   6.030  1.00  0.00     0.190 C 
HETATM   15  C   UNL     1      27.423  27.293   4.250  1.00  0.00     0.190 C 
HETATM   16  C   UNL     1      29.329  24.072   4.087  1.00  0.00     0.227 C 
HETATM   17  C   UNL     1      34.327  26.998   2.654  1.00  0.00     0.227 C 
HETATM   18  C   UNL     1      30.129  30.007   4.772  1.00  0.00     0.227 C 
HETATM   19  C   UNL     1      30.704  24.018   3.425  1.00  0.00     0.250 C 
HETATM   20  C   UNL     1      32.590  25.731   1.596  1.00  0.00     0.283 C 
HETATM   21  C   UNL     1      33.751  27.216   4.056  1.00  0.00     0.250 C 
HETATM   22  C   UNL     1      29.031  28.986   5.104  1.00  0.00     0.250 C 
HETATM   23  C   UNL     1      27.665  25.787   4.187  1.00  0.00     0.283 C 
HETATM   24  C   UNL     1      31.945  29.084   6.107  1.00  0.00     0.283 C 
HETATM   25  C   UNL     1      29.606  24.468   1.176  1.00  0.00     0.153 C 
HETATM   26  C   UNL     1      34.422  29.662   3.957  1.00  0.00     0.153 C 
HETATM   27  C   UNL     1      29.242  28.148   2.738  1.00  0.00     0.153 C 
ENDROOT
BRANCH  17  28
HETATM   28  C   UNL     1      35.844  26.878   2.709  1.00  0.00     0.016 C 
HETATM   29  C   UNL     1      36.278  25.429   2.488  1.00  0.00     0.012 C 
HETATM   30  C   UNL     1      36.496  27.796   1.676  1.00  0.00     0.012 C 
ENDBRANCH  17  28
BRANCH  13  31
HETATM   31  C   UNL     1      32.182  23.898  -0.051  1.00  0.00     0.014 C 
HETATM   32  C   UNL     1      33.379  24.579  -0.717  1.00  0.00     0.012 C 
BRANCH  31  33
HETATM   33  C   UNL     1      32.240  22.365  -0.173  1.00  0.00     0.002 C 
HETATM   34  C   UNL     1      33.007  21.689   0.954  1.00  0.00     0.005 C 
ENDBRANCH  31  33
ENDBRANCH  13  31
BRANCH  14  35
HETATM   35  C   UNL     1      34.270  29.590   6.869  1.00  0.00     0.010 C 
HETATM   36  C   UNL     1      33.462  30.805   7.319  1.00  0.00     0.012 C 
HETATM   37  C   UNL     1      34.851  28.857   8.078  1.00  0.00     0.012 C 
ENDBRANCH  14  35
BRANCH  16  38
HETATM   38  C   UNL     1      29.367  23.523   5.511  1.00  0.00     0.016 C 
HETATM   39  C   UNL     1      30.285  24.369   6.392  1.00  0.00     0.012 C 
HETATM   40  C   UNL     1      29.819  22.063   5.514  1.00  0.00     0.012 C 
ENDBRANCH  16  38
BRANCH  18  41
HETATM   41  C   UNL     1      29.993  31.301   5.573  1.00  0.00     0.016 C 
HETATM   42  C   UNL     1      28.632  31.947   5.323  1.00  0.00     0.012 C 
HETATM   43  C   UNL     1      31.119  32.271   5.222  1.00  0.00     0.012 C 
ENDBRANCH  18  41
BRANCH  15  44
HETATM   44  C   UNL     1      26.314  27.698   3.278  1.00  0.00     0.010 C 
HETATM   45  C   UNL     1      24.943  27.513   3.923  1.00  0.00     0.012 C 
HETATM   46  C   UNL     1      26.415  26.892   1.986  1.00  0.00     0.012 C 
ENDBRANCH  15  44
TORSDOF 7
ENDMDL
MODEL 12
REMARK VINA RESULT:    -5.672      8.409     13.514
REMARK INTER + INTRA:          -6.432
REMARK INTER:                  -7.295
REMARK INTRA:                   0.863
REMARK UNBOUND:                 1.561
REMARK  7 active torsions:
REMARK  status: ('A' for Active; 'I' for Inactive)
REMARK    1  A    between atoms: C_13  and  C_14 
REMARK    2  A    between atoms: C_14  and  C_19 
REMARK    3  A    between atoms: C_15  and  C_20 
REMARK    4  A    between atoms: C_16  and  C_21 
REMARK    5  A    between atoms: C_17  and  C_23 
REMARK    6  A    between atoms: C_18  and  C_26 
REMARK    7  A    between atoms: C_22  and  C_28 
ROOT
HETATM    1  O   UNL     1      25.214  28.728   0.534  1.00  0.00    -0.304 OA
HETATM    2  O   UNL     1      26.166  24.930  -2.925  1.00  0.00    -0.304 OA
HETATM    3  O   UNL     1      25.774  29.343  -4.574  1.00  0.00    -0.304 OA
HETATM    4  O   UNL     1      24.130  25.627  -0.564  1.00  0.00    -0.270 OA
HETATM    5  O   UNL     1      27.254  28.246  -0.427  1.00  0.00    -0.263 OA
HETATM    6  O   UNL     1      23.868  28.353  -1.649  1.00  0.00    -0.270 OA
HETATM    7  O   UNL     1      26.107  26.809  -6.569  1.00  0.00    -0.270 OA
HETATM    8  O   UNL     1      27.104  23.013  -3.774  1.00  0.00    -0.263 OA
HETATM    9  O   UNL     1      23.975  28.750  -5.882  1.00  0.00    -0.263 OA
HETATM   10  N   UNL     1      26.378  25.578   0.013  1.00  0.00    -0.340 N 
HETATM   11  N   UNL     1      24.328  30.390  -2.643  1.00  0.00    -0.340 N 
HETATM   12  N   UNL     1      27.400  26.570  -4.649  1.00  0.00    -0.340 N 
HETATM   13  C   UNL     1      26.167  26.628   1.030  1.00  0.00     0.190 C 
HETATM   14  C   UNL     1      23.577  29.991  -3.852  1.00  0.00     0.190 C 
HETATM   15  C   UNL     1      27.585  25.119  -4.857  1.00  0.00     0.190 C 
HETATM   16  C   UNL     1      25.506  24.183  -1.884  1.00  0.00     0.227 C 
HETATM   17  C   UNL     1      25.059  29.912  -0.279  1.00  0.00     0.227 C 
HETATM   18  C   UNL     1      26.770  28.848  -5.486  1.00  0.00     0.227 C 
HETATM   19  C   UNL     1      25.269  25.186  -0.758  1.00  0.00     0.250 C 
HETATM   20  C   UNL     1      26.311  27.950   0.295  1.00  0.00     0.283 C 
HETATM   21  C   UNL     1      24.372  29.479  -1.577  1.00  0.00     0.250 C 
HETATM   22  C   UNL     1      26.715  27.319  -5.622  1.00  0.00     0.250 C 
HETATM   23  C   UNL     1      26.945  24.229  -3.794  1.00  0.00     0.283 C 
HETATM   24  C   UNL     1      24.450  29.276  -4.881  1.00  0.00     0.283 C 
HETATM   25  C   UNL     1      27.734  25.042  -0.149  1.00  0.00     0.153 C 
HETATM   26  C   UNL     1      25.004  31.690  -2.654  1.00  0.00     0.153 C 
HETATM   27  C   UNL     1      28.101  27.188  -3.522  1.00  0.00     0.153 C 
ENDROOT
BRANCH  17  28
HETATM   28  C   UNL     1      24.173  30.871   0.504  1.00  0.00     0.016 C 
HETATM   29  C   UNL     1      23.188  30.100   1.381  1.00  0.00     0.012 C 
HETATM   30  C   UNL     1      25.021  31.816   1.354  1.00  0.00     0.012 C 
ENDBRANCH  17  28
BRANCH  13  31
HETATM   31  C   UNL     1      27.102  26.590   2.234  1.00  0.00     0.014 C 
HETATM   32  C   UNL     1      27.173  27.974   2.881  1.00  0.00     0.012 C 
BRANCH  31  33
HETATM   33  C   UNL     1      26.640  25.506   3.223  1.00  0.00     0.002 C 
HETATM   34  C   UNL     1      27.723  24.495   3.573  1.00  0.00     0.005 C 
ENDBRANCH  31  33
ENDBRANCH  13  31
BRANCH  14  35
HETATM   35  C   UNL     1      22.832  31.145  -4.523  1.00  0.00     0.010 C 
HETATM   36  C   UNL     1      22.995  31.084  -6.040  1.00  0.00     0.012 C 
HETATM   37  C   UNL     1      21.351  31.125  -4.143  1.00  0.00     0.012 C 
ENDBRANCH  14  35
BRANCH  16  38
HETATM   38  C   UNL     1      24.194  23.630  -2.434  1.00  0.00     0.016 C 
HETATM   39  C   UNL     1      24.170  22.106  -2.342  1.00  0.00     0.012 C 
HETATM   40  C   UNL     1      23.982  24.083  -3.878  1.00  0.00     0.012 C 
ENDBRANCH  16  38
BRANCH  18  41
HETATM   41  C   UNL     1      26.711  29.563  -6.835  1.00  0.00     0.016 C 
HETATM   42  C   UNL     1      27.885  29.144  -7.716  1.00  0.00     0.012 C 
HETATM   43  C   UNL     1      26.701  31.077  -6.639  1.00  0.00     0.012 C 
ENDBRANCH  18  41
BRANCH  15  44
HETATM   44  C   UNL     1      29.063  24.766  -5.032  1.00  0.00     0.010 C 
HETATM   45  C   UNL     1      29.255  23.851  -6.238  1.00  0.00     0.012 C 
HETATM   46  C   UNL     1      29.609  24.113  -3.766  1.00  0.00     0.012 C 
ENDBRANCH  15  44
TORSDOF 7
ENDMDL
MODEL 13
REMARK VINA RESULT:    -5.599      2.755      6.707
REMARK INTER + INTRA:          -6.330
REMARK INTER:                  -7.250
REMARK INTRA:                   0.920
REMARK UNBOUND:                 1.561
REMARK  7 active torsions:
REMARK  status: ('A' for Active; 'I' for Inactive)
REMARK    1  A    between atoms: C_13  and  C_14 
REMARK    2  A    between atoms: C_14  and  C_19 
REMARK    3  A    between atoms: C_15  and  C_20 
REMARK    4  A    between atoms: C_16  and  C_21 
REMARK    5  A    between atoms: C_17  and  C_23 
REMARK    6  A    between atoms: C_18  and  C_26 
REMARK    7  A    between atoms: C_22  and  C_28 
ROOT
HETATM    1  O   UNL     1      29.874  24.343   6.188  1.00  0.00    -0.304 OA
HETATM    2  O   UNL     1      31.174  29.393   6.505  1.00  0.00    -0.304 OA
HETATM    3  O   UNL     1      29.876  27.729   2.275  1.00  0.00    -0.304 OA
HETATM    4  O   UNL     1      32.335  26.520   7.283  1.00  0.00    -0.270 OA
HETATM    5  O   UNL     1      28.408  26.122   6.256  1.00  0.00    -0.263 OA
HETATM    6  O   UNL     1      31.561  25.531   4.619  1.00  0.00    -0.270 OA
HETATM    7  O   UNL     1      30.964  30.760   2.645  1.00  0.00    -0.270 OA
HETATM    8  O   UNL     1      31.289  31.508   7.394  1.00  0.00    -0.263 OA
HETATM    9  O   UNL     1      31.928  28.260   1.377  1.00  0.00    -0.263 OA
HETATM   10  N   UNL     1      30.268  27.062   8.189  1.00  0.00    -0.340 N 
HETATM   11  N   UNL     1      30.424  25.183   2.634  1.00  0.00    -0.340 N 
HETATM   12  N   UNL     1      29.629  30.101   4.432  1.00  0.00    -0.340 N 
HETATM   13  C   UNL     1      29.853  25.644   8.155  1.00  0.00     0.190 C 
HETATM   14  C   UNL     1      31.446  25.954   1.893  1.00  0.00     0.190 C 
HETATM   15  C   UNL     1      30.118  31.189   5.304  1.00  0.00     0.190 C 
HETATM   16  C   UNL     1      31.927  28.855   7.610  1.00  0.00     0.227 C 
HETATM   17  C   UNL     1      29.626  24.133   4.781  1.00  0.00     0.227 C 
HETATM   18  C   UNL     1      29.337  29.060   2.171  1.00  0.00     0.227 C 
HETATM   19  C   UNL     1      31.539  27.380   7.679  1.00  0.00     0.250 C 
HETATM   20  C   UNL     1      29.267  25.418   6.772  1.00  0.00     0.283 C 
HETATM   21  C   UNL     1      30.618  25.010   4.012  1.00  0.00     0.250 C 
HETATM   22  C   UNL     1      30.063  30.047   3.096  1.00  0.00     0.250 C 
HETATM   23  C   UNL     1      30.911  30.729   6.525  1.00  0.00     0.283 C 
HETATM   24  C   UNL     1      31.129  27.446   1.829  1.00  0.00     0.283 C 
HETATM   25  C   UNL     1      29.315  28.042   8.717  1.00  0.00     0.153 C 
HETATM   26  C   UNL     1      29.266  24.686   1.888  1.00  0.00     0.153 C 
HETATM   27  C   UNL     1      28.571  29.237   4.957  1.00  0.00     0.153 C 
ENDROOT
BRANCH  17  28
HETATM   28  C   UNL     1      29.886  22.659   4.503  1.00  0.00     0.016 C 
HETATM   29  C   UNL     1      30.622  22.011   5.675  1.00  0.00     0.012 C 
HETATM   30  C   UNL     1      28.576  21.924   4.222  1.00  0.00     0.012 C 
ENDBRANCH  17  28
BRANCH  13  31
HETATM   31  C   UNL     1      28.856  25.214   9.226  1.00  0.00     0.014 C 
HETATM   32  C   UNL     1      27.545  24.779   8.570  1.00  0.00     0.012 C 
BRANCH  31  33
HETATM   33  C   UNL     1      29.470  24.104  10.099  1.00  0.00     0.002 C 
HETATM   34  C   UNL     1      30.704  24.545  10.872  1.00  0.00     0.005 C 
ENDBRANCH  31  33
ENDBRANCH  13  31
BRANCH  14  35
HETATM   35  C   UNL     1      31.714  25.424   0.484  1.00  0.00     0.010 C 
HETATM   36  C   UNL     1      31.133  26.366  -0.567  1.00  0.00     0.012 C 
HETATM   37  C   UNL     1      33.213  25.229   0.257  1.00  0.00     0.012 C 
ENDBRANCH  14  35
BRANCH  16  38
HETATM   38  C   UNL     1      33.415  29.034   7.322  1.00  0.00     0.016 C 
HETATM   39  C   UNL     1      34.040  30.019   8.309  1.00  0.00     0.012 C 
HETATM   40  C   UNL     1      33.634  29.505   5.886  1.00  0.00     0.012 C 
ENDBRANCH  16  38
BRANCH  18  41
HETATM   41  C   UNL     1      29.284  29.539   0.721  1.00  0.00     0.016 C 
HETATM   42  C   UNL     1      28.670  30.934   0.639  1.00  0.00     0.012 C 
HETATM   43  C   UNL     1      28.497  28.555  -0.141  1.00  0.00     0.012 C 
ENDBRANCH  18  41
BRANCH  15  44
HETATM   44  C   UNL     1      28.980  32.119   5.725  1.00  0.00     0.010 C 
HETATM   45  C   UNL     1      29.420  33.578   5.633  1.00  0.00     0.012 C 
HETATM   46  C   UNL     1      28.512  31.785   7.138  1.00  0.00     0.012 C 
ENDBRANCH  15  44
TORSDOF 7
ENDMDL
MODEL 14
REMARK VINA RESULT:    -5.581      3.243      8.748
REMARK INTER + INTRA:          -6.305
REMARK INTER:                  -7.710
REMARK INTRA:                   1.405
REMARK UNBOUND:                 1.561
REMARK  7 active torsions:
REMARK  status: ('A' for Active; 'I' for Inactive)
REMARK    1  A    between atoms: C_13  and  C_14 
REMARK    2  A    between atoms: C_14  and  C_19 
REMARK    3  A    between atoms: C_15  and  C_20 
REMARK    4  A    between atoms: C_16  and  C_21 
REMARK    5  A    between atoms: C_17  and  C_23 
REMARK    6  A    between atoms: C_18  and  C_26 
REMARK    7  A    between atoms: C_22  and  C_28 
ROOT
HETATM    1  O   UNL     1      28.920  25.767   1.426  1.00  0.00    -0.304 OA
HETATM    2  O   UNL     1      28.710  27.172   6.454  1.00  0.00    -0.304 OA
HETATM    3  O   UNL     1      32.201  28.972   3.823  1.00  0.00    -0.304 OA
HETATM    4  O   UNL     1      28.711  24.532   4.656  1.00  0.00    -0.270 OA
HETATM    5  O   UNL     1      28.120  27.769   2.246  1.00  0.00    -0.263 OA
HETATM    6  O   UNL     1      30.921  25.661   3.069  1.00  0.00    -0.270 OA
HETATM    7  O   UNL     1      32.034  29.508   7.015  1.00  0.00    -0.270 OA
HETATM    8  O   UNL     1      27.760  27.803   8.448  1.00  0.00    -0.263 OA
HETATM    9  O   UNL     1      33.791  27.995   5.169  1.00  0.00    -0.263 OA
HETATM   10  N   UNL     1      27.013  26.056   4.225  1.00  0.00    -0.340 N 
HETATM   11  N   UNL     1      32.312  27.131   1.949  1.00  0.00    -0.340 N 
HETATM   12  N   UNL     1      29.927  29.523   6.028  1.00  0.00    -0.340 N 
HETATM   13  C   UNL     1      27.002  25.679   2.797  1.00  0.00     0.190 C 
HETATM   14  C   UNL     1      33.329  27.012   3.016  1.00  0.00     0.190 C 
HETATM   15  C   UNL     1      29.231  29.354   7.321  1.00  0.00     0.190 C 
HETATM   16  C   UNL     1      28.047  25.894   6.507  1.00  0.00     0.227 C 
HETATM   17  C   UNL     1      30.124  26.396   0.937  1.00  0.00     0.227 C 
HETATM   18  C   UNL     1      31.966  30.097   4.688  1.00  0.00     0.227 C 
HETATM   19  C   UNL     1      27.958  25.427   5.057  1.00  0.00     0.250 C 
HETATM   20  C   UNL     1      28.052  26.552   2.130  1.00  0.00     0.283 C 
HETATM   21  C   UNL     1      31.145  26.364   2.078  1.00  0.00     0.250 C 
HETATM   22  C   UNL     1      31.324  29.674   6.018  1.00  0.00     0.250 C 
HETATM   23  C   UNL     1      28.472  28.039   7.477  1.00  0.00     0.283 C 
HETATM   24  C   UNL     1      33.132  28.031   4.136  1.00  0.00     0.283 C 
HETATM   25  C   UNL     1      26.067  27.083   4.671  1.00  0.00     0.153 C 
HETATM   26  C   UNL     1      32.575  28.066   0.852  1.00  0.00     0.153 C 
HETATM   27  C   UNL     1      29.101  29.706   4.834  1.00  0.00     0.153 C 
ENDROOT
BRANCH  17  28
HETATM   28  C   UNL     1      30.609  25.562  -0.241  1.00  0.00     0.016 C 
HETATM   29  C   UNL     1      31.088  24.190   0.231  1.00  0.00     0.012 C 
HETATM   30  C   UNL     1      29.505  25.412  -1.287  1.00  0.00     0.012 C 
ENDBRANCH  17  28
BRANCH  13  31
HETATM   31  C   UNL     1      25.665  25.822   2.079  1.00  0.00     0.014 C 
HETATM   32  C   UNL     1      25.688  27.059   1.179  1.00  0.00     0.012 C 
BRANCH  31  33
HETATM   33  C   UNL     1      25.349  24.536   1.295  1.00  0.00     0.002 C 
HETATM   34  C   UNL     1      25.028  24.777  -0.173  1.00  0.00     0.005 C 
ENDBRANCH  31  33
ENDBRANCH  13  31
BRANCH  14  35
HETATM   35  C   UNL     1      34.768  27.081   2.505  1.00  0.00     0.010 C 
HETATM   36  C   UNL     1      35.526  28.223   3.177  1.00  0.00     0.012 C 
HETATM   37  C   UNL     1      35.487  25.752   2.738  1.00  0.00     0.012 C 
ENDBRANCH  14  35
BRANCH  16  38
HETATM   38  C   UNL     1      28.887  24.942   7.355  1.00  0.00     0.016 C 
HETATM   39  C   UNL     1      28.234  24.717   8.718  1.00  0.00     0.012 C 
HETATM   40  C   UNL     1      30.307  25.480   7.524  1.00  0.00     0.012 C 
ENDBRANCH  16  38
BRANCH  18  41
HETATM   41  C   UNL     1      33.228  30.937   4.883  1.00  0.00     0.016 C 
HETATM   42  C   UNL     1      32.931  32.160   5.748  1.00  0.00     0.012 C 
HETATM   43  C   UNL     1      33.803  31.361   3.533  1.00  0.00     0.012 C 
ENDBRANCH  18  41
BRANCH  15  44
HETATM   44  C   UNL     1      28.314  30.541   7.617  1.00  0.00     0.010 C 
HETATM   45  C   UNL     1      28.931  31.836   7.098  1.00  0.00     0.012 C 
HETATM   46  C   UNL     1      28.034  30.639   9.114  1.00  0.00     0.012 C 
ENDBRANCH  15  44
TORSDOF 7
ENDMDL
MODEL 15
REMARK VINA RESULT:    -5.398      3.252      8.080
REMARK INTER + INTRA:          -6.047
REMARK INTER:                  -7.364
REMARK INTRA:                   1.318
REMARK UNBOUND:                 1.561
REMARK  7 active torsions:
REMARK  status: ('A' for Active; 'I' for Inactive)
REMARK    1  A    between atoms: C_13  and  C_14 
REMARK    2  A    between atoms: C_14  and  C_19 
REMARK    3  A    between atoms: C_15  and  C_20 
REMARK    4  A    between atoms: C_16  and  C_21 
REMARK    5  A    between atoms: C_17  and  C_23 
REMARK    6  A    between atoms: C_18  and  C_26 
REMARK    7  A    between atoms: C_22  and  C_28 
ROOT
HETATM    1  O   UNL     1      31.203  25.343   3.780  1.00  0.00    -0.304 OA
HETATM    2  O   UNL     1      32.536  30.025   5.675  1.00  0.00    -0.304 OA
HETATM    3  O   UNL     1      34.638  28.599   1.688  1.00  0.00    -0.304 OA
HETATM    4  O   UNL     1      32.280  26.988   6.631  1.00  0.00    -0.270 OA
HETATM    5  O   UNL     1      30.468  27.384   2.999  1.00  0.00    -0.263 OA
HETATM    6  O   UNL     1      33.640  26.138   4.161  1.00  0.00    -0.270 OA
HETATM    7  O   UNL     1      35.501  31.349   3.171  1.00  0.00    -0.270 OA
HETATM    8  O   UNL     1      32.248  32.086   6.649  1.00  0.00    -0.263 OA
HETATM    9  O   UNL     1      36.710  28.687   2.687  1.00  0.00    -0.263 OA
HETATM   10  N   UNL     1      30.348  27.953   5.781  1.00  0.00    -0.340 N 
HETATM   11  N   UNL     1      34.351  26.000   1.964  1.00  0.00    -0.340 N 
HETATM   12  N   UNL     1      33.203  31.003   3.269  1.00  0.00    -0.340 N 
HETATM   13  C   UNL     1      29.900  26.650   5.249  1.00  0.00     0.190 C 
HETATM   14  C   UNL     1      35.677  26.535   2.340  1.00  0.00     0.190 C 
HETATM   15  C   UNL     1      33.020  31.981   4.362  1.00  0.00     0.190 C 
HETATM   16  C   UNL     1      32.111  29.361   6.881  1.00  0.00     0.227 C 
HETATM   17  C   UNL     1      32.071  25.167   2.639  1.00  0.00     0.227 C 
HETATM   18  C   UNL     1      34.563  30.010   1.413  1.00  0.00     0.227 C 
HETATM   19  C   UNL     1      31.596  27.998   6.428  1.00  0.00     0.250 C 
HETATM   20  C   UNL     1      30.530  26.528   3.871  1.00  0.00     0.283 C 
HETATM   21  C   UNL     1      33.414  25.812   2.990  1.00  0.00     0.250 C 
HETATM   22  C   UNL     1      34.478  30.842   2.701  1.00  0.00     0.250 C 
HETATM   23  C   UNL     1      32.546  31.387   5.685  1.00  0.00     0.283 C 
HETATM   24  C   UNL     1      35.739  28.060   2.278  1.00  0.00     0.283 C 
HETATM   25  C   UNL     1      29.480  29.116   5.567  1.00  0.00     0.153 C 
HETATM   26  C   UNL     1      34.095  25.738   0.546  1.00  0.00     0.153 C 
HETATM   27  C   UNL     1      32.002  30.381   2.710  1.00  0.00     0.153 C 
ENDROOT
BRANCH  17  28
HETATM   28  C   UNL     1      32.232  23.667   2.436  1.00  0.00     0.016 C 
HETATM   29  C   UNL     1      31.532  22.893   3.552  1.00  0.00     0.012 C 
HETATM   30  C   UNL     1      31.690  23.246   1.071  1.00  0.00     0.012 C 
ENDBRANCH  17  28
BRANCH  13  31
HETATM   31  C   UNL     1      28.392  26.448   5.157  1.00  0.00     0.014 C 
HETATM   32  C   UNL     1      28.071  25.400   4.090  1.00  0.00     0.012 C 
BRANCH  31  33
HETATM   33  C   UNL     1      27.828  26.066   6.538  1.00  0.00     0.002 C 
HETATM   34  C   UNL     1      26.418  26.582   6.788  1.00  0.00     0.005 C 
ENDBRANCH  31  33
ENDBRANCH  13  31
BRANCH  14  35
HETATM   35  C   UNL     1      36.832  25.941   1.533  1.00  0.00     0.010 C 
HETATM   36  C   UNL     1      37.444  26.992   0.611  1.00  0.00     0.012 C 
HETATM   37  C   UNL     1      37.897  25.359   2.462  1.00  0.00     0.012 C 
ENDBRANCH  14  35
BRANCH  16  38
HETATM   38  C   UNL     1      33.311  29.230   7.816  1.00  0.00     0.016 C 
HETATM   39  C   UNL     1      34.557  28.811   7.038  1.00  0.00     0.012 C 
HETATM   40  C   UNL     1      33.016  28.230   8.933  1.00  0.00     0.012 C 
ENDBRANCH  16  38
BRANCH  18  41
HETATM   41  C   UNL     1      35.689  30.468   0.487  1.00  0.00     0.016 C 
HETATM   42  C   UNL     1      35.602  31.972   0.240  1.00  0.00     0.012 C 
HETATM   43  C   UNL     1      35.642  29.704  -0.834  1.00  0.00     0.012 C 
ENDBRANCH  18  41
BRANCH  15  44
HETATM   44  C   UNL     1      32.107  33.130   3.932  1.00  0.00     0.010 C 
HETATM   45  C   UNL     1      32.476  33.611   2.531  1.00  0.00     0.012 C 
HETATM   46  C   UNL     1      32.187  34.278   4.934  1.00  0.00     0.012 C 
ENDBRANCH  15  44
TORSDOF 7
ENDMDL
MODEL 16
REMARK VINA RESULT:    -5.256      3.269      6.607
REMARK INTER + INTRA:          -5.846
REMARK INTER:                  -6.428
REMARK INTRA:                   0.582
REMARK UNBOUND:                 1.561
REMARK  7 active torsions:
REMARK  status: ('A' for Active; 'I' for Inactive)
REMARK    1  A    between atoms: C_13  and  C_14 
REMARK    2  A    between atoms: C_14  and  C_19 
REMARK    3  A    between atoms: C_15  and  C_20 
REMARK    4  A    between atoms: C_16  and  C_21 
REMARK    5  A    between atoms: C_17  and  C_23 
REMARK    6  A    between atoms: C_18  and  C_26 
REMARK    7  A    between atoms: C_22  and  C_28 
ROOT
HETATM    1  O   UNL     1      29.026  27.611   6.182  1.00  0.00    -0.304 OA
HETATM    2  O   UNL     1      31.174  30.747   2.599  1.00  0.00    -0.304 OA
HETATM    3  O   UNL     1      26.650  29.515   1.998  1.00  0.00    -0.304 OA
HETATM    4  O   UNL     1      31.742  27.965   4.062  1.00  0.00    -0.270 OA
HETATM    5  O   UNL     1      28.724  29.891   6.016  1.00  0.00    -0.263 OA
HETATM    6  O   UNL     1      28.929  27.206   3.624  1.00  0.00    -0.270 OA
HETATM    7  O   UNL     1      28.249  31.239  -0.233  1.00  0.00    -0.270 OA
HETATM    8  O   UNL     1      32.460  32.459   1.768  1.00  0.00    -0.263 OA
HETATM    9  O   UNL     1      27.138  28.501  -0.010  1.00  0.00    -0.263 OA
HETATM   10  N   UNL     1      31.508  29.813   5.446  1.00  0.00    -0.340 N 
HETATM   11  N   UNL     1      26.629  27.285   3.391  1.00  0.00    -0.340 N 
HETATM   12  N   UNL     1      28.835  31.872   1.928  1.00  0.00    -0.340 N 
HETATM   13  C   UNL     1      30.923  28.973   6.512  1.00  0.00     0.190 C 
HETATM   14  C   UNL     1      26.753  27.117   1.927  1.00  0.00     0.190 C 
HETATM   15  C   UNL     1      30.063  32.562   1.480  1.00  0.00     0.190 C 
HETATM   16  C   UNL     1      32.345  30.067   3.093  1.00  0.00     0.227 C 
HETATM   17  C   UNL     1      27.700  27.351   5.672  1.00  0.00     0.227 C 
HETATM   18  C   UNL     1      26.594  30.849   1.463  1.00  0.00     0.227 C 
HETATM   19  C   UNL     1      31.844  29.185   4.234  1.00  0.00     0.250 C 
HETATM   20  C   UNL     1      29.432  28.914   6.221  1.00  0.00     0.283 C 
HETATM   21  C   UNL     1      27.811  27.279   4.146  1.00  0.00     0.250 C 
HETATM   22  C   UNL     1      27.968  31.326   0.966  1.00  0.00     0.250 C 
HETATM   23  C   UNL     1      31.367  31.938   1.969  1.00  0.00     0.283 C 
HETATM   24  C   UNL     1      26.887  28.447   1.189  1.00  0.00     0.283 C 
HETATM   25  C   UNL     1      31.663  31.247   5.711  1.00  0.00     0.153 C 
HETATM   26  C   UNL     1      25.288  27.482   3.948  1.00  0.00     0.153 C 
HETATM   27  C   UNL     1      28.494  31.952   3.349  1.00  0.00     0.153 C 
ENDROOT
BRANCH  17  28
HETATM   28  C   UNL     1      27.262  26.010   6.242  1.00  0.00     0.016 C 
HETATM   29  C   UNL     1      28.461  25.246   6.803  1.00  0.00     0.012 C 
HETATM   30  C   UNL     1      26.199  26.204   7.322  1.00  0.00     0.012 C 
ENDBRANCH  17  28
BRANCH  13  31
HETATM   31  C   UNL     1      31.161  29.446   7.942  1.00  0.00     0.014 C 
HETATM   32  C   UNL     1      30.136  28.805   8.879  1.00  0.00     0.012 C 
BRANCH  31  33
HETATM   33  C   UNL     1      32.609  29.138   8.362  1.00  0.00     0.002 C 
HETATM   34  C   UNL     1      33.349  30.339   8.936  1.00  0.00     0.005 C 
ENDBRANCH  31  33
ENDBRANCH  13  31
BRANCH  14  35
HETATM   35  C   UNL     1      25.625  26.294   1.305  1.00  0.00     0.010 C 
HETATM   36  C   UNL     1      24.689  27.187   0.494  1.00  0.00     0.012 C 
HETATM   37  C   UNL     1      26.191  25.178   0.428  1.00  0.00     0.012 C 
ENDBRANCH  14  35
BRANCH  16  38
HETATM   38  C   UNL     1      32.945  29.239   1.961  1.00  0.00     0.016 C 
HETATM   39  C   UNL     1      34.293  29.813   1.529  1.00  0.00     0.012 C 
HETATM   40  C   UNL     1      31.986  29.174   0.773  1.00  0.00     0.012 C 
ENDBRANCH  16  38
BRANCH  18  41
HETATM   41  C   UNL     1      25.502  30.992   0.404  1.00  0.00     0.016 C 
HETATM   42  C   UNL     1      25.493  32.407  -0.170  1.00  0.00     0.012 C 
HETATM   43  C   UNL     1      24.136  30.643   0.993  1.00  0.00     0.012 C 
ENDBRANCH  18  41
BRANCH  15  44
HETATM   44  C   UNL     1      30.020  34.052   1.823  1.00  0.00     0.010 C 
HETATM   45  C   UNL     1      30.462  34.889   0.626  1.00  0.00     0.012 C 
HETATM   46  C   UNL     1      30.894  34.345   3.038  1.00  0.00     0.012 C 
ENDBRANCH  15  44
TORSDOF 7
ENDMDL
MODEL 17
REMARK VINA RESULT:    -5.182      7.977     12.530
REMARK INTER + INTRA:          -5.742
REMARK INTER:                  -6.341
REMARK INTRA:                   0.599
REMARK UNBOUND:                 1.561
REMARK  7 active torsions:
REMARK  status: ('A' for Active; 'I' for Inactive)
REMARK    1  A    between atoms: C_13  and  C_14 
REMARK    2  A    between atoms: C_14  and  C_19 
REMARK    3  A    between atoms: C_15  and  C_20 
REMARK    4  A    between atoms: C_16  and  C_21 
REMARK    5  A    between atoms: C_17  and  C_23 
REMARK    6  A    between atoms: C_18  and  C_26 
REMARK    7  A    between atoms: C_22  and  C_28 
ROOT
HETATM    1  O   UNL     1      26.437  23.520  -3.629  1.00  0.00    -0.304 OA
HETATM    2  O   UNL     1      30.773  26.292  -2.732  1.00  0.00    -0.304 OA
HETATM    3  O   UNL     1      27.644  25.925   0.791  1.00  0.00    -0.304 OA
HETATM    4  O   UNL     1      28.403  26.091  -4.864  1.00  0.00    -0.270 OA
HETATM    5  O   UNL     1      28.284  22.809  -2.445  1.00  0.00    -0.263 OA
HETATM    6  O   UNL     1      26.475  25.917  -2.644  1.00  0.00    -0.270 OA
HETATM    7  O   UNL     1      30.273  27.804   1.046  1.00  0.00    -0.270 OA
HETATM    8  O   UNL     1      33.006  26.832  -2.802  1.00  0.00    -0.263 OA
HETATM    9  O   UNL     1      27.344  28.207   0.834  1.00  0.00    -0.263 OA
HETATM   10  N   UNL     1      29.648  24.159  -4.542  1.00  0.00    -0.340 N 
HETATM   11  N   UNL     1      25.479  25.427  -0.615  1.00  0.00    -0.340 N 
HETATM   12  N   UNL     1      30.734  25.828  -0.092  1.00  0.00    -0.340 N 
HETATM   13  C   UNL     1      28.464  23.319  -4.818  1.00  0.00     0.190 C 
HETATM   14  C   UNL     1      25.641  26.829  -0.175  1.00  0.00     0.190 C 
HETATM   15  C   UNL     1      31.993  26.354  -0.661  1.00  0.00     0.190 C 
HETATM   16  C   UNL     1      30.666  26.422  -4.164  1.00  0.00     0.227 C 
HETATM   17  C   UNL     1      25.664  23.678  -2.419  1.00  0.00     0.227 C 
HETATM   18  C   UNL     1      28.857  25.935   1.566  1.00  0.00     0.227 C 
HETATM   19  C   UNL     1      29.474  25.554  -4.557  1.00  0.00     0.250 C 
HETATM   20  C   UNL     1      27.748  23.164  -3.486  1.00  0.00     0.283 C 
HETATM   21  C   UNL     1      25.913  25.099  -1.907  1.00  0.00     0.250 C 
HETATM   22  C   UNL     1      30.010  26.619   0.816  1.00  0.00     0.250 C 
HETATM   23  C   UNL     1      31.999  26.509  -2.179  1.00  0.00     0.283 C 
HETATM   24  C   UNL     1      26.975  27.079   0.525  1.00  0.00     0.283 C 
HETATM   25  C   UNL     1      30.912  23.482  -4.235  1.00  0.00     0.153 C 
HETATM   26  C   UNL     1      24.911  24.471   0.339  1.00  0.00     0.153 C 
HETATM   27  C   UNL     1      30.399  24.430  -0.368  1.00  0.00     0.153 C 
ENDROOT
BRANCH  17  28
HETATM   28  C   UNL     1      24.203  23.493  -2.803  1.00  0.00     0.016 C 
HETATM   29  C   UNL     1      24.005  23.724  -4.300  1.00  0.00     0.012 C 
HETATM   30  C   UNL     1      23.712  22.101  -2.406  1.00  0.00     0.012 C 
ENDBRANCH  17  28
BRANCH  13  31
HETATM   31  C   UNL     1      28.744  21.949  -5.427  1.00  0.00     0.014 C 
HETATM   32  C   UNL     1      27.595  20.993  -5.106  1.00  0.00     0.012 C 
BRANCH  31  33
HETATM   33  C   UNL     1      28.983  22.087  -6.941  1.00  0.00     0.002 C 
HETATM   34  C   UNL     1      27.758  22.553  -7.714  1.00  0.00     0.005 C 
ENDBRANCH  31  33
ENDBRANCH  13  31
BRANCH  14  35
HETATM   35  C   UNL     1      24.496  27.335   0.704  1.00  0.00     0.010 C 
HETATM   36  C   UNL     1      24.984  27.601   2.126  1.00  0.00     0.012 C 
HETATM   37  C   UNL     1      23.875  28.597   0.107  1.00  0.00     0.012 C 
ENDBRANCH  14  35
BRANCH  16  38
HETATM   38  C   UNL     1      30.433  27.891  -4.506  1.00  0.00     0.016 C 
HETATM   39  C   UNL     1      31.652  28.481  -5.213  1.00  0.00     0.012 C 
HETATM   40  C   UNL     1      30.104  28.692  -3.248  1.00  0.00     0.012 C 
ENDBRANCH  16  38
BRANCH  18  41
HETATM   41  C   UNL     1      28.635  26.515   2.962  1.00  0.00     0.016 C 
HETATM   42  C   UNL     1      29.937  26.508   3.760  1.00  0.00     0.012 C 
HETATM   43  C   UNL     1      27.549  25.734   3.700  1.00  0.00     0.012 C 
ENDBRANCH  18  41
BRANCH  15  44
HETATM   44  C   UNL     1      33.197  25.531  -0.201  1.00  0.00     0.010 C 
HETATM   45  C   UNL     1      34.336  26.448   0.235  1.00  0.00     0.012 C 
HETATM   46  C   UNL     1      33.656  24.591  -1.312  1.00  0.00     0.012 C 
ENDBRANCH  15  44
TORSDOF 7
ENDMDL
MODEL 18
REMARK VINA RESULT:    -5.074      3.621      9.122
REMARK INTER + INTRA:          -5.589
REMARK INTER:                  -6.573
REMARK INTRA:                   0.984
REMARK UNBOUND:                 1.561
REMARK  7 active torsions:
REMARK  status: ('A' for Active; 'I' for Inactive)
REMARK    1  A    between atoms: C_13  and  C_14 
REMARK    2  A    between atoms: C_14  and  C_19 
REMARK    3  A    between atoms: C_15  and  C_20 
REMARK    4  A    between atoms: C_16  and  C_21 
REMARK    5  A    between atoms: C_17  and  C_23 
REMARK    6  A    between atoms: C_18  and  C_26 
REMARK    7  A    between atoms: C_22  and  C_28 
ROOT
HETATM    1  O   UNL     1      27.300  26.367   1.857  1.00  0.00    -0.304 OA
HETATM    2  O   UNL     1      31.497  28.035   4.482  1.00  0.00    -0.304 OA
HETATM    3  O   UNL     1      28.283  31.262   3.217  1.00  0.00    -0.304 OA
HETATM    4  O   UNL     1      30.762  26.289   1.910  1.00  0.00    -0.270 OA
HETATM    5  O   UNL     1      27.376  26.904   4.098  1.00  0.00    -0.263 OA
HETATM    6  O   UNL     1      28.806  28.345   1.123  1.00  0.00    -0.270 OA
HETATM    7  O   UNL     1      31.078  32.111   4.624  1.00  0.00    -0.270 OA
HETATM    8  O   UNL     1      33.165  28.013   6.062  1.00  0.00    -0.263 OA
HETATM    9  O   UNL     1      29.837  32.388   1.947  1.00  0.00    -0.263 OA
HETATM   10  N   UNL     1      29.872  25.556   3.925  1.00  0.00    -0.340 N 
HETATM   11  N   UNL     1      27.188  29.998   1.189  1.00  0.00    -0.340 N 
HETATM   12  N   UNL     1      30.220  30.147   5.529  1.00  0.00    -0.340 N 
HETATM   13  C   UNL     1      28.674  25.035   3.236  1.00  0.00     0.190 C 
HETATM   14  C   UNL     1      28.193  31.021   0.830  1.00  0.00     0.190 C 
HETATM   15  C   UNL     1      31.510  29.772   6.145  1.00  0.00     0.190 C 
HETATM   16  C   UNL     1      32.026  26.845   3.864  1.00  0.00     0.227 C 
HETATM   17  C   UNL     1      26.579  27.578   1.543  1.00  0.00     0.227 C 
HETATM   18  C   UNL     1      28.697  31.834   4.471  1.00  0.00     0.227 C 
HETATM   19  C   UNL     1      30.842  26.208   3.142  1.00  0.00     0.250 C 
HETATM   20  C   UNL     1      27.705  26.203   3.151  1.00  0.00     0.283 C 
HETATM   21  C   UNL     1      27.622  28.666   1.272  1.00  0.00     0.250 C 
HETATM   22  C   UNL     1      30.111  31.383   4.869  1.00  0.00     0.250 C 
HETATM   23  C   UNL     1      32.150  28.507   5.580  1.00  0.00     0.283 C 
HETATM   24  C   UNL     1      28.881  31.627   2.052  1.00  0.00     0.283 C 
HETATM   25  C   UNL     1      29.952  25.392   5.380  1.00  0.00     0.153 C 
HETATM   26  C   UNL     1      25.822  30.446   1.467  1.00  0.00     0.153 C 
HETATM   27  C   UNL     1      29.067  29.286   5.796  1.00  0.00     0.153 C 
ENDROOT
BRANCH  17  28
HETATM   28  C   UNL     1      25.762  27.293   0.291  1.00  0.00     0.016 C 
HETATM   29  C   UNL     1      26.075  25.899  -0.251  1.00  0.00     0.012 C 
HETATM   30  C   UNL     1      24.267  27.433   0.578  1.00  0.00     0.012 C 
ENDBRANCH  17  28
BRANCH  13  31
HETATM   31  C   UNL     1      27.997  23.836   3.889  1.00  0.00     0.014 C 
HETATM   32  C   UNL     1      26.619  23.612   3.263  1.00  0.00     0.012 C 
BRANCH  31  33
HETATM   33  C   UNL     1      28.899  22.595   3.773  1.00  0.00     0.002 C 
HETATM   34  C   UNL     1      28.181  21.285   4.067  1.00  0.00     0.005 C 
ENDBRANCH  31  33
ENDBRANCH  13  31
BRANCH  14  35
HETATM   35  C   UNL     1      27.645  32.138  -0.058  1.00  0.00     0.010 C 
HETATM   36  C   UNL     1      27.571  33.454   0.713  1.00  0.00     0.012 C 
HETATM   37  C   UNL     1      28.502  32.300  -1.313  1.00  0.00     0.012 C 
ENDBRANCH  14  35
BRANCH  16  38
HETATM   38  C   UNL     1      33.130  27.249   2.890  1.00  0.00     0.016 C 
HETATM   39  C   UNL     1      34.489  26.753   3.381  1.00  0.00     0.012 C 
HETATM   40  C   UNL     1      33.151  28.764   2.697  1.00  0.00     0.012 C 
ENDBRANCH  16  38
BRANCH  18  41
HETATM   41  C   UNL     1      28.537  33.353   4.483  1.00  0.00     0.016 C 
HETATM   42  C   UNL     1      28.963  33.927   5.833  1.00  0.00     0.012 C 
HETATM   43  C   UNL     1      27.095  33.743   4.166  1.00  0.00     0.012 C 
ENDBRANCH  18  41
BRANCH  15  44
HETATM   44  C   UNL     1      31.393  29.679   7.667  1.00  0.00     0.010 C 
HETATM   45  C   UNL     1      30.845  28.316   8.079  1.00  0.00     0.012 C 
HETATM   46  C   UNL     1      30.508  30.801   8.203  1.00  0.00     0.012 C 
ENDBRANCH  15  44
TORSDOF 7
ENDMDL
MODEL 19
REMARK VINA RESULT:    -5.069     10.501     14.477
REMARK INTER + INTRA:          -5.583
REMARK INTER:                  -6.348
REMARK INTRA:                   0.765
REMARK UNBOUND:                 1.561
REMARK  7 active torsions:
REMARK  status: ('A' for Active; 'I' for Inactive)
REMARK    1  A    between atoms: C_13  and  C_14 
REMARK    2  A    between atoms: C_14  and  C_19 
REMARK    3  A    between atoms: C_15  and  C_20 
REMARK    4  A    between atoms: C_16  and  C_21 
REMARK    5  A    between atoms: C_17  and  C_23 
REMARK    6  A    between atoms: C_18  and  C_26 
REMARK    7  A    between atoms: C_22  and  C_28 
ROOT
HETATM    1  O   UNL     1      40.533  18.990  -1.583  1.00  0.00    -0.304 OA
HETATM    2  O   UNL     1      36.875  20.424   1.861  1.00  0.00    -0.304 OA
HETATM    3  O   UNL     1      40.242  23.570   0.808  1.00  0.00    -0.304 OA
HETATM    4  O   UNL     1      38.936  18.039   1.339  1.00  0.00    -0.270 OA
HETATM    5  O   UNL     1      38.725  20.355  -2.011  1.00  0.00    -0.263 OA
HETATM    6  O   UNL     1      41.024  20.028   0.741  1.00  0.00    -0.270 OA
HETATM    7  O   UNL     1      38.029  24.157   3.103  1.00  0.00    -0.270 OA
HETATM    8  O   UNL     1      34.779  20.614   2.782  1.00  0.00    -0.263 OA
HETATM    9  O   UNL     1      40.944  23.631   3.000  1.00  0.00    -0.263 OA
HETATM   10  N   UNL     1      37.409  18.453  -0.359  1.00  0.00    -0.340 N 
HETATM   11  N   UNL     1      42.126  21.923   0.001  1.00  0.00    -0.340 N 
HETATM   12  N   UNL     1      37.109  23.032   1.287  1.00  0.00    -0.340 N 
HETATM   13  C   UNL     1      38.389  18.029  -1.379  1.00  0.00     0.190 C 
HETATM   14  C   UNL     1      42.262  22.409   1.391  1.00  0.00     0.190 C 
HETATM   15  C   UNL     1      35.911  22.619   2.047  1.00  0.00     0.190 C 
HETATM   16  C   UNL     1      36.853  18.993   2.029  1.00  0.00     0.227 C 
HETATM   17  C   UNL     1      41.445  20.111  -1.613  1.00  0.00     0.227 C 
HETATM   18  C   UNL     1      39.139  24.474   0.997  1.00  0.00     0.227 C 
HETATM   19  C   UNL     1      37.825  18.451   0.985  1.00  0.00     0.250 C 
HETATM   20  C   UNL     1      39.203  19.269  -1.712  1.00  0.00     0.283 C 
HETATM   21  C   UNL     1      41.507  20.679  -0.192  1.00  0.00     0.250 C 
HETATM   22  C   UNL     1      38.053  23.873   1.902  1.00  0.00     0.250 C 
HETATM   23  C   UNL     1      35.773  21.114   2.264  1.00  0.00     0.283 C 
HETATM   24  C   UNL     1      41.074  23.258   1.839  1.00  0.00     0.283 C 
HETATM   25  C   UNL     1      36.084  18.882  -0.818  1.00  0.00     0.153 C 
HETATM   26  C   UNL     1      42.611  22.786  -1.078  1.00  0.00     0.153 C 
HETATM   27  C   UNL     1      37.160  22.690  -0.135  1.00  0.00     0.153 C 
ENDROOT
BRANCH  17  28
HETATM   28  C   UNL     1      42.802  19.564  -2.032  1.00  0.00     0.016 C 
HETATM   29  C   UNL     1      42.924  18.085  -1.666  1.00  0.00     0.012 C 
HETATM   30  C   UNL     1      43.025  19.764  -3.530  1.00  0.00     0.012 C 
ENDBRANCH  17  28
BRANCH  13  31
HETATM   31  C   UNL     1      37.809  17.424  -2.653  1.00  0.00     0.014 C 
HETATM   32  C   UNL     1      38.838  17.502  -3.781  1.00  0.00     0.012 C 
BRANCH  31  33
HETATM   33  C   UNL     1      37.345  15.981  -2.384  1.00  0.00     0.002 C 
HETATM   34  C   UNL     1      36.701  15.310  -3.589  1.00  0.00     0.005 C 
ENDBRANCH  31  33
ENDBRANCH  13  31
BRANCH  14  35
HETATM   35  C   UNL     1      43.563  23.167   1.653  1.00  0.00     0.010 C 
HETATM   36  C   UNL     1      43.275  24.557   2.215  1.00  0.00     0.012 C 
HETATM   37  C   UNL     1      44.463  22.380   2.606  1.00  0.00     0.012 C 
ENDBRANCH  14  35
BRANCH  16  38
HETATM   38  C   UNL     1      37.306  18.660   3.448  1.00  0.00     0.016 C 
HETATM   39  C   UNL     1      36.176  17.995   4.233  1.00  0.00     0.012 C 
HETATM   40  C   UNL     1      37.790  19.917   4.168  1.00  0.00     0.012 C 
ENDBRANCH  16  38
BRANCH  18  41
HETATM   41  C   UNL     1      39.605  25.850   1.470  1.00  0.00     0.016 C 
HETATM   42  C   UNL     1      38.420  26.803   1.604  1.00  0.00     0.012 C 
HETATM   43  C   UNL     1      40.648  26.422   0.511  1.00  0.00     0.012 C 
ENDBRANCH  18  41
BRANCH  15  44
HETATM   44  C   UNL     1      34.635  23.190   1.427  1.00  0.00     0.010 C 
HETATM   45  C   UNL     1      33.792  23.891   2.488  1.00  0.00     0.012 C 
HETATM   46  C   UNL     1      33.833  22.085   0.744  1.00  0.00     0.012 C 
ENDBRANCH  15  44
TORSDOF 7
ENDMDL
MODEL 20
REMARK VINA RESULT:    -4.929      7.709     11.215
REMARK INTER + INTRA:          -5.385
REMARK INTER:                  -6.174
REMARK INTRA:                   0.789
REMARK UNBOUND:                 1.561
REMARK  7 active torsions:
REMARK  status: ('A' for Active; 'I' for Inactive)
REMARK    1  A    between atoms: C_13  and  C_14 
REMARK    2  A    between atoms: C_14  and  C_19 
REMARK    3  A    between atoms: C_15  and  C_20 
REMARK    4  A    between atoms: C_16  and  C_21 
REMARK    5  A    between atoms: C_17  and  C_23 
REMARK    6  A    between atoms: C_18  and  C_26 
REMARK    7  A    between atoms: C_22  and  C_28 
ROOT
HETATM    1  O   UNL     1      31.777  25.434  -1.086  1.00  0.00    -0.304 OA
HETATM    2  O   UNL     1      27.526  24.470  -3.965  1.00  0.00    -0.304 OA
HETATM    3  O   UNL     1      26.914  26.679   0.169  1.00  0.00    -0.304 OA
HETATM    4  O   UNL     1      30.067  22.942  -2.777  1.00  0.00    -0.270 OA
HETATM    5  O   UNL     1      30.647  26.961  -2.394  1.00  0.00    -0.263 OA
HETATM    6  O   UNL     1      29.625  24.296  -0.199  1.00  0.00    -0.270 OA
HETATM    7  O   UNL     1      24.395  25.757  -1.651  1.00  0.00    -0.270 OA
HETATM    8  O   UNL     1      26.233  24.288  -5.856  1.00  0.00    -0.263 OA
HETATM    9  O   UNL     1      25.584  24.968   0.947  1.00  0.00    -0.263 OA
HETATM   10  N   UNL     1      30.522  24.743  -4.168  1.00  0.00    -0.340 N 
HETATM   11  N   UNL     1      29.088  25.872   1.407  1.00  0.00    -0.340 N 
HETATM   12  N   UNL     1      26.156  26.541  -2.953  1.00  0.00    -0.340 N 
HETATM   13  C   UNL     1      31.754  25.048  -3.413  1.00  0.00     0.190 C 
HETATM   14  C   UNL     1      27.853  25.132   1.747  1.00  0.00     0.190 C 
HETATM   15  C   UNL     1      25.625  25.927  -4.187  1.00  0.00     0.190 C 
HETATM   16  C   UNL     1      28.402  23.424  -4.426  1.00  0.00     0.227 C 
HETATM   17  C   UNL     1      31.254  26.017   0.127  1.00  0.00     0.227 C 
HETATM   18  C   UNL     1      25.873  27.323  -0.588  1.00  0.00     0.227 C 
HETATM   19  C   UNL     1      29.731  23.671  -3.718  1.00  0.00     0.250 C 
HETATM   20  C   UNL     1      31.325  25.950  -2.268  1.00  0.00     0.283 C 
HETATM   21  C   UNL     1      29.922  25.321   0.423  1.00  0.00     0.250 C 
HETATM   22  C   UNL     1      25.404  26.459  -1.768  1.00  0.00     0.250 C 
HETATM   23  C   UNL     1      26.490  24.817  -4.779  1.00  0.00     0.283 C 
HETATM   24  C   UNL     1      26.655  25.564   0.904  1.00  0.00     0.283 C 
HETATM   25  C   UNL     1      30.188  25.600  -5.311  1.00  0.00     0.153 C 
HETATM   26  C   UNL     1      29.337  27.142   2.093  1.00  0.00     0.153 C 
HETATM   27  C   UNL     1      27.361  27.364  -3.071  1.00  0.00     0.153 C 
ENDROOT
BRANCH  17  28
HETATM   28  C   UNL     1      32.266  25.729   1.226  1.00  0.00     0.016 C 
HETATM   29  C   UNL     1      33.169  24.560   0.835  1.00  0.00     0.012 C 
HETATM   30  C   UNL     1      33.102  26.972   1.530  1.00  0.00     0.012 C 
ENDBRANCH  17  28
BRANCH  13  31
HETATM   31  C   UNL     1      32.879  25.705  -4.207  1.00  0.00     0.014 C 
HETATM   32  C   UNL     1      33.814  26.456  -3.258  1.00  0.00     0.012 C 
BRANCH  31  33
HETATM   33  C   UNL     1      33.621  24.645  -5.040  1.00  0.00     0.002 C 
HETATM   34  C   UNL     1      33.691  24.972  -6.525  1.00  0.00     0.005 C 
ENDBRANCH  31  33
ENDBRANCH  13  31
BRANCH  14  35
HETATM   35  C   UNL     1      27.488  25.194   3.230  1.00  0.00     0.010 C 
HETATM   36  C   UNL     1      26.254  26.067   3.446  1.00  0.00     0.012 C 
HETATM   37  C   UNL     1      27.253  23.790   3.787  1.00  0.00     0.012 C 
ENDBRANCH  14  35
BRANCH  16  38
HETATM   38  C   UNL     1      27.799  22.075  -4.041  1.00  0.00     0.016 C 
HETATM   39  C   UNL     1      27.381  21.296  -5.286  1.00  0.00     0.012 C 
HETATM   40  C   UNL     1      26.608  22.265  -3.103  1.00  0.00     0.012 C 
ENDBRANCH  16  38
BRANCH  18  41
HETATM   41  C   UNL     1      24.720  27.779   0.305  1.00  0.00     0.016 C 
HETATM   42  C   UNL     1      23.610  28.409  -0.532  1.00  0.00     0.012 C 
HETATM   43  C   UNL     1      25.217  28.760   1.364  1.00  0.00     0.012 C 
ENDBRANCH  18  41
BRANCH  15  44
HETATM   44  C   UNL     1      25.313  26.985  -5.245  1.00  0.00     0.010 C 
HETATM   45  C   UNL     1      26.579  27.368  -6.007  1.00  0.00     0.012 C 
HETATM   46  C   UNL     1      24.679  28.214  -4.600  1.00  0.00     0.012 C 
ENDBRANCH  15  44
TORSDOF 7
ENDMDL
