MODEL 1
REMARK VINA RESULT:    -5.821      0.000      0.000
REMARK INTER + INTRA:          -7.443
REMARK INTER:                  -8.202
REMARK INTRA:                   0.759
REMARK UNBOUND:                 0.759
REMARK  7 active torsions:
REMARK  status: ('A' for Active; 'I' for Inactive)
REMARK    1  A    between atoms: C_13  and  C_14 
REMARK    2  A    between atoms: C_14  and  C_19 
REMARK    3  A    between atoms: C_15  and  C_20 
REMARK    4  A    between atoms: C_16  and  C_21 
REMARK    5  A    between atoms: C_17  and  C_23 
REMARK    6  A    between atoms: C_18  and  C_26 
REMARK    7  A    between atoms: C_22  and  C_28 
ROOT
HETATM    1  O   UNL     1      34.968  42.985   6.748  1.00  0.00    -0.304 OA
HETATM    2  O   UNL     1      38.388  42.051   2.911  1.00  0.00    -0.304 OA
HETATM    3  O   UNL     1      34.505  44.520   1.828  1.00  0.00    -0.304 OA
HETATM    4  O   UNL     1      36.764  40.480   5.169  1.00  0.00    -0.270 OA
HETATM    5  O   UNL     1      36.503  44.483   5.902  1.00  0.00    -0.263 OA
HETATM    6  O   UNL     1      34.350  41.998   4.433  1.00  0.00    -0.270 OA
HETATM    7  O   UNL     1      36.627  43.610  -0.448  1.00  0.00    -0.270 OA
HETATM    8  O   UNL     1      40.436  41.819   1.898  1.00  0.00    -0.263 OA
HETATM    9  O   UNL     1      33.846  42.919   0.311  1.00  0.00    -0.263 OA
HETATM   10  N   UNL     1      38.162  42.175   5.916  1.00  0.00    -0.340 N 
HETATM   11  N   UNL     1      32.921  43.687   3.755  1.00  0.00    -0.340 N 
HETATM   12  N   UNL     1      37.693  44.237   1.523  1.00  0.00    -0.340 N 
HETATM   13  C   UNL     1      37.250  42.467   7.041  1.00  0.00     0.190 C 
HETATM   14  C   UNL     1      32.730  43.026   2.446  1.00  0.00     0.190 C 
HETATM   15  C   UNL     1      38.960  43.577   1.143  1.00  0.00     0.190 C 
HETATM   16  C   UNL     1      38.662  40.940   3.788  1.00  0.00     0.227 C 
HETATM   17  C   UNL     1      33.875  43.660   6.087  1.00  0.00     0.227 C 
HETATM   18  C   UNL     1      35.438  45.165   0.943  1.00  0.00     0.227 C 
HETATM   19  C   UNL     1      37.779  41.168   5.012  1.00  0.00     0.250 C 
HETATM   20  C   UNL     1      36.227  43.452   6.500  1.00  0.00     0.283 C 
HETATM   21  C   UNL     1      33.743  43.044   4.692  1.00  0.00     0.250 C 
HETATM   22  C   UNL     1      36.630  44.257   0.604  1.00  0.00     0.250 C 
HETATM   23  C   UNL     1      39.361  42.397   2.024  1.00  0.00     0.283 C 
HETATM   24  C   UNL     1      33.761  43.461   1.407  1.00  0.00     0.283 C 
HETATM   25  C   UNL     1      39.382  42.979   5.797  1.00  0.00     0.153 C 
HETATM   26  C   UNL     1      32.272  44.982   3.969  1.00  0.00     0.153 C 
HETATM   27  C   UNL     1      37.674  44.996   2.774  1.00  0.00     0.153 C 
ENDROOT
BRANCH  17  28
HETATM   28  C   UNL     1      32.626  43.390   6.914  1.00  0.00     0.016 C 
HETATM   29  C   UNL     1      32.864  42.239   7.890  1.00  0.00     0.012 C 
HETATM   30  C   UNL     1      32.194  44.649   7.665  1.00  0.00     0.012 C 
ENDBRANCH  17  28
BRANCH  13  31
HETATM   31  C   UNL     1      37.902  43.025   8.302  1.00  0.00     0.014 C 
HETATM   32  C   UNL     1      36.823  43.460   9.295  1.00  0.00     0.012 C 
BRANCH  31  33
HETATM   33  C   UNL     1      38.861  41.982   8.902  1.00  0.00     0.002 C 
HETATM   34  C   UNL     1      38.186  40.669   9.270  1.00  0.00     0.005 C 
ENDBRANCH  31  33
ENDBRANCH  13  31
BRANCH  14  35
HETATM   35  C   UNL     1      31.322  43.189   1.874  1.00  0.00     0.010 C 
HETATM   36  C   UNL     1      31.338  44.109   0.656  1.00  0.00     0.012 C 
HETATM   37  C   UNL     1      30.726  41.829   1.510  1.00  0.00     0.012 C 
ENDBRANCH  14  35
BRANCH  16  38
HETATM   38  C   UNL     1      38.302  39.645   3.065  1.00  0.00     0.016 C 
HETATM   39  C   UNL     1      39.562  38.863   2.699  1.00  0.00     0.012 C 
HETATM   40  C   UNL     1      37.472  39.938   1.816  1.00  0.00     0.012 C 
ENDBRANCH  16  38
BRANCH  18  41
HETATM   41  C   UNL     1      34.749  45.724  -0.301  1.00  0.00     0.016 C 
HETATM   42  C   UNL     1      35.770  46.360  -1.241  1.00  0.00     0.012 C 
HETATM   43  C   UNL     1      33.675  46.737   0.090  1.00  0.00     0.012 C 
ENDBRANCH  18  41
BRANCH  15  44
HETATM   44  C   UNL     1      40.104  44.586   1.044  1.00  0.00     0.010 C 
HETATM   45  C   UNL     1      39.632  45.865   0.359  1.00  0.00     0.012 C 
HETATM   46  C   UNL     1      41.288  43.979   0.296  1.00  0.00     0.012 C 
ENDBRANCH  15  44
TORSDOF 7
ENDMDL
MODEL 2
REMARK VINA RESULT:    -5.704      2.039      6.680
REMARK INTER + INTRA:          -7.279
REMARK INTER:                  -8.110
REMARK INTRA:                   0.831
REMARK UNBOUND:                 0.759
REMARK  7 active torsions:
REMARK  status: ('A' for Active; 'I' for Inactive)
REMARK    1  A    between atoms: C_13  and  C_14 
REMARK    2  A    between atoms: C_14  and  C_19 
REMARK    3  A    between atoms: C_15  and  C_20 
REMARK    4  A    between atoms: C_16  and  C_21 
REMARK    5  A    between atoms: C_17  and  C_23 
REMARK    6  A    between atoms: C_18  and  C_26 
REMARK    7  A    between atoms: C_22  and  C_28 
ROOT
HETATM    1  O   UNL     1      31.989  42.523   3.953  1.00  0.00    -0.304 OA
HETATM    2  O   UNL     1      36.747  44.339   2.787  1.00  0.00    -0.304 OA
HETATM    3  O   UNL     1      35.879  43.211   7.295  1.00  0.00    -0.304 OA
HETATM    4  O   UNL     1      33.673  45.112   2.385  1.00  0.00    -0.270 OA
HETATM    5  O   UNL     1      33.903  41.260   3.707  1.00  0.00    -0.263 OA
HETATM    6  O   UNL     1      33.179  44.450   5.213  1.00  0.00    -0.270 OA
HETATM    7  O   UNL     1      38.672  44.592   6.399  1.00  0.00    -0.270 OA
HETATM    8  O   UNL     1      38.682  44.613   1.580  1.00  0.00    -0.263 OA
HETATM    9  O   UNL     1      36.283  45.374   7.970  1.00  0.00    -0.263 OA
HETATM   10  N   UNL     1      34.323  43.051   1.539  1.00  0.00    -0.340 N 
HETATM   11  N   UNL     1      33.260  43.447   7.295  1.00  0.00    -0.340 N 
HETATM   12  N   UNL     1      37.927  43.053   4.822  1.00  0.00    -0.340 N 
HETATM   13  C   UNL     1      32.986  42.487   1.815  1.00  0.00     0.190 C 
HETATM   14  C   UNL     1      34.001  44.602   7.844  1.00  0.00     0.190 C 
HETATM   15  C   UNL     1      38.811  43.587   3.764  1.00  0.00     0.190 C 
HETATM   16  C   UNL     1      35.968  44.937   1.732  1.00  0.00     0.227 C 
HETATM   17  C   UNL     1      32.015  42.367   5.389  1.00  0.00     0.227 C 
HETATM   18  C   UNL     1      37.266  42.831   7.229  1.00  0.00     0.227 C 
HETATM   19  C   UNL     1      34.556  44.386   1.914  1.00  0.00     0.250 C 
HETATM   20  C   UNL     1      33.034  41.992   3.252  1.00  0.00     0.283 C 
HETATM   21  C   UNL     1      32.869  43.508   5.950  1.00  0.00     0.250 C 
HETATM   22  C   UNL     1      38.015  43.584   6.120  1.00  0.00     0.250 C 
HETATM   23  C   UNL     1      38.088  44.223   2.581  1.00  0.00     0.283 C 
HETATM   24  C   UNL     1      35.515  44.458   7.699  1.00  0.00     0.283 C 
HETATM   25  C   UNL     1      35.325  42.171   0.929  1.00  0.00     0.153 C 
HETATM   26  C   UNL     1      33.019  42.305   8.180  1.00  0.00     0.153 C 
HETATM   27  C   UNL     1      37.130  41.867   4.502  1.00  0.00     0.153 C 
ENDROOT
BRANCH  17  28
HETATM   28  C   UNL     1      30.577  42.486   5.871  1.00  0.00     0.016 C 
HETATM   29  C   UNL     1      30.052  43.905   5.659  1.00  0.00     0.012 C 
HETATM   30  C   UNL     1      29.683  41.473   5.156  1.00  0.00     0.012 C 
ENDBRANCH  17  28
BRANCH  13  31
HETATM   31  C   UNL     1      32.529  41.366   0.888  1.00  0.00     0.014 C 
HETATM   32  C   UNL     1      31.461  40.520   1.583  1.00  0.00     0.012 C 
BRANCH  31  33
HETATM   33  C   UNL     1      32.031  41.956  -0.443  1.00  0.00     0.002 C 
HETATM   34  C   UNL     1      31.194  43.217  -0.279  1.00  0.00     0.005 C 
ENDBRANCH  31  33
ENDBRANCH  13  31
BRANCH  14  35
HETATM   35  C   UNL     1      33.652  44.924   9.297  1.00  0.00     0.010 C 
HETATM   36  C   UNL     1      34.853  44.681  10.208  1.00  0.00     0.012 C 
HETATM   37  C   UNL     1      33.164  46.366   9.429  1.00  0.00     0.012 C 
ENDBRANCH  14  35
BRANCH  16  38
HETATM   38  C   UNL     1      36.007  46.454   1.894  1.00  0.00     0.016 C 
HETATM   39  C   UNL     1      36.721  47.105   0.711  1.00  0.00     0.012 C 
HETATM   40  C   UNL     1      36.687  46.839   3.207  1.00  0.00     0.012 C 
ENDBRANCH  16  38
BRANCH  18  41
HETATM   41  C   UNL     1      37.952  42.948   8.589  1.00  0.00     0.016 C 
HETATM   42  C   UNL     1      39.431  42.586   8.477  1.00  0.00     0.012 C 
HETATM   43  C   UNL     1      37.259  42.058   9.618  1.00  0.00     0.012 C 
ENDBRANCH  18  41
BRANCH  15  44
HETATM   44  C   UNL     1      39.801  42.527   3.280  1.00  0.00     0.010 C 
HETATM   45  C   UNL     1      39.095  41.495   2.405  1.00  0.00     0.012 C 
HETATM   46  C   UNL     1      40.483  41.852   4.466  1.00  0.00     0.012 C 
ENDBRANCH  15  44
TORSDOF 7
ENDMDL
MODEL 3
REMARK VINA RESULT:    -5.309      1.677      2.284
REMARK INTER + INTRA:          -6.722
REMARK INTER:                  -7.771
REMARK INTRA:                   1.049
REMARK UNBOUND:                 0.759
REMARK  7 active torsions:
REMARK  status: ('A' for Active; 'I' for Inactive)
REMARK    1  A    between atoms: C_13  and  C_14 
REMARK    2  A    between atoms: C_14  and  C_19 
REMARK    3  A    between atoms: C_15  and  C_20 
REMARK    4  A    between atoms: C_16  and  C_21 
REMARK    5  A    between atoms: C_17  and  C_23 
REMARK    6  A    between atoms: C_18  and  C_26 
REMARK    7  A    between atoms: C_22  and  C_28 
ROOT
HETATM    1  O   UNL     1      36.198  43.239   6.717  1.00  0.00    -0.304 OA
HETATM    2  O   UNL     1      37.654  41.388   2.054  1.00  0.00    -0.304 OA
HETATM    3  O   UNL     1      33.295  43.176   2.433  1.00  0.00    -0.304 OA
HETATM    4  O   UNL     1      37.554  40.484   5.115  1.00  0.00    -0.270 OA
HETATM    5  O   UNL     1      36.864  44.498   4.903  1.00  0.00    -0.263 OA
HETATM    6  O   UNL     1      34.819  41.560   5.303  1.00  0.00    -0.270 OA
HETATM    7  O   UNL     1      34.310  41.746  -0.293  1.00  0.00    -0.270 OA
HETATM    8  O   UNL     1      39.035  40.981   0.263  1.00  0.00    -0.263 OA
HETATM    9  O   UNL     1      32.358  41.153   1.858  1.00  0.00    -0.263 OA
HETATM   10  N   UNL     1      38.773  42.406   4.662  1.00  0.00    -0.340 N 
HETATM   11  N   UNL     1      32.937  42.875   5.021  1.00  0.00    -0.340 N 
HETATM   12  N   UNL     1      35.997  43.003   0.700  1.00  0.00    -0.340 N 
HETATM   13  C   UNL     1      38.423  42.971   5.981  1.00  0.00     0.190 C 
HETATM   14  C   UNL     1      32.316  41.837   4.170  1.00  0.00     0.190 C 
HETATM   15  C   UNL     1      37.063  42.335  -0.076  1.00  0.00     0.190 C 
HETATM   16  C   UNL     1      38.504  40.615   2.924  1.00  0.00     0.227 C 
HETATM   17  C   UNL     1      34.816  43.615   6.529  1.00  0.00     0.227 C 
HETATM   18  C   UNL     1      33.587  43.576   1.083  1.00  0.00     0.227 C 
HETATM   19  C   UNL     1      38.234  41.151   4.327  1.00  0.00     0.250 C 
HETATM   20  C   UNL     1      37.094  43.682   5.786  1.00  0.00     0.283 C 
HETATM   21  C   UNL     1      34.199  42.597   5.565  1.00  0.00     0.250 C 
HETATM   22  C   UNL     1      34.654  42.681   0.437  1.00  0.00     0.250 C 
HETATM   23  C   UNL     1      38.039  41.505   0.753  1.00  0.00     0.283 C 
HETATM   24  C   UNL     1      32.666  41.997   2.692  1.00  0.00     0.283 C 
HETATM   25  C   UNL     1      39.627  43.206   3.779  1.00  0.00     0.153 C 
HETATM   26  C   UNL     1      32.210  44.133   5.207  1.00  0.00     0.153 C 
HETATM   27  C   UNL     1      36.390  44.104   1.581  1.00  0.00     0.153 C 
ENDROOT
BRANCH  17  28
HETATM   28  C   UNL     1      34.148  43.535   7.894  1.00  0.00     0.016 C 
HETATM   29  C   UNL     1      35.133  43.032   8.948  1.00  0.00     0.012 C 
HETATM   30  C   UNL     1      33.581  44.896   8.298  1.00  0.00     0.012 C 
ENDBRANCH  17  28
BRANCH  13  31
HETATM   31  C   UNL     1      39.444  43.923   6.593  1.00  0.00     0.014 C 
HETATM   32  C   UNL     1      38.725  45.089   7.274  1.00  0.00     0.012 C 
BRANCH  31  33
HETATM   33  C   UNL     1      40.361  43.156   7.563  1.00  0.00     0.002 C 
HETATM   34  C   UNL     1      39.615  42.479   8.704  1.00  0.00     0.005 C 
ENDBRANCH  31  33
ENDBRANCH  13  31
BRANCH  14  35
HETATM   35  C   UNL     1      30.800  41.735   4.332  1.00  0.00     0.010 C 
HETATM   36  C   UNL     1      30.088  42.207   3.065  1.00  0.00     0.012 C 
HETATM   37  C   UNL     1      30.388  40.303   4.674  1.00  0.00     0.012 C 
ENDBRANCH  14  35
BRANCH  16  38
HETATM   38  C   UNL     1      38.122  39.142   2.799  1.00  0.00     0.016 C 
HETATM   39  C   UNL     1      39.332  38.304   2.392  1.00  0.00     0.012 C 
HETATM   40  C   UNL     1      36.985  38.963   1.794  1.00  0.00     0.012 C 
ENDBRANCH  16  38
BRANCH  18  41
HETATM   41  C   UNL     1      32.319  43.689   0.236  1.00  0.00     0.016 C 
HETATM   42  C   UNL     1      32.664  44.090  -1.196  1.00  0.00     0.012 C 
HETATM   43  C   UNL     1      31.348  44.691   0.856  1.00  0.00     0.012 C 
ENDBRANCH  18  41
BRANCH  15  44
HETATM   44  C   UNL     1      37.819  43.333  -0.954  1.00  0.00     0.010 C 
HETATM   45  C   UNL     1      38.676  44.258  -0.096  1.00  0.00     0.012 C 
HETATM   46  C   UNL     1      36.844  44.139  -1.808  1.00  0.00     0.012 C 
ENDBRANCH  15  44
TORSDOF 7
ENDMDL
MODEL 4
REMARK VINA RESULT:    -5.208      3.130      8.062
REMARK INTER + INTRA:          -6.580
REMARK INTER:                  -7.318
REMARK INTRA:                   0.738
REMARK UNBOUND:                 0.759
REMARK  7 active torsions:
REMARK  status: ('A' for Active; 'I' for Inactive)
REMARK    1  A    between atoms: C_13  and  C_14 
REMARK    2  A    between atoms: C_14  and  C_19 
REMARK    3  A    between atoms: C_15  and  C_20 
REMARK    4  A    between atoms: C_16  and  C_21 
REMARK    5  A    between atoms: C_17  and  C_23 
REMARK    6  A    between atoms: C_18  and  C_26 
REMARK    7  A    between atoms: C_22  and  C_28 
ROOT
HETATM    1  O   UNL     1      35.491  42.352   5.902  1.00  0.00    -0.304 OA
HETATM    2  O   UNL     1      30.552  42.834   4.271  1.00  0.00    -0.304 OA
HETATM    3  O   UNL     1      31.777  45.095   8.237  1.00  0.00    -0.304 OA
HETATM    4  O   UNL     1      32.703  40.558   4.899  1.00  0.00    -0.270 OA
HETATM    5  O   UNL     1      34.595  44.170   4.803  1.00  0.00    -0.263 OA
HETATM    6  O   UNL     1      33.405  41.965   7.390  1.00  0.00    -0.270 OA
HETATM    7  O   UNL     1      28.710  45.050   7.188  1.00  0.00    -0.270 OA
HETATM    8  O   UNL     1      28.818  43.092   2.786  1.00  0.00    -0.263 OA
HETATM    9  O   UNL     1      30.232  43.902   9.457  1.00  0.00    -0.263 OA
HETATM   10  N   UNL     1      33.317  42.124   3.299  1.00  0.00    -0.340 N 
HETATM   11  N   UNL     1      33.833  43.619   8.949  1.00  0.00    -0.340 N 
HETATM   12  N   UNL     1      30.220  45.230   5.427  1.00  0.00    -0.340 N 
HETATM   13  C   UNL     1      34.736  42.009   3.693  1.00  0.00     0.190 C 
HETATM   14  C   UNL     1      32.565  43.317   9.645  1.00  0.00     0.190 C 
HETATM   15  C   UNL     1      29.216  44.828   4.419  1.00  0.00     0.190 C 
HETATM   16  C   UNL     1      30.901  41.563   3.688  1.00  0.00     0.227 C 
HETATM   17  C   UNL     1      35.517  43.064   7.158  1.00  0.00     0.227 C 
HETATM   18  C   UNL     1      30.830  46.046   7.717  1.00  0.00     0.227 C 
HETATM   19  C   UNL     1      32.378  41.363   4.018  1.00  0.00     0.250 C 
HETATM   20  C   UNL     1      34.930  42.993   4.835  1.00  0.00     0.283 C 
HETATM   21  C   UNL     1      34.162  42.835   7.833  1.00  0.00     0.250 C 
HETATM   22  C   UNL     1      29.820  45.388   6.765  1.00  0.00     0.250 C 
HETATM   23  C   UNL     1      29.502  43.503   3.719  1.00  0.00     0.283 C 
HETATM   24  C   UNL     1      31.385  44.118   9.099  1.00  0.00     0.283 C 
HETATM   25  C   UNL     1      32.980  43.050   2.213  1.00  0.00     0.153 C 
HETATM   26  C   UNL     1      34.639  44.736   9.446  1.00  0.00     0.153 C 
HETATM   27  C   UNL     1      31.546  45.619   4.945  1.00  0.00     0.153 C 
ENDROOT
BRANCH  17  28
HETATM   28  C   UNL     1      36.640  42.457   7.986  1.00  0.00     0.016 C 
HETATM   29  C   UNL     1      37.121  41.147   7.364  1.00  0.00     0.012 C 
HETATM   30  C   UNL     1      37.801  43.441   8.125  1.00  0.00     0.012 C 
ENDBRANCH  17  28
BRANCH  13  31
HETATM   31  C   UNL     1      35.758  42.271   2.593  1.00  0.00     0.014 C 
HETATM   32  C   UNL     1      37.101  42.662   3.213  1.00  0.00     0.012 C 
BRANCH  31  33
HETATM   33  C   UNL     1      35.875  41.038   1.680  1.00  0.00     0.002 C 
HETATM   34  C   UNL     1      37.282  40.462   1.604  1.00  0.00     0.005 C 
ENDBRANCH  31  33
ENDBRANCH  13  31
BRANCH  14  35
HETATM   35  C   UNL     1      32.641  43.484  11.163  1.00  0.00     0.010 C 
HETATM   36  C   UNL     1      32.120  44.857  11.583  1.00  0.00     0.012 C 
HETATM   37  C   UNL     1      31.859  42.376  11.868  1.00  0.00     0.012 C 
ENDBRANCH  14  35
BRANCH  16  38
HETATM   38  C   UNL     1      30.030  40.479   4.319  1.00  0.00     0.016 C 
HETATM   39  C   UNL     1      29.090  39.871   3.280  1.00  0.00     0.012 C 
HETATM   40  C   UNL     1      29.235  41.044   5.495  1.00  0.00     0.012 C 
ENDBRANCH  16  38
BRANCH  18  41
HETATM   41  C   UNL     1      30.156  46.844   8.833  1.00  0.00     0.016 C 
HETATM   42  C   UNL     1      29.077  47.760   8.260  1.00  0.00     0.012 C 
HETATM   43  C   UNL     1      31.190  47.655   9.611  1.00  0.00     0.012 C 
ENDBRANCH  18  41
BRANCH  15  44
HETATM   44  C   UNL     1      28.986  45.938   3.392  1.00  0.00     0.010 C 
HETATM   45  C   UNL     1      27.492  46.155   3.167  1.00  0.00     0.012 C 
HETATM   46  C   UNL     1      29.686  45.604   2.079  1.00  0.00     0.012 C 
ENDBRANCH  15  44
TORSDOF 7
ENDMDL
MODEL 5
REMARK VINA RESULT:    -5.028      2.303      6.177
REMARK INTER + INTRA:          -6.327
REMARK INTER:                  -7.412
REMARK INTRA:                   1.086
REMARK UNBOUND:                 0.759
REMARK  7 active torsions:
REMARK  status: ('A' for Active; 'I' for Inactive)
REMARK    1  A    between atoms: C_13  and  C_14 
REMARK    2  A    between atoms: C_14  and  C_19 
REMARK    3  A    between atoms: C_15  and  C_20 
REMARK    4  A    between atoms: C_16  and  C_21 
REMARK    5  A    between atoms: C_17  and  C_23 
REMARK    6  A    between atoms: C_18  and  C_26 
REMARK    7  A    between atoms: C_22  and  C_28 
ROOT
HETATM    1  O   UNL     1      37.686  39.089   1.083  1.00  0.00    -0.304 OA
HETATM    2  O   UNL     1      37.779  43.558   3.788  1.00  0.00    -0.304 OA
HETATM    3  O   UNL     1      33.618  41.363   3.331  1.00  0.00    -0.304 OA
HETATM    4  O   UNL     1      38.707  42.397   0.960  1.00  0.00    -0.270 OA
HETATM    5  O   UNL     1      37.652  39.288   3.381  1.00  0.00    -0.263 OA
HETATM    6  O   UNL     1      36.083  41.086   0.683  1.00  0.00    -0.270 OA
HETATM    7  O   UNL     1      33.857  44.270   4.746  1.00  0.00    -0.270 OA
HETATM    8  O   UNL     1      38.569  45.141   5.254  1.00  0.00    -0.263 OA
HETATM    9  O   UNL     1      32.721  43.178   2.235  1.00  0.00    -0.263 OA
HETATM   10  N   UNL     1      39.561  41.321   2.831  1.00  0.00    -0.340 N 
HETATM   11  N   UNL     1      34.103  39.983   1.146  1.00  0.00    -0.340 N 
HETATM   12  N   UNL     1      35.656  42.898   5.287  1.00  0.00    -0.340 N 
HETATM   13  C   UNL     1      39.589  40.032   2.109  1.00  0.00     0.190 C 
HETATM   14  C   UNL     1      33.339  41.233   0.950  1.00  0.00     0.190 C 
HETATM   15  C   UNL     1      36.482  44.030   5.757  1.00  0.00     0.190 C 
HETATM   16  C   UNL     1      38.918  43.746   2.924  1.00  0.00     0.227 C 
HETATM   17  C   UNL     1      36.288  38.730   1.047  1.00  0.00     0.227 C 
HETATM   18  C   UNL     1      33.444  41.906   4.652  1.00  0.00     0.227 C 
HETATM   19  C   UNL     1      39.052  42.439   2.147  1.00  0.00     0.250 C 
HETATM   20  C   UNL     1      38.211  39.421   2.300  1.00  0.00     0.283 C 
HETATM   21  C   UNL     1      35.491  40.034   0.947  1.00  0.00     0.250 C 
HETATM   22  C   UNL     1      34.330  43.138   4.887  1.00  0.00     0.250 C 
HETATM   23  C   UNL     1      37.733  44.305   4.926  1.00  0.00     0.283 C 
HETATM   24  C   UNL     1      33.201  42.049   2.233  1.00  0.00     0.283 C 
HETATM   25  C   UNL     1      40.030  41.339   4.220  1.00  0.00     0.153 C 
HETATM   26  C   UNL     1      33.368  38.789   1.570  1.00  0.00     0.153 C 
HETATM   27  C   UNL     1      36.209  41.551   5.433  1.00  0.00     0.153 C 
ENDROOT
BRANCH  17  28
HETATM   28  C   UNL     1      36.083  37.878  -0.197  1.00  0.00     0.016 C 
HETATM   29  C   UNL     1      37.269  38.024  -1.151  1.00  0.00     0.012 C 
HETATM   30  C   UNL     1      35.877  36.412   0.180  1.00  0.00     0.012 C 
ENDBRANCH  17  28
BRANCH  13  31
HETATM   31  C   UNL     1      40.667  39.046   2.545  1.00  0.00     0.014 C 
HETATM   32  C   UNL     1      40.328  37.645   2.033  1.00  0.00     0.012 C 
BRANCH  31  33
HETATM   33  C   UNL     1      42.046  39.527   2.060  1.00  0.00     0.002 C 
HETATM   34  C   UNL     1      43.167  39.278   3.060  1.00  0.00     0.005 C 
ENDBRANCH  31  33
ENDBRANCH  13  31
BRANCH  14  35
HETATM   35  C   UNL     1      31.961  41.020   0.324  1.00  0.00     0.010 C 
HETATM   36  C   UNL     1      30.857  41.297   1.342  1.00  0.00     0.012 C 
HETATM   37  C   UNL     1      31.785  41.905  -0.909  1.00  0.00     0.012 C 
ENDBRANCH  14  35
BRANCH  16  38
HETATM   38  C   UNL     1      38.640  44.927   1.999  1.00  0.00     0.016 C 
HETATM   39  C   UNL     1      37.255  44.803   1.366  1.00  0.00     0.012 C 
HETATM   40  C   UNL     1      39.715  45.030   0.918  1.00  0.00     0.012 C 
ENDBRANCH  16  38
BRANCH  18  41
HETATM   41  C   UNL     1      31.972  42.168   4.970  1.00  0.00     0.016 C 
HETATM   42  C   UNL     1      31.822  42.755   6.371  1.00  0.00     0.012 C 
HETATM   43  C   UNL     1      31.157  40.884   4.835  1.00  0.00     0.012 C 
ENDBRANCH  18  41
BRANCH  15  44
HETATM   44  C   UNL     1      36.844  43.878   7.235  1.00  0.00     0.010 C 
HETATM   45  C   UNL     1      36.499  45.151   8.003  1.00  0.00     0.012 C 
HETATM   46  C   UNL     1      38.323  43.539   7.390  1.00  0.00     0.012 C 
ENDBRANCH  15  44
TORSDOF 7
ENDMDL
MODEL 6
REMARK VINA RESULT:    -4.991      8.118     12.139
REMARK INTER + INTRA:          -6.273
REMARK INTER:                  -6.835
REMARK INTRA:                   0.562
REMARK UNBOUND:                 0.759
REMARK  7 active torsions:
REMARK  status: ('A' for Active; 'I' for Inactive)
REMARK    1  A    between atoms: C_13  and  C_14 
REMARK    2  A    between atoms: C_14  and  C_19 
REMARK    3  A    between atoms: C_15  and  C_20 
REMARK    4  A    between atoms: C_16  and  C_21 
REMARK    5  A    between atoms: C_17  and  C_23 
REMARK    6  A    between atoms: C_18  and  C_26 
REMARK    7  A    between atoms: C_22  and  C_28 
ROOT
HETATM    1  O   UNL     1      27.265  40.803   3.051  1.00  0.00    -0.304 OA
HETATM    2  O   UNL     1      27.860  36.223   5.493  1.00  0.00    -0.304 OA
HETATM    3  O   UNL     1      25.075  36.321   1.675  1.00  0.00    -0.304 OA
HETATM    4  O   UNL     1      27.083  39.252   6.143  1.00  0.00    -0.270 OA
HETATM    5  O   UNL     1      28.621  39.066   2.370  1.00  0.00    -0.263 OA
HETATM    6  O   UNL     1      25.316  39.262   3.786  1.00  0.00    -0.270 OA
HETATM    7  O   UNL     1      25.380  33.649   3.484  1.00  0.00    -0.270 OA
HETATM    8  O   UNL     1      28.946  34.530   6.603  1.00  0.00    -0.263 OA
HETATM    9  O   UNL     1      23.260  35.641   2.916  1.00  0.00    -0.263 OA
HETATM   10  N   UNL     1      29.158  38.924   5.157  1.00  0.00    -0.340 N 
HETATM   11  N   UNL     1      24.430  38.870   1.686  1.00  0.00    -0.340 N 
HETATM   12  N   UNL     1      27.400  34.784   3.278  1.00  0.00    -0.340 N 
HETATM   13  C   UNL     1      29.064  40.225   4.463  1.00  0.00     0.190 C 
HETATM   14  C   UNL     1      23.419  37.957   2.261  1.00  0.00     0.190 C 
HETATM   15  C   UNL     1      28.008  34.074   4.423  1.00  0.00     0.190 C 
HETATM   16  C   UNL     1      28.113  37.137   6.578  1.00  0.00     0.227 C 
HETATM   17  C   UNL     1      26.304  40.523   2.010  1.00  0.00     0.227 C 
HETATM   18  C   UNL     1      25.630  35.002   1.517  1.00  0.00     0.227 C 
HETATM   19  C   UNL     1      28.066  38.527   5.949  1.00  0.00     0.250 C 
HETATM   20  C   UNL     1      28.324  39.948   3.165  1.00  0.00     0.283 C 
HETATM   21  C   UNL     1      25.316  39.498   2.573  1.00  0.00     0.250 C 
HETATM   22  C   UNL     1      26.111  34.419   2.854  1.00  0.00     0.250 C 
HETATM   23  C   UNL     1      28.341  34.956   5.624  1.00  0.00     0.283 C 
HETATM   24  C   UNL     1      23.905  36.512   2.342  1.00  0.00     0.283 C 
HETATM   25  C   UNL     1      30.366  38.120   4.944  1.00  0.00     0.153 C 
HETATM   26  C   UNL     1      24.461  39.027   0.230  1.00  0.00     0.153 C 
HETATM   27  C   UNL     1      28.248  35.711   2.528  1.00  0.00     0.153 C 
ENDROOT
BRANCH  17  28
HETATM   28  C   UNL     1      25.599  41.834   1.697  1.00  0.00     0.016 C 
HETATM   29  C   UNL     1      25.730  42.810   2.866  1.00  0.00     0.012 C 
HETATM   30  C   UNL     1      26.157  42.455   0.417  1.00  0.00     0.012 C 
ENDBRANCH  17  28
BRANCH  13  31
HETATM   31  C   UNL     1      30.387  40.927   4.176  1.00  0.00     0.014 C 
HETATM   32  C   UNL     1      30.251  41.801   2.929  1.00  0.00     0.012 C 
BRANCH  31  33
HETATM   33  C   UNL     1      30.831  41.733   5.409  1.00  0.00     0.002 C 
HETATM   34  C   UNL     1      29.709  42.534   6.054  1.00  0.00     0.005 C 
ENDBRANCH  31  33
ENDBRANCH  13  31
BRANCH  14  35
HETATM   35  C   UNL     1      22.068  38.007   1.549  1.00  0.00     0.010 C 
HETATM   36  C   UNL     1      21.814  36.712   0.781  1.00  0.00     0.012 C 
HETATM   37  C   UNL     1      20.940  38.266   2.547  1.00  0.00     0.012 C 
ENDBRANCH  14  35
BRANCH  16  38
HETATM   38  C   UNL     1      27.025  36.958   7.633  1.00  0.00     0.016 C 
HETATM   39  C   UNL     1      27.616  36.405   8.929  1.00  0.00     0.012 C 
HETATM   40  C   UNL     1      25.918  36.040   7.115  1.00  0.00     0.012 C 
ENDBRANCH  16  38
BRANCH  18  41
HETATM   41  C   UNL     1      24.674  34.069   0.775  1.00  0.00     0.016 C 
HETATM   42  C   UNL     1      25.270  32.668   0.665  1.00  0.00     0.012 C 
HETATM   43  C   UNL     1      24.350  34.624  -0.610  1.00  0.00     0.012 C 
ENDBRANCH  18  41
BRANCH  15  44
HETATM   44  C   UNL     1      29.236  33.272   3.990  1.00  0.00     0.010 C 
HETATM   45  C   UNL     1      29.183  31.860   4.569  1.00  0.00     0.012 C 
HETATM   46  C   UNL     1      30.516  33.982   4.419  1.00  0.00     0.012 C 
ENDBRANCH  15  44
TORSDOF 7
ENDMDL
MODEL 7
REMARK VINA RESULT:    -4.974      2.090      6.635
REMARK INTER + INTRA:          -6.250
REMARK INTER:                  -6.944
REMARK INTRA:                   0.693
REMARK UNBOUND:                 0.759
REMARK  7 active torsions:
REMARK  status: ('A' for Active; 'I' for Inactive)
REMARK    1  A    between atoms: C_13  and  C_14 
REMARK    2  A    between atoms: C_14  and  C_19 
REMARK    3  A    between atoms: C_15  and  C_20 
REMARK    4  A    between atoms: C_16  and  C_21 
REMARK    5  A    between atoms: C_17  and  C_23 
REMARK    6  A    between atoms: C_18  and  C_26 
REMARK    7  A    between atoms: C_22  and  C_28 
ROOT
HETATM    1  O   UNL     1      32.249  41.829   2.973  1.00  0.00    -0.304 OA
HETATM    2  O   UNL     1      36.439  44.620   1.577  1.00  0.00    -0.304 OA
HETATM    3  O   UNL     1      36.355  42.841   5.955  1.00  0.00    -0.304 OA
HETATM    4  O   UNL     1      33.253  44.849   1.604  1.00  0.00    -0.270 OA
HETATM    5  O   UNL     1      34.304  40.981   2.360  1.00  0.00    -0.263 OA
HETATM    6  O   UNL     1      33.240  43.787   4.352  1.00  0.00    -0.270 OA
HETATM    7  O   UNL     1      38.733  44.810   4.970  1.00  0.00    -0.270 OA
HETATM    8  O   UNL     1      38.130  45.386   0.223  1.00  0.00    -0.263 OA
HETATM    9  O   UNL     1      36.464  44.950   6.871  1.00  0.00    -0.263 OA
HETATM   10  N   UNL     1      34.134  43.055   0.424  1.00  0.00    -0.340 N 
HETATM   11  N   UNL     1      33.756  42.584   6.259  1.00  0.00    -0.340 N 
HETATM   12  N   UNL     1      38.070  43.351   3.284  1.00  0.00    -0.340 N 
HETATM   13  C   UNL     1      32.958  42.224   0.758  1.00  0.00     0.190 C 
HETATM   14  C   UNL     1      34.351  43.787   6.880  1.00  0.00     0.190 C 
HETATM   15  C   UNL     1      38.708  44.157   2.223  1.00  0.00     0.190 C 
HETATM   16  C   UNL     1      35.442  45.180   0.699  1.00  0.00     0.227 C 
HETATM   17  C   UNL     1      32.483  41.518   4.364  1.00  0.00     0.227 C 
HETATM   18  C   UNL     1      37.766  42.736   5.695  1.00  0.00     0.227 C 
HETATM   19  C   UNL     1      34.180  44.359   0.950  1.00  0.00     0.250 C 
HETATM   20  C   UNL     1      33.272  41.586   2.101  1.00  0.00     0.283 C 
HETATM   21  C   UNL     1      33.192  42.725   4.982  1.00  0.00     0.250 C 
HETATM   22  C   UNL     1      38.229  43.737   4.626  1.00  0.00     0.250 C 
HETATM   23  C   UNL     1      37.743  44.780   1.218  1.00  0.00     0.283 C 
HETATM   24  C   UNL     1      35.836  43.943   6.560  1.00  0.00     0.283 C 
HETATM   25  C   UNL     1      35.186  42.453  -0.401  1.00  0.00     0.153 C 
HETATM   26  C   UNL     1      33.827  41.323   7.001  1.00  0.00     0.153 C 
HETATM   27  C   UNL     1      37.453  42.083   2.892  1.00  0.00     0.153 C 
ENDROOT
BRANCH  17  28
HETATM   28  C   UNL     1      31.118  41.310   5.004  1.00  0.00     0.016 C 
HETATM   29  C   UNL     1      30.116  42.341   4.485  1.00  0.00     0.012 C 
HETATM   30  C   UNL     1      30.609  39.893   4.744  1.00  0.00     0.012 C 
ENDBRANCH  17  28
BRANCH  13  31
HETATM   31  C   UNL     1      32.587  41.152  -0.260  1.00  0.00     0.014 C 
HETATM   32  C   UNL     1      31.758  40.058   0.416  1.00  0.00     0.012 C 
BRANCH  31  33
HETATM   33  C   UNL     1      31.849  41.791  -1.450  1.00  0.00     0.002 C 
HETATM   34  C   UNL     1      32.452  41.441  -2.804  1.00  0.00     0.005 C 
ENDBRANCH  31  33
ENDBRANCH  13  31
BRANCH  14  35
HETATM   35  C   UNL     1      34.138  43.869   8.391  1.00  0.00     0.010 C 
HETATM   36  C   UNL     1      35.433  43.553   9.137  1.00  0.00     0.012 C 
HETATM   37  C   UNL     1      33.615  45.249   8.789  1.00  0.00     0.012 C 
ENDBRANCH  14  35
BRANCH  16  38
HETATM   38  C   UNL     1      35.240  46.649   1.060  1.00  0.00     0.016 C 
HETATM   39  C   UNL     1      35.787  47.555  -0.041  1.00  0.00     0.012 C 
HETATM   40  C   UNL     1      35.905  46.971   2.397  1.00  0.00     0.012 C 
ENDBRANCH  16  38
BRANCH  18  41
HETATM   41  C   UNL     1      38.589  42.821   6.980  1.00  0.00     0.016 C 
HETATM   42  C   UNL     1      40.082  42.802   6.663  1.00  0.00     0.012 C 
HETATM   43  C   UNL     1      38.226  41.679   7.926  1.00  0.00     0.012 C 
ENDBRANCH  18  41
BRANCH  15  44
HETATM   44  C   UNL     1      39.796  43.363   1.499  1.00  0.00     0.010 C 
HETATM   45  C   UNL     1      40.933  44.285   1.066  1.00  0.00     0.012 C 
HETATM   46  C   UNL     1      39.210  42.628   0.297  1.00  0.00     0.012 C 
ENDBRANCH  15  44
TORSDOF 7
ENDMDL
MODEL 8
REMARK VINA RESULT:    -4.834      3.268      5.477
REMARK INTER + INTRA:          -6.053
REMARK INTER:                  -6.690
REMARK INTRA:                   0.637
REMARK UNBOUND:                 0.759
REMARK  7 active torsions:
REMARK  status: ('A' for Active; 'I' for Inactive)
REMARK    1  A    between atoms: C_13  and  C_14 
REMARK    2  A    between atoms: C_14  and  C_19 
REMARK    3  A    between atoms: C_15  and  C_20 
REMARK    4  A    between atoms: C_16  and  C_21 
REMARK    5  A    between atoms: C_17  and  C_23 
REMARK    6  A    between atoms: C_18  and  C_26 
REMARK    7  A    between atoms: C_22  and  C_28 
ROOT
HETATM    1  O   UNL     1      37.531  44.795   2.851  1.00  0.00    -0.304 OA
HETATM    2  O   UNL     1      39.519  40.298   1.085  1.00  0.00    -0.304 OA
HETATM    3  O   UNL     1      39.570  44.012  -1.840  1.00  0.00    -0.304 OA
HETATM    4  O   UNL     1      36.865  41.418   2.467  1.00  0.00    -0.270 OA
HETATM    5  O   UNL     1      39.771  44.272   2.686  1.00  0.00    -0.263 OA
HETATM    6  O   UNL     1      36.898  43.691   0.594  1.00  0.00    -0.270 OA
HETATM    7  O   UNL     1      40.516  41.069  -2.817  1.00  0.00    -0.270 OA
HETATM    8  O   UNL     1      40.694  38.325   1.140  1.00  0.00    -0.263 OA
HETATM    9  O   UNL     1      38.248  42.899  -3.361  1.00  0.00    -0.263 OA
HETATM   10  N   UNL     1      38.842  41.759   3.635  1.00  0.00    -0.340 N 
HETATM   11  N   UNL     1      37.603  45.405  -0.790  1.00  0.00    -0.340 N 
HETATM   12  N   UNL     1      41.185  41.507  -0.633  1.00  0.00    -0.340 N 
HETATM   13  C   UNL     1      38.324  43.024   4.193  1.00  0.00     0.190 C 
HETATM   14  C   UNL     1      37.250  44.610  -1.986  1.00  0.00     0.190 C 
HETATM   15  C   UNL     1      41.444  40.082  -0.340  1.00  0.00     0.190 C 
HETATM   16  C   UNL     1      38.591  39.809   2.073  1.00  0.00     0.227 C 
HETATM   17  C   UNL     1      37.607  45.682   1.714  1.00  0.00     0.227 C 
HETATM   18  C   UNL     1      40.799  43.385  -2.248  1.00  0.00     0.227 C 
HETATM   19  C   UNL     1      38.017  41.057   2.737  1.00  0.00     0.250 C 
HETATM   20  C   UNL     1      38.661  44.096   3.170  1.00  0.00     0.283 C 
HETATM   21  C   UNL     1      37.342  44.837   0.465  1.00  0.00     0.250 C 
HETATM   22  C   UNL     1      40.809  41.881  -1.934  1.00  0.00     0.250 C 
HETATM   23  C   UNL     1      40.531  39.465   0.716  1.00  0.00     0.283 C 
HETATM   24  C   UNL     1      38.398  43.728  -2.470  1.00  0.00     0.283 C 
HETATM   25  C   UNL     1      40.192  41.339   4.024  1.00  0.00     0.153 C 
HETATM   26  C   UNL     1      38.233  46.711  -0.997  1.00  0.00     0.153 C 
HETATM   27  C   UNL     1      41.512  42.482   0.409  1.00  0.00     0.153 C 
ENDROOT
BRANCH  17  28
HETATM   28  C   UNL     1      36.516  46.727   1.898  1.00  0.00     0.016 C 
HETATM   29  C   UNL     1      35.432  46.215   2.846  1.00  0.00     0.012 C 
HETATM   30  C   UNL     1      37.105  48.038   2.417  1.00  0.00     0.012 C 
ENDBRANCH  17  28
BRANCH  13  31
HETATM   31  C   UNL     1      38.861  43.419   5.565  1.00  0.00     0.014 C 
HETATM   32  C   UNL     1      38.572  44.897   5.830  1.00  0.00     0.012 C 
BRANCH  31  33
HETATM   33  C   UNL     1      38.260  42.503   6.647  1.00  0.00     0.002 C 
HETATM   34  C   UNL     1      39.037  42.512   7.956  1.00  0.00     0.005 C 
ENDBRANCH  31  33
ENDBRANCH  13  31
BRANCH  14  35
HETATM   35  C   UNL     1      36.720  45.450  -3.149  1.00  0.00     0.010 C 
HETATM   36  C   UNL     1      37.742  45.508  -4.282  1.00  0.00     0.012 C 
HETATM   37  C   UNL     1      35.390  44.892  -3.655  1.00  0.00     0.012 C 
ENDBRANCH  14  35
BRANCH  16  38
HETATM   38  C   UNL     1      37.509  38.995   1.369  1.00  0.00     0.016 C 
HETATM   39  C   UNL     1      37.632  37.514   1.722  1.00  0.00     0.012 C 
HETATM   40  C   UNL     1      37.586  39.192  -0.144  1.00  0.00     0.012 C 
ENDBRANCH  16  38
BRANCH  18  41
HETATM   41  C   UNL     1      41.133  43.685  -3.709  1.00  0.00     0.016 C 
HETATM   42  C   UNL     1      42.406  42.955  -4.130  1.00  0.00     0.012 C 
HETATM   43  C   UNL     1      41.279  45.189  -3.927  1.00  0.00     0.012 C 
ENDBRANCH  18  41
BRANCH  15  44
HETATM   44  C   UNL     1      42.912  39.846   0.017  1.00  0.00     0.010 C 
HETATM   45  C   UNL     1      43.471  38.666  -0.773  1.00  0.00     0.012 C 
HETATM   46  C   UNL     1      43.066  39.611   1.517  1.00  0.00     0.012 C 
ENDBRANCH  15  44
TORSDOF 7
ENDMDL
MODEL 9
REMARK VINA RESULT:    -4.687      9.631     14.841
REMARK INTER + INTRA:          -5.846
REMARK INTER:                  -6.774
REMARK INTRA:                   0.928
REMARK UNBOUND:                 0.759
REMARK  7 active torsions:
REMARK  status: ('A' for Active; 'I' for Inactive)
REMARK    1  A    between atoms: C_13  and  C_14 
REMARK    2  A    between atoms: C_14  and  C_19 
REMARK    3  A    between atoms: C_15  and  C_20 
REMARK    4  A    between atoms: C_16  and  C_21 
REMARK    5  A    between atoms: C_17  and  C_23 
REMARK    6  A    between atoms: C_18  and  C_26 
REMARK    7  A    between atoms: C_22  and  C_28 
ROOT
HETATM    1  O   UNL     1      24.719  33.646   0.740  1.00  0.00    -0.304 OA
HETATM    2  O   UNL     1      23.559  38.178   3.065  1.00  0.00    -0.304 OA
HETATM    3  O   UNL     1      27.875  36.389   3.788  1.00  0.00    -0.304 OA
HETATM    4  O   UNL     1      22.383  35.224   2.752  1.00  0.00    -0.270 OA
HETATM    5  O   UNL     1      25.391  35.740   0.047  1.00  0.00    -0.263 OA
HETATM    6  O   UNL     1      25.075  34.142   3.259  1.00  0.00    -0.270 OA
HETATM    7  O   UNL     1      26.861  39.051   5.335  1.00  0.00    -0.270 OA
HETATM    8  O   UNL     1      22.672  40.284   3.296  1.00  0.00    -0.263 OA
HETATM    9  O   UNL     1      27.494  36.247   6.054  1.00  0.00    -0.263 OA
HETATM   10  N   UNL     1      22.725  36.398   0.779  1.00  0.00    -0.340 N 
HETATM   11  N   UNL     1      27.370  33.855   3.302  1.00  0.00    -0.340 N 
HETATM   12  N   UNL     1      26.111  38.996   3.133  1.00  0.00    -0.340 N 
HETATM   13  C   UNL     1      23.031  35.145   0.057  1.00  0.00     0.190 C 
HETATM   14  C   UNL     1      27.409  34.231   4.732  1.00  0.00     0.190 C 
HETATM   15  C   UNL     1      25.073  40.020   3.376  1.00  0.00     0.190 C 
HETATM   16  C   UNL     1      22.244  37.606   2.926  1.00  0.00     0.227 C 
HETATM   17  C   UNL     1      26.042  33.331   1.226  1.00  0.00     0.227 C 
HETATM   18  C   UNL     1      28.205  37.789   3.797  1.00  0.00     0.227 C 
HETATM   19  C   UNL     1      22.451  36.305   2.155  1.00  0.00     0.250 C 
HETATM   20  C   UNL     1      24.519  34.907   0.256  1.00  0.00     0.283 C 
HETATM   21  C   UNL     1      26.116  33.814   2.677  1.00  0.00     0.250 C 
HETATM   22  C   UNL     1      26.998  38.662   4.171  1.00  0.00     0.250 C 
HETATM   23  C   UNL     1      23.636  39.527   3.230  1.00  0.00     0.283 C 
HETATM   24  C   UNL     1      27.579  35.734   4.943  1.00  0.00     0.283 C 
HETATM   25  C   UNL     1      22.763  37.652   0.021  1.00  0.00     0.153 C 
HETATM   26  C   UNL     1      28.644  33.587   2.630  1.00  0.00     0.153 C 
HETATM   27  C   UNL     1      26.277  38.512   1.762  1.00  0.00     0.153 C 
ENDROOT
BRANCH  17  28
HETATM   28  C   UNL     1      26.189  31.817   1.156  1.00  0.00     0.016 C 
HETATM   29  C   UNL     1      24.820  31.148   1.046  1.00  0.00     0.012 C 
HETATM   30  C   UNL     1      27.077  31.415  -0.021  1.00  0.00     0.012 C 
ENDBRANCH  17  28
BRANCH  13  31
HETATM   31  C   UNL     1      22.690  35.130  -1.429  1.00  0.00     0.014 C 
HETATM   32  C   UNL     1      23.585  34.126  -2.157  1.00  0.00     0.012 C 
BRANCH  31  33
HETATM   33  C   UNL     1      21.194  34.826  -1.621  1.00  0.00     0.002 C 
HETATM   34  C   UNL     1      20.643  33.813  -0.627  1.00  0.00     0.005 C 
ENDBRANCH  31  33
ENDBRANCH  13  31
BRANCH  14  35
HETATM   35  C   UNL     1      28.464  33.475   5.539  1.00  0.00     0.010 C 
HETATM   36  C   UNL     1      29.755  34.287   5.635  1.00  0.00     0.012 C 
HETATM   37  C   UNL     1      27.939  33.139   6.935  1.00  0.00     0.012 C 
ENDBRANCH  14  35
BRANCH  16  38
HETATM   38  C   UNL     1      21.670  37.352   4.318  1.00  0.00     0.016 C 
HETATM   39  C   UNL     1      20.307  38.026   4.470  1.00  0.00     0.012 C 
HETATM   40  C   UNL     1      22.634  37.845   5.396  1.00  0.00     0.012 C 
ENDBRANCH  16  38
BRANCH  18  41
HETATM   41  C   UNL     1      29.433  38.078   4.660  1.00  0.00     0.016 C 
HETATM   42  C   UNL     1      29.696  39.580   4.734  1.00  0.00     0.012 C 
HETATM   43  C   UNL     1      30.656  37.345   4.115  1.00  0.00     0.012 C 
ENDBRANCH  18  41
BRANCH  15  44
HETATM   44  C   UNL     1      25.304  41.261   2.513  1.00  0.00     0.010 C 
HETATM   45  C   UNL     1      26.781  41.648   2.517  1.00  0.00     0.012 C 
HETATM   46  C   UNL     1      24.442  42.420   3.003  1.00  0.00     0.012 C 
ENDBRANCH  15  44
TORSDOF 7
ENDMDL
MODEL 10
REMARK VINA RESULT:    -4.559      4.900     10.114
REMARK INTER + INTRA:          -5.665
REMARK INTER:                  -6.456
REMARK INTRA:                   0.790
REMARK UNBOUND:                 0.759
REMARK  7 active torsions:
REMARK  status: ('A' for Active; 'I' for Inactive)
REMARK    1  A    between atoms: C_13  and  C_14 
REMARK    2  A    between atoms: C_14  and  C_19 
REMARK    3  A    between atoms: C_15  and  C_20 
REMARK    4  A    between atoms: C_16  and  C_21 
REMARK    5  A    between atoms: C_17  and  C_23 
REMARK    6  A    between atoms: C_18  and  C_26 
REMARK    7  A    between atoms: C_22  and  C_28 
ROOT
HETATM    1  O   UNL     1      38.978  35.102   1.177  1.00  0.00    -0.304 OA
HETATM    2  O   UNL     1      39.686  40.272   1.412  1.00  0.00    -0.304 OA
HETATM    3  O   UNL     1      43.416  37.603   0.267  1.00  0.00    -0.304 OA
HETATM    4  O   UNL     1      38.518  37.886   3.185  1.00  0.00    -0.270 OA
HETATM    5  O   UNL     1      39.095  36.540  -0.621  1.00  0.00    -0.263 OA
HETATM    6  O   UNL     1      40.881  36.269   2.494  1.00  0.00    -0.270 OA
HETATM    7  O   UNL     1      43.693  40.802   0.718  1.00  0.00    -0.270 OA
HETATM    8  O   UNL     1      39.202  42.501   1.129  1.00  0.00    -0.263 OA
HETATM    9  O   UNL     1      44.577  38.340   2.113  1.00  0.00    -0.263 OA
HETATM   10  N   UNL     1      37.538  38.179   1.101  1.00  0.00    -0.340 N 
HETATM   11  N   UNL     1      42.660  35.331   1.352  1.00  0.00    -0.340 N 
HETATM   12  N   UNL     1      41.703  40.252  -0.355  1.00  0.00    -0.340 N 
HETATM   13  C   UNL     1      37.281  36.729   0.989  1.00  0.00     0.190 C 
HETATM   14  C   UNL     1      43.617  36.128   2.150  1.00  0.00     0.190 C 
HETATM   15  C   UNL     1      41.087  41.562  -0.058  1.00  0.00     0.190 C 
HETATM   16  C   UNL     1      38.576  40.115   2.317  1.00  0.00     0.227 C 
HETATM   17  C   UNL     1      40.297  34.579   0.905  1.00  0.00     0.227 C 
HETATM   18  C   UNL     1      43.706  38.757  -0.542  1.00  0.00     0.227 C 
HETATM   19  C   UNL     1      38.211  38.635   2.250  1.00  0.00     0.250 C 
HETATM   20  C   UNL     1      38.543  36.130   0.391  1.00  0.00     0.283 C 
HETATM   21  C   UNL     1      41.296  35.469   1.650  1.00  0.00     0.250 C 
HETATM   22  C   UNL     1      43.041  40.027   0.010  1.00  0.00     0.250 C 
HETATM   23  C   UNL     1      39.881  41.510   0.877  1.00  0.00     0.283 C 
HETATM   24  C   UNL     1      43.917  37.489   1.526  1.00  0.00     0.283 C 
HETATM   25  C   UNL     1      37.109  39.039  -0.007  1.00  0.00     0.153 C 
HETATM   26  C   UNL     1      43.197  34.483   0.286  1.00  0.00     0.153 C 
HETATM   27  C   UNL     1      40.938  39.316  -1.180  1.00  0.00     0.153 C 
ENDROOT
BRANCH  17  28
HETATM   28  C   UNL     1      40.330  33.159   1.451  1.00  0.00     0.016 C 
HETATM   29  C   UNL     1      38.959  32.759   1.995  1.00  0.00     0.012 C 
HETATM   30  C   UNL     1      40.786  32.177   0.373  1.00  0.00     0.012 C 
ENDBRANCH  17  28
BRANCH  13  31
HETATM   31  C   UNL     1      36.064  36.328   0.162  1.00  0.00     0.014 C 
HETATM   32  C   UNL     1      36.182  34.862  -0.258  1.00  0.00     0.012 C 
BRANCH  31  33
HETATM   33  C   UNL     1      34.775  36.606   0.956  1.00  0.00     0.002 C 
HETATM   34  C   UNL     1      33.736  37.399   0.176  1.00  0.00     0.005 C 
ENDBRANCH  31  33
ENDBRANCH  13  31
BRANCH  14  35
HETATM   35  C   UNL     1      44.927  35.399   2.449  1.00  0.00     0.010 C 
HETATM   36  C   UNL     1      46.080  36.016   1.661  1.00  0.00     0.012 C 
HETATM   37  C   UNL     1      45.229  35.423   3.947  1.00  0.00     0.012 C 
ENDBRANCH  14  35
BRANCH  16  38
HETATM   38  C   UNL     1      39.025  40.522   3.718  1.00  0.00     0.016 C 
HETATM   39  C   UNL     1      38.237  41.737   4.205  1.00  0.00     0.012 C 
HETATM   40  C   UNL     1      40.525  40.813   3.740  1.00  0.00     0.012 C 
ENDBRANCH  16  38
BRANCH  18  41
HETATM   41  C   UNL     1      45.208  38.928  -0.770  1.00  0.00     0.016 C 
HETATM   42  C   UNL     1      45.486  40.186  -1.590  1.00  0.00     0.012 C 
HETATM   43  C   UNL     1      45.789  37.697  -1.461  1.00  0.00     0.012 C 
ENDBRANCH  18  41
BRANCH  15  44
HETATM   44  C   UNL     1      40.737  42.316  -1.341  1.00  0.00     0.010 C 
HETATM   45  C   UNL     1      41.159  43.779  -1.234  1.00  0.00     0.012 C 
HETATM   46  C   UNL     1      39.244  42.206  -1.635  1.00  0.00     0.012 C 
ENDBRANCH  15  44
TORSDOF 7
ENDMDL
MODEL 11
REMARK VINA RESULT:    -4.543      2.385      6.653
REMARK INTER + INTRA:          -5.642
REMARK INTER:                  -6.632
REMARK INTRA:                   0.990
REMARK UNBOUND:                 0.759
REMARK  7 active torsions:
REMARK  status: ('A' for Active; 'I' for Inactive)
REMARK    1  A    between atoms: C_13  and  C_14 
REMARK    2  A    between atoms: C_14  and  C_19 
REMARK    3  A    between atoms: C_15  and  C_20 
REMARK    4  A    between atoms: C_16  and  C_21 
REMARK    5  A    between atoms: C_17  and  C_23 
REMARK    6  A    between atoms: C_18  and  C_26 
REMARK    7  A    between atoms: C_22  and  C_28 
ROOT
HETATM    1  O   UNL     1      34.609  39.799   1.598  1.00  0.00    -0.304 OA
HETATM    2  O   UNL     1      36.995  44.019   3.545  1.00  0.00    -0.304 OA
HETATM    3  O   UNL     1      39.107  41.768  -0.035  1.00  0.00    -0.304 OA
HETATM    4  O   UNL     1      35.723  41.261   4.534  1.00  0.00    -0.270 OA
HETATM    5  O   UNL     1      34.625  41.905   0.659  1.00  0.00    -0.263 OA
HETATM    6  O   UNL     1      37.096  39.881   2.323  1.00  0.00    -0.270 OA
HETATM    7  O   UNL     1      40.534  44.250   1.487  1.00  0.00    -0.270 OA
HETATM    8  O   UNL     1      37.199  46.138   4.409  1.00  0.00    -0.263 OA
HETATM    9  O   UNL     1      40.955  41.324   1.265  1.00  0.00    -0.263 OA
HETATM   10  N   UNL     1      34.298  42.680   3.374  1.00  0.00    -0.340 N 
HETATM   11  N   UNL     1      38.029  39.389   0.265  1.00  0.00    -0.340 N 
HETATM   12  N   UNL     1      38.245  44.590   1.243  1.00  0.00    -0.340 N 
HETATM   13  C   UNL     1      33.563  41.527   2.815  1.00  0.00     0.190 C 
HETATM   14  C   UNL     1      39.389  39.543   0.823  1.00  0.00     0.190 C 
HETATM   15  C   UNL     1      38.212  45.653   2.269  1.00  0.00     0.190 C 
HETATM   16  C   UNL     1      36.231  43.593   4.691  1.00  0.00     0.227 C 
HETATM   17  C   UNL     1      35.534  39.299   0.607  1.00  0.00     0.227 C 
HETATM   18  C   UNL     1      39.492  43.117  -0.356  1.00  0.00     0.227 C 
HETATM   19  C   UNL     1      35.402  42.408   4.202  1.00  0.00     0.250 C 
HETATM   20  C   UNL     1      34.311  41.131   1.553  1.00  0.00     0.283 C 
HETATM   21  C   UNL     1      36.946  39.553   1.141  1.00  0.00     0.250 C 
HETATM   22  C   UNL     1      39.481  44.027   0.881  1.00  0.00     0.250 C 
HETATM   23  C   UNL     1      37.406  45.317   3.520  1.00  0.00     0.283 C 
HETATM   24  C   UNL     1      39.907  40.977   0.730  1.00  0.00     0.283 C 
HETATM   25  C   UNL     1      33.852  44.025   2.999  1.00  0.00     0.153 C 
HETATM   26  C   UNL     1      37.904  39.112  -1.168  1.00  0.00     0.153 C 
HETATM   27  C   UNL     1      37.002  44.302   0.525  1.00  0.00     0.153 C 
ENDROOT
BRANCH  17  28
HETATM   28  C   UNL     1      35.271  37.806   0.472  1.00  0.00     0.016 C 
HETATM   29  C   UNL     1      34.010  37.409   1.239  1.00  0.00     0.012 C 
HETATM   30  C   UNL     1      35.149  37.411  -0.999  1.00  0.00     0.012 C 
ENDBRANCH  17  28
BRANCH  13  31
HETATM   31  C   UNL     1      32.089  41.763   2.501  1.00  0.00     0.014 C 
HETATM   32  C   UNL     1      31.602  40.728   1.486  1.00  0.00     0.012 C 
BRANCH  31  33
HETATM   33  C   UNL     1      31.265  41.739   3.801  1.00  0.00     0.002 C 
HETATM   34  C   UNL     1      31.486  40.490   4.643  1.00  0.00     0.005 C 
ENDBRANCH  31  33
ENDBRANCH  13  31
BRANCH  14  35
HETATM   35  C   UNL     1      40.415  38.585   0.218  1.00  0.00     0.010 C 
HETATM   36  C   UNL     1      41.407  39.342  -0.664  1.00  0.00     0.012 C 
HETATM   37  C   UNL     1      41.153  37.820   1.316  1.00  0.00     0.012 C 
ENDBRANCH  14  35
BRANCH  16  38
HETATM   38  C   UNL     1      37.197  43.187   5.800  1.00  0.00     0.016 C 
HETATM   39  C   UNL     1      37.130  44.176   6.963  1.00  0.00     0.012 C 
HETATM   40  C   UNL     1      38.624  43.089   5.263  1.00  0.00     0.012 C 
ENDBRANCH  16  38
BRANCH  18  41
HETATM   41  C   UNL     1      40.819  43.164  -1.113  1.00  0.00     0.016 C 
HETATM   42  C   UNL     1      41.209  44.607  -1.423  1.00  0.00     0.012 C 
HETATM   43  C   UNL     1      40.734  42.343  -2.397  1.00  0.00     0.012 C 
ENDBRANCH  18  41
BRANCH  15  44
HETATM   44  C   UNL     1      37.748  46.984   1.674  1.00  0.00     0.010 C 
HETATM   45  C   UNL     1      36.251  46.945   1.380  1.00  0.00     0.012 C 
HETATM   46  C   UNL     1      38.537  47.307   0.409  1.00  0.00     0.012 C 
ENDBRANCH  15  44
TORSDOF 7
ENDMDL
MODEL 12
REMARK VINA RESULT:    -4.358      8.814     13.046
REMARK INTER + INTRA:          -5.382
REMARK INTER:                  -6.890
REMARK INTRA:                   1.508
REMARK UNBOUND:                 0.759
REMARK  7 active torsions:
REMARK  status: ('A' for Active; 'I' for Inactive)
REMARK    1  A    between atoms: C_13  and  C_14 
REMARK    2  A    between atoms: C_14  and  C_19 
REMARK    3  A    between atoms: C_15  and  C_20 
REMARK    4  A    between atoms: C_16  and  C_21 
REMARK    5  A    between atoms: C_17  and  C_23 
REMARK    6  A    between atoms: C_18  and  C_26 
REMARK    7  A    between atoms: C_22  and  C_28 
ROOT
HETATM    1  O   UNL     1      23.924  35.271   2.673  1.00  0.00    -0.304 OA
HETATM    2  O   UNL     1      27.868  37.917   4.849  1.00  0.00    -0.304 OA
HETATM    3  O   UNL     1      28.964  34.417   1.867  1.00  0.00    -0.304 OA
HETATM    4  O   UNL     1      25.207  36.367   5.698  1.00  0.00    -0.270 OA
HETATM    5  O   UNL     1      25.182  36.915   1.656  1.00  0.00    -0.263 OA
HETATM    6  O   UNL     1      25.947  34.179   3.870  1.00  0.00    -0.270 OA
HETATM    7  O   UNL     1      31.249  36.015   3.520  1.00  0.00    -0.270 OA
HETATM    8  O   UNL     1      29.033  39.736   5.634  1.00  0.00    -0.263 OA
HETATM    9  O   UNL     1      30.091  33.286   3.526  1.00  0.00    -0.263 OA
HETATM   10  N   UNL     1      24.928  38.130   4.213  1.00  0.00    -0.340 N 
HETATM   11  N   UNL     1      26.763  32.990   2.061  1.00  0.00    -0.340 N 
HETATM   12  N   UNL     1      29.546  37.434   2.814  1.00  0.00    -0.340 N 
HETATM   13  C   UNL     1      23.784  37.446   3.576  1.00  0.00     0.190 C 
HETATM   14  C   UNL     1      27.905  32.509   2.869  1.00  0.00     0.190 C 
HETATM   15  C   UNL     1      29.932  38.501   3.761  1.00  0.00     0.190 C 
HETATM   16  C   UNL     1      26.840  38.110   5.840  1.00  0.00     0.227 C 
HETATM   17  C   UNL     1      24.577  34.234   1.909  1.00  0.00     0.227 C 
HETATM   18  C   UNL     1      30.043  35.319   1.564  1.00  0.00     0.227 C 
HETATM   19  C   UNL     1      25.591  37.456   5.255  1.00  0.00     0.250 C 
HETATM   20  C   UNL     1      24.383  36.547   2.507  1.00  0.00     0.283 C 
HETATM   21  C   UNL     1      25.818  33.807   2.698  1.00  0.00     0.250 C 
HETATM   22  C   UNL     1      30.336  36.275   2.730  1.00  0.00     0.250 C 
HETATM   23  C   UNL     1      28.900  38.806   4.844  1.00  0.00     0.283 C 
HETATM   24  C   UNL     1      29.107  33.448   2.812  1.00  0.00     0.283 C 
HETATM   25  C   UNL     1      25.316  39.445   3.693  1.00  0.00     0.153 C 
HETATM   26  C   UNL     1      26.718  32.613   0.646  1.00  0.00     0.153 C 
HETATM   27  C   UNL     1      28.456  37.720   1.880  1.00  0.00     0.153 C 
ENDROOT
BRANCH  17  28
HETATM   28  C   UNL     1      23.589  33.082   1.796  1.00  0.00     0.016 C 
HETATM   29  C   UNL     1      22.247  33.460   2.420  1.00  0.00     0.012 C 
HETATM   30  C   UNL     1      23.403  32.672   0.335  1.00  0.00     0.012 C 
ENDBRANCH  17  28
BRANCH  13  31
HETATM   31  C   UNL     1      22.719  38.351   2.967  1.00  0.00     0.014 C 
HETATM   32  C   UNL     1      22.113  37.682   1.732  1.00  0.00     0.012 C 
BRANCH  31  33
HETATM   33  C   UNL     1      21.657  38.698   4.024  1.00  0.00     0.002 C 
HETATM   34  C   UNL     1      21.834  37.950   5.338  1.00  0.00     0.005 C 
ENDBRANCH  31  33
ENDBRANCH  13  31
BRANCH  14  35
HETATM   35  C   UNL     1      28.346  31.086   2.524  1.00  0.00     0.010 C 
HETATM   36  C   UNL     1      29.637  31.104   1.710  1.00  0.00     0.012 C 
HETATM   37  C   UNL     1      28.526  30.254   3.794  1.00  0.00     0.012 C 
ENDBRANCH  14  35
BRANCH  16  38
HETATM   38  C   UNL     1      27.277  37.433   7.137  1.00  0.00     0.016 C 
HETATM   39  C   UNL     1      27.820  36.033   6.857  1.00  0.00     0.012 C 
HETATM   40  C   UNL     1      26.116  37.368   8.128  1.00  0.00     0.012 C 
ENDBRANCH  16  38
BRANCH  18  41
HETATM   41  C   UNL     1      31.288  34.574   1.083  1.00  0.00     0.016 C 
HETATM   42  C   UNL     1      32.432  35.552   0.826  1.00  0.00     0.012 C 
HETATM   43  C   UNL     1      30.978  33.769  -0.176  1.00  0.00     0.012 C 
ENDBRANCH  18  41
BRANCH  15  44
HETATM   44  C   UNL     1      30.329  39.780   3.024  1.00  0.00     0.010 C 
HETATM   45  C   UNL     1      31.020  39.445   1.705  1.00  0.00     0.012 C 
HETATM   46  C   UNL     1      31.232  40.643   3.901  1.00  0.00     0.012 C 
ENDBRANCH  15  44
TORSDOF 7
ENDMDL
MODEL 13
REMARK VINA RESULT:    -4.283     11.210     16.272
REMARK INTER + INTRA:          -5.276
REMARK INTER:                  -5.868
REMARK INTRA:                   0.592
REMARK UNBOUND:                 0.759
REMARK  7 active torsions:
REMARK  status: ('A' for Active; 'I' for Inactive)
REMARK    1  A    between atoms: C_13  and  C_14 
REMARK    2  A    between atoms: C_14  and  C_19 
REMARK    3  A    between atoms: C_15  and  C_20 
REMARK    4  A    between atoms: C_16  and  C_21 
REMARK    5  A    between atoms: C_17  and  C_23 
REMARK    6  A    between atoms: C_18  and  C_26 
REMARK    7  A    between atoms: C_22  and  C_28 
ROOT
HETATM    1  O   UNL     1      24.939  33.706   0.638  1.00  0.00    -0.304 OA
HETATM    2  O   UNL     1      20.783  36.806   1.280  1.00  0.00    -0.304 OA
HETATM    3  O   UNL     1      24.971  38.429   2.752  1.00  0.00    -0.304 OA
HETATM    4  O   UNL     1      21.717  33.816   1.905  1.00  0.00    -0.270 OA
HETATM    5  O   UNL     1      24.378  35.516  -0.676  1.00  0.00    -0.263 OA
HETATM    6  O   UNL     1      24.296  34.866   2.865  1.00  0.00    -0.270 OA
HETATM    7  O   UNL     1      22.231  40.077   3.284  1.00  0.00    -0.270 OA
HETATM    8  O   UNL     1      18.795  37.833   0.760  1.00  0.00    -0.263 OA
HETATM    9  O   UNL     1      24.207  38.590   4.918  1.00  0.00    -0.263 OA
HETATM   10  N   UNL     1      21.766  34.451  -0.327  1.00  0.00    -0.340 N 
HETATM   11  N   UNL     1      26.213  36.139   3.108  1.00  0.00    -0.340 N 
HETATM   12  N   UNL     1      22.232  39.060   1.192  1.00  0.00    -0.340 N 
HETATM   13  C   UNL     1      22.923  33.568  -0.580  1.00  0.00     0.190 C 
HETATM   14  C   UNL     1      25.667  36.761   4.333  1.00  0.00     0.190 C 
HETATM   15  C   UNL     1      20.769  39.198   1.034  1.00  0.00     0.190 C 
HETATM   16  C   UNL     1      20.151  35.511   1.276  1.00  0.00     0.227 C 
HETATM   17  C   UNL     1      26.019  34.434   1.262  1.00  0.00     0.227 C 
HETATM   18  C   UNL     1      24.389  39.670   2.313  1.00  0.00     0.227 C 
HETATM   19  C   UNL     1      21.273  34.518   0.989  1.00  0.00     0.250 C 
HETATM   20  C   UNL     1      24.155  34.393  -0.244  1.00  0.00     0.283 C 
HETATM   21  C   UNL     1      25.431  35.162   2.474  1.00  0.00     0.250 C 
HETATM   22  C   UNL     1      22.854  39.618   2.322  1.00  0.00     0.250 C 
HETATM   23  C   UNL     1      19.998  37.882   0.992  1.00  0.00     0.283 C 
HETATM   24  C   UNL     1      24.851  38.019   4.044  1.00  0.00     0.283 C 
HETATM   25  C   UNL     1      21.236  35.225  -1.454  1.00  0.00     0.153 C 
HETATM   26  C   UNL     1      27.512  36.608   2.621  1.00  0.00     0.153 C 
HETATM   27  C   UNL     1      22.985  38.503   0.066  1.00  0.00     0.153 C 
ENDROOT
BRANCH  17  28
HETATM   28  C   UNL     1      27.049  33.404   1.702  1.00  0.00     0.016 C 
HETATM   29  C   UNL     1      26.458  31.995   1.651  1.00  0.00     0.012 C 
HETATM   30  C   UNL     1      28.303  33.489   0.834  1.00  0.00     0.012 C 
ENDBRANCH  17  28
BRANCH  13  31
HETATM   31  C   UNL     1      23.037  33.003  -1.991  1.00  0.00     0.014 C 
HETATM   32  C   UNL     1      24.493  32.646  -2.292  1.00  0.00     0.012 C 
BRANCH  31  33
HETATM   33  C   UNL     1      22.095  31.797  -2.152  1.00  0.00     0.002 C 
HETATM   34  C   UNL     1      22.226  30.765  -1.040  1.00  0.00     0.005 C 
ENDBRANCH  31  33
ENDBRANCH  13  31
BRANCH  14  35
HETATM   35  C   UNL     1      26.725  37.066   5.393  1.00  0.00     0.010 C 
HETATM   36  C   UNL     1      27.037  38.561   5.429  1.00  0.00     0.012 C 
HETATM   37  C   UNL     1      26.268  36.582   6.768  1.00  0.00     0.012 C 
ENDBRANCH  14  35
BRANCH  16  38
HETATM   38  C   UNL     1      19.520  35.270   2.645  1.00  0.00     0.016 C 
HETATM   39  C   UNL     1      18.000  35.172   2.529  1.00  0.00     0.012 C 
HETATM   40  C   UNL     1      19.911  36.379   3.621  1.00  0.00     0.012 C 
ENDBRANCH  16  38
BRANCH  18  41
HETATM   41  C   UNL     1      24.944  40.864   3.089  1.00  0.00     0.016 C 
HETATM   42  C   UNL     1      24.239  42.151   2.669  1.00  0.00     0.012 C 
HETATM   43  C   UNL     1      26.452  40.985   2.880  1.00  0.00     0.012 C 
ENDBRANCH  18  41
BRANCH  15  44
HETATM   44  C   UNL     1      20.420  40.062  -0.179  1.00  0.00     0.010 C 
HETATM   45  C   UNL     1      19.370  41.105   0.192  1.00  0.00     0.012 C 
HETATM   46  C   UNL     1      19.931  39.190  -1.332  1.00  0.00     0.012 C 
ENDBRANCH  15  44
TORSDOF 7
ENDMDL
MODEL 14
REMARK VINA RESULT:    -4.211      3.003      6.856
REMARK INTER + INTRA:          -5.175
REMARK INTER:                  -6.144
REMARK INTRA:                   0.970
REMARK UNBOUND:                 0.759
REMARK  7 active torsions:
REMARK  status: ('A' for Active; 'I' for Inactive)
REMARK    1  A    between atoms: C_13  and  C_14 
REMARK    2  A    between atoms: C_14  and  C_19 
REMARK    3  A    between atoms: C_15  and  C_20 
REMARK    4  A    between atoms: C_16  and  C_21 
REMARK    5  A    between atoms: C_17  and  C_23 
REMARK    6  A    between atoms: C_18  and  C_26 
REMARK    7  A    between atoms: C_22  and  C_28 
ROOT
HETATM    1  O   UNL     1      36.964  45.074  -1.107  1.00  0.00    -0.304 OA
HETATM    2  O   UNL     1      39.042  42.379   2.857  1.00  0.00    -0.304 OA
HETATM    3  O   UNL     1      35.962  40.134   0.062  1.00  0.00    -0.304 OA
HETATM    4  O   UNL     1      37.532  45.141   2.309  1.00  0.00    -0.270 OA
HETATM    5  O   UNL     1      38.668  43.527  -1.260  1.00  0.00    -0.263 OA
HETATM    6  O   UNL     1      35.599  43.701   0.616  1.00  0.00    -0.270 OA
HETATM    7  O   UNL     1      37.173  38.732   2.723  1.00  0.00    -0.270 OA
HETATM    8  O   UNL     1      40.659  41.651   4.318  1.00  0.00    -0.263 OA
HETATM    9  O   UNL     1      34.540  39.766   1.835  1.00  0.00    -0.263 OA
HETATM   10  N   UNL     1      39.506  44.810   1.134  1.00  0.00    -0.340 N 
HETATM   11  N   UNL     1      34.645  42.209  -0.872  1.00  0.00    -0.340 N 
HETATM   12  N   UNL     1      38.771  40.015   1.622  1.00  0.00    -0.340 N 
HETATM   13  C   UNL     1      38.987  45.590  -0.009  1.00  0.00     0.190 C 
HETATM   14  C   UNL     1      33.989  41.490   0.241  1.00  0.00     0.190 C 
HETATM   15  C   UNL     1      39.665  40.057   2.798  1.00  0.00     0.190 C 
HETATM   16  C   UNL     1      39.143  43.723   3.368  1.00  0.00     0.227 C 
HETATM   17  C   UNL     1      36.016  44.157  -1.695  1.00  0.00     0.227 C 
HETATM   18  C   UNL     1      36.838  39.033   0.364  1.00  0.00     0.227 C 
HETATM   19  C   UNL     1      38.652  44.620   2.235  1.00  0.00     0.250 C 
HETATM   20  C   UNL     1      38.223  44.600  -0.872  1.00  0.00     0.283 C 
HETATM   21  C   UNL     1      35.410  43.340  -0.550  1.00  0.00     0.250 C 
HETATM   22  C   UNL     1      37.595  39.247   1.683  1.00  0.00     0.250 C 
HETATM   23  C   UNL     1      39.864  41.443   3.407  1.00  0.00     0.283 C 
HETATM   24  C   UNL     1      34.859  40.377   0.820  1.00  0.00     0.283 C 
HETATM   25  C   UNL     1      40.860  44.256   1.027  1.00  0.00     0.153 C 
HETATM   26  C   UNL     1      34.483  41.672  -2.225  1.00  0.00     0.153 C 
HETATM   27  C   UNL     1      39.250  40.634   0.385  1.00  0.00     0.153 C 
ENDROOT
BRANCH  17  28
HETATM   28  C   UNL     1      34.949  45.002  -2.375  1.00  0.00     0.016 C 
HETATM   29  C   UNL     1      34.630  46.242  -1.540  1.00  0.00     0.012 C 
HETATM   30  C   UNL     1      35.393  45.404  -3.781  1.00  0.00     0.012 C 
ENDBRANCH  17  28
BRANCH  13  31
HETATM   31  C   UNL     1      40.029  46.323  -0.845  1.00  0.00     0.014 C 
HETATM   32  C   UNL     1      39.633  46.281  -2.322  1.00  0.00     0.012 C 
BRANCH  31  33
HETATM   33  C   UNL     1      40.199  47.763  -0.328  1.00  0.00     0.002 C 
HETATM   34  C   UNL     1      41.221  48.578  -1.108  1.00  0.00     0.005 C 
ENDBRANCH  31  33
ENDBRANCH  13  31
BRANCH  14  35
HETATM   35  C   UNL     1      32.610  40.933  -0.115  1.00  0.00     0.010 C 
HETATM   36  C   UNL     1      32.655  39.410  -0.226  1.00  0.00     0.012 C 
HETATM   37  C   UNL     1      31.571  41.363   0.920  1.00  0.00     0.012 C 
ENDBRANCH  14  35
BRANCH  16  38
HETATM   38  C   UNL     1      38.260  43.844   4.607  1.00  0.00     0.016 C 
HETATM   39  C   UNL     1      39.112  44.038   5.860  1.00  0.00     0.012 C 
HETATM   40  C   UNL     1      37.366  42.614   4.753  1.00  0.00     0.012 C 
ENDBRANCH  16  38
BRANCH  18  41
HETATM   41  C   UNL     1      36.105  37.693   0.315  1.00  0.00     0.016 C 
HETATM   42  C   UNL     1      37.043  36.554   0.708  1.00  0.00     0.012 C 
HETATM   43  C   UNL     1      35.522  37.451  -1.075  1.00  0.00     0.012 C 
ENDBRANCH  18  41
BRANCH  15  44
HETATM   44  C   UNL     1      41.015  39.407   2.494  1.00  0.00     0.010 C 
HETATM   45  C   UNL     1      41.728  40.156   1.372  1.00  0.00     0.012 C 
HETATM   46  C   UNL     1      40.829  37.937   2.128  1.00  0.00     0.012 C 
ENDBRANCH  15  44
TORSDOF 7
ENDMDL
MODEL 15
REMARK VINA RESULT:    -4.170      9.178     13.292
REMARK INTER + INTRA:          -5.117
REMARK INTER:                  -6.002
REMARK INTRA:                   0.885
REMARK UNBOUND:                 0.759
REMARK  7 active torsions:
REMARK  status: ('A' for Active; 'I' for Inactive)
REMARK    1  A    between atoms: C_13  and  C_14 
REMARK    2  A    between atoms: C_14  and  C_19 
REMARK    3  A    between atoms: C_15  and  C_20 
REMARK    4  A    between atoms: C_16  and  C_21 
REMARK    5  A    between atoms: C_17  and  C_23 
REMARK    6  A    between atoms: C_18  and  C_26 
REMARK    7  A    between atoms: C_22  and  C_28 
ROOT
HETATM    1  O   UNL     1      27.220  32.957   1.036  1.00  0.00    -0.304 OA
HETATM    2  O   UNL     1      28.720  36.921   4.091  1.00  0.00    -0.304 OA
HETATM    3  O   UNL     1      24.132  36.618   2.997  1.00  0.00    -0.304 OA
HETATM    4  O   UNL     1      29.480  35.569   1.298  1.00  0.00    -0.270 OA
HETATM    5  O   UNL     1      26.959  33.084   3.324  1.00  0.00    -0.263 OA
HETATM    6  O   UNL     1      26.615  35.444   0.625  1.00  0.00    -0.270 OA
HETATM    7  O   UNL     1      25.316  39.134   4.663  1.00  0.00    -0.270 OA
HETATM    8  O   UNL     1      29.869  38.003   5.760  1.00  0.00    -0.263 OA
HETATM    9  O   UNL     1      24.188  38.672   1.960  1.00  0.00    -0.263 OA
HETATM   10  N   UNL     1      29.575  34.184   3.158  1.00  0.00    -0.340 N 
HETATM   11  N   UNL     1      24.317  35.225   0.774  1.00  0.00    -0.340 N 
HETATM   12  N   UNL     1      26.329  37.134   5.286  1.00  0.00    -0.340 N 
HETATM   13  C   UNL     1      29.184  33.017   2.341  1.00  0.00     0.190 C 
HETATM   14  C   UNL     1      24.148  36.684   0.597  1.00  0.00     0.190 C 
HETATM   15  C   UNL     1      27.466  37.820   5.936  1.00  0.00     0.190 C 
HETATM   16  C   UNL     1      29.944  36.657   3.378  1.00  0.00     0.227 C 
HETATM   17  C   UNL     1      25.813  33.198   0.816  1.00  0.00     0.227 C 
HETATM   18  C   UNL     1      24.012  37.144   4.330  1.00  0.00     0.227 C 
HETATM   19  C   UNL     1      29.650  35.433   2.515  1.00  0.00     0.250 C 
HETATM   20  C   UNL     1      27.664  33.012   2.326  1.00  0.00     0.283 C 
HETATM   21  C   UNL     1      25.623  34.715   0.734  1.00  0.00     0.250 C 
HETATM   22  C   UNL     1      25.275  37.903   4.763  1.00  0.00     0.250 C 
HETATM   23  C   UNL     1      28.822  37.588   5.274  1.00  0.00     0.283 C 
HETATM   24  C   UNL     1      24.174  37.447   1.919  1.00  0.00     0.283 C 
HETATM   25  C   UNL     1      29.821  33.968   4.587  1.00  0.00     0.153 C 
HETATM   26  C   UNL     1      23.117  34.421   1.014  1.00  0.00     0.153 C 
HETATM   27  C   UNL     1      26.274  35.675   5.381  1.00  0.00     0.153 C 
ENDROOT
BRANCH  17  28
HETATM   28  C   UNL     1      25.456  32.540  -0.509  1.00  0.00     0.016 C 
HETATM   29  C   UNL     1      26.713  32.283  -1.340  1.00  0.00     0.012 C 
HETATM   30  C   UNL     1      24.693  31.237  -0.277  1.00  0.00     0.012 C 
ENDBRANCH  17  28
BRANCH  13  31
HETATM   31  C   UNL     1      29.710  31.665   2.812  1.00  0.00     0.014 C 
HETATM   32  C   UNL     1      28.688  30.572   2.497  1.00  0.00     0.012 C 
BRANCH  31  33
HETATM   33  C   UNL     1      31.081  31.384   2.172  1.00  0.00     0.002 C 
HETATM   34  C   UNL     1      32.256  31.633   3.107  1.00  0.00     0.005 C 
ENDBRANCH  31  33
ENDBRANCH  13  31
BRANCH  14  35
HETATM   35  C   UNL     1      22.896  37.066  -0.194  1.00  0.00     0.010 C 
HETATM   36  C   UNL     1      21.891  37.787   0.703  1.00  0.00     0.012 C 
HETATM   37  C   UNL     1      23.262  37.938  -1.395  1.00  0.00     0.012 C 
ENDBRANCH  14  35
BRANCH  16  38
HETATM   38  C   UNL     1      30.288  37.877   2.527  1.00  0.00     0.016 C 
HETATM   39  C   UNL     1      31.544  38.567   3.056  1.00  0.00     0.012 C 
HETATM   40  C   UNL     1      29.115  38.856   2.490  1.00  0.00     0.012 C 
ENDBRANCH  16  38
BRANCH  18  41
HETATM   41  C   UNL     1      22.738  37.971   4.503  1.00  0.00     0.016 C 
HETATM   42  C   UNL     1      22.543  38.357   5.967  1.00  0.00     0.012 C 
HETATM   43  C   UNL     1      21.525  37.202   3.984  1.00  0.00     0.012 C 
ENDBRANCH  18  41
BRANCH  15  44
HETATM   44  C   UNL     1      27.535  37.489   7.427  1.00  0.00     0.010 C 
HETATM   45  C   UNL     1      28.194  36.130   7.644  1.00  0.00     0.012 C 
HETATM   46  C   UNL     1      26.140  37.517   8.045  1.00  0.00     0.012 C 
ENDBRANCH  15  44
TORSDOF 7
ENDMDL
MODEL 16
REMARK VINA RESULT:    -4.153      2.148      6.930
REMARK INTER + INTRA:          -5.093
REMARK INTER:                  -6.063
REMARK INTRA:                   0.971
REMARK UNBOUND:                 0.759
REMARK  7 active torsions:
REMARK  status: ('A' for Active; 'I' for Inactive)
REMARK    1  A    between atoms: C_13  and  C_14 
REMARK    2  A    between atoms: C_14  and  C_19 
REMARK    3  A    between atoms: C_15  and  C_20 
REMARK    4  A    between atoms: C_16  and  C_21 
REMARK    5  A    between atoms: C_17  and  C_23 
REMARK    6  A    between atoms: C_18  and  C_26 
REMARK    7  A    between atoms: C_22  and  C_28 
ROOT
HETATM    1  O   UNL     1      32.088  43.470   2.010  1.00  0.00    -0.304 OA
HETATM    2  O   UNL     1      36.463  46.196   1.160  1.00  0.00    -0.304 OA
HETATM    3  O   UNL     1      36.393  43.272   4.874  1.00  0.00    -0.304 OA
HETATM    4  O   UNL     1      33.317  46.662   1.463  1.00  0.00    -0.270 OA
HETATM    5  O   UNL     1      34.025  42.666   1.051  1.00  0.00    -0.263 OA
HETATM    6  O   UNL     1      33.319  44.876   3.806  1.00  0.00    -0.270 OA
HETATM    7  O   UNL     1      38.906  45.242   4.312  1.00  0.00    -0.270 OA
HETATM    8  O   UNL     1      38.161  47.172  -0.040  1.00  0.00    -0.263 OA
HETATM    9  O   UNL     1      36.742  45.023   6.326  1.00  0.00    -0.263 OA
HETATM   10  N   UNL     1      33.972  45.207  -0.223  1.00  0.00    -0.340 N 
HETATM   11  N   UNL     1      33.796  43.149   5.268  1.00  0.00    -0.340 N 
HETATM   12  N   UNL     1      38.036  44.371   2.338  1.00  0.00    -0.340 N 
HETATM   13  C   UNL     1      32.738  44.413  -0.052  1.00  0.00     0.190 C 
HETATM   14  C   UNL     1      34.530  44.078   6.155  1.00  0.00     0.190 C 
HETATM   15  C   UNL     1      38.703  45.390   1.500  1.00  0.00     0.190 C 
HETATM   16  C   UNL     1      35.488  47.057   0.539  1.00  0.00     0.227 C 
HETATM   17  C   UNL     1      32.349  42.763   3.242  1.00  0.00     0.227 C 
HETATM   18  C   UNL     1      37.776  43.131   4.500  1.00  0.00     0.227 C 
HETATM   19  C   UNL     1      34.165  46.302   0.638  1.00  0.00     0.250 C 
HETATM   20  C   UNL     1      33.045  43.400   1.039  1.00  0.00     0.283 C 
HETATM   21  C   UNL     1      33.196  43.688   4.121  1.00  0.00     0.250 C 
HETATM   22  C   UNL     1      38.287  44.352   3.721  1.00  0.00     0.250 C 
HETATM   23  C   UNL     1      37.760  46.345   0.773  1.00  0.00     0.283 C 
HETATM   24  C   UNL     1      36.008  44.198   5.792  1.00  0.00     0.283 C 
HETATM   25  C   UNL     1      34.927  44.778  -1.250  1.00  0.00     0.153 C 
HETATM   26  C   UNL     1      33.778  41.729   5.628  1.00  0.00     0.153 C 
HETATM   27  C   UNL     1      37.285  43.318   1.653  1.00  0.00     0.153 C 
ENDROOT
BRANCH  17  28
HETATM   28  C   UNL     1      30.998  42.495   3.891  1.00  0.00     0.016 C 
HETATM   29  C   UNL     1      29.928  43.416   3.308  1.00  0.00     0.012 C 
HETATM   30  C   UNL     1      30.597  41.031   3.715  1.00  0.00     0.012 C 
ENDBRANCH  17  28
BRANCH  13  31
HETATM   31  C   UNL     1      32.223  43.703  -1.299  1.00  0.00     0.014 C 
HETATM   32  C   UNL     1      31.388  42.486  -0.897  1.00  0.00     0.012 C 
BRANCH  31  33
HETATM   33  C   UNL     1      31.432  44.690  -2.177  1.00  0.00     0.002 C 
HETATM   34  C   UNL     1      30.584  45.671  -1.381  1.00  0.00     0.005 C 
ENDBRANCH  31  33
ENDBRANCH  13  31
BRANCH  14  35
HETATM   35  C   UNL     1      34.389  43.749   7.641  1.00  0.00     0.010 C 
HETATM   36  C   UNL     1      35.496  44.422   8.450  1.00  0.00     0.012 C 
HETATM   37  C   UNL     1      33.015  44.172   8.160  1.00  0.00     0.012 C 
ENDBRANCH  14  35
BRANCH  16  38
HETATM   38  C   UNL     1      35.444  48.377   1.304  1.00  0.00     0.016 C 
HETATM   39  C   UNL     1      35.975  49.519   0.440  1.00  0.00     0.012 C 
HETATM   40  C   UNL     1      36.240  48.274   2.604  1.00  0.00     0.012 C 
ENDBRANCH  16  38
BRANCH  18  41
HETATM   41  C   UNL     1      38.656  42.787   5.701  1.00  0.00     0.016 C 
HETATM   42  C   UNL     1      40.057  42.387   5.243  1.00  0.00     0.012 C 
HETATM   43  C   UNL     1      38.023  41.670   6.528  1.00  0.00     0.012 C 
ENDBRANCH  18  41
BRANCH  15  44
HETATM   44  C   UNL     1      39.678  44.746   0.514  1.00  0.00     0.010 C 
HETATM   45  C   UNL     1      38.919  43.985  -0.569  1.00  0.00     0.012 C 
HETATM   46  C   UNL     1      40.645  43.820   1.247  1.00  0.00     0.012 C 
ENDBRANCH  15  44
TORSDOF 7
ENDMDL
MODEL 17
REMARK VINA RESULT:    -4.053     11.395     15.863
REMARK INTER + INTRA:          -4.952
REMARK INTER:                  -5.534
REMARK INTRA:                   0.581
REMARK UNBOUND:                 0.759
REMARK  7 active torsions:
REMARK  status: ('A' for Active; 'I' for Inactive)
REMARK    1  A    between atoms: C_13  and  C_14 
REMARK    2  A    between atoms: C_14  and  C_19 
REMARK    3  A    between atoms: C_15  and  C_20 
REMARK    4  A    between atoms: C_16  and  C_21 
REMARK    5  A    between atoms: C_17  and  C_23 
REMARK    6  A    between atoms: C_18  and  C_26 
REMARK    7  A    between atoms: C_22  and  C_28 
ROOT
HETATM    1  O   UNL     1      26.793  34.097   1.912  1.00  0.00    -0.304 OA
HETATM    2  O   UNL     1      23.251  37.937   1.954  1.00  0.00    -0.304 OA
HETATM    3  O   UNL     1      22.194  34.012  -0.457  1.00  0.00    -0.304 OA
HETATM    4  O   UNL     1      26.353  37.485   1.339  1.00  0.00    -0.270 OA
HETATM    5  O   UNL     1      24.879  34.166   3.197  1.00  0.00    -0.263 OA
HETATM    6  O   UNL     1      25.654  35.073  -0.201  1.00  0.00    -0.270 OA
HETATM    7  O   UNL     1      20.255  36.610  -0.510  1.00  0.00    -0.270 OA
HETATM    8  O   UNL     1      21.978  39.647   2.811  1.00  0.00    -0.263 OA
HETATM    9  O   UNL     1      22.029  35.200  -2.422  1.00  0.00    -0.263 OA
HETATM   10  N   UNL     1      25.641  36.892   3.467  1.00  0.00    -0.340 N 
HETATM   11  N   UNL     1      24.627  33.128  -0.918  1.00  0.00    -0.340 N 
HETATM   12  N   UNL     1      21.183  36.270   1.596  1.00  0.00    -0.340 N 
HETATM   13  C   UNL     1      26.644  35.809   3.529  1.00  0.00     0.190 C 
HETATM   14  C   UNL     1      23.993  33.854  -2.039  1.00  0.00     0.190 C 
HETATM   15  C   UNL     1      20.866  37.642   2.045  1.00  0.00     0.190 C 
HETATM   16  C   UNL     1      24.461  38.689   2.172  1.00  0.00     0.227 C 
HETATM   17  C   UNL     1      26.223  33.104   1.033  1.00  0.00     0.227 C 
HETATM   18  C   UNL     1      20.877  34.350   0.014  1.00  0.00     0.227 C 
HETATM   19  C   UNL     1      25.569  37.645   2.281  1.00  0.00     0.250 C 
HETATM   20  C   UNL     1      25.984  34.596   2.893  1.00  0.00     0.283 C 
HETATM   21  C   UNL     1      25.478  33.856  -0.074  1.00  0.00     0.250 C 
HETATM   22  C   UNL     1      20.747  35.848   0.328  1.00  0.00     0.250 C 
HETATM   23  C   UNL     1      22.080  38.522   2.330  1.00  0.00     0.283 C 
HETATM   24  C   UNL     1      22.637  34.449  -1.667  1.00  0.00     0.283 C 
HETATM   25  C   UNL     1      24.767  37.083   4.628  1.00  0.00     0.153 C 
HETATM   26  C   UNL     1      24.295  31.712  -0.743  1.00  0.00     0.153 C 
HETATM   27  C   UNL     1      21.780  35.358   2.573  1.00  0.00     0.153 C 
ENDROOT
BRANCH  17  28
HETATM   28  C   UNL     1      27.384  32.309   0.454  1.00  0.00     0.016 C 
HETATM   29  C   UNL     1      28.692  33.088   0.589  1.00  0.00     0.012 C 
HETATM   30  C   UNL     1      27.500  30.947   1.138  1.00  0.00     0.012 C 
ENDBRANCH  17  28
BRANCH  13  31
HETATM   31  C   UNL     1      27.162  35.457   4.919  1.00  0.00     0.014 C 
HETATM   32  C   UNL     1      27.699  34.025   4.926  1.00  0.00     0.012 C 
BRANCH  31  33
HETATM   33  C   UNL     1      28.225  36.481   5.358  1.00  0.00     0.002 C 
HETATM   34  C   UNL     1      28.076  36.935   6.803  1.00  0.00     0.005 C 
ENDBRANCH  31  33
ENDBRANCH  13  31
BRANCH  14  35
HETATM   35  C   UNL     1      23.857  33.020  -3.313  1.00  0.00     0.010 C 
HETATM   36  C   UNL     1      22.390  32.700  -3.595  1.00  0.00     0.012 C 
HETATM   37  C   UNL     1      24.484  33.745  -4.503  1.00  0.00     0.012 C 
ENDBRANCH  14  35
BRANCH  16  38
HETATM   38  C   UNL     1      24.679  39.620   0.982  1.00  0.00     0.016 C 
HETATM   39  C   UNL     1      24.491  41.079   1.396  1.00  0.00     0.012 C 
HETATM   40  C   UNL     1      23.733  39.263  -0.163  1.00  0.00     0.012 C 
ENDBRANCH  16  38
BRANCH  18  41
HETATM   41  C   UNL     1      19.788  33.849  -0.934  1.00  0.00     0.016 C 
HETATM   42  C   UNL     1      18.403  34.197  -0.393  1.00  0.00     0.012 C 
HETATM   43  C   UNL     1      19.917  32.343  -1.151  1.00  0.00     0.012 C 
ENDBRANCH  18  41
BRANCH  15  44
HETATM   44  C   UNL     1      19.921  37.629   3.247  1.00  0.00     0.010 C 
HETATM   45  C   UNL     1      18.830  38.683   3.080  1.00  0.00     0.012 C 
HETATM   46  C   UNL     1      20.698  37.857   4.540  1.00  0.00     0.012 C 
ENDBRANCH  15  44
TORSDOF 7
ENDMDL
MODEL 18
REMARK VINA RESULT:    -4.035      7.565     12.001
REMARK INTER + INTRA:          -4.927
REMARK INTER:                  -5.572
REMARK INTRA:                   0.645
REMARK UNBOUND:                 0.759
REMARK  7 active torsions:
REMARK  status: ('A' for Active; 'I' for Inactive)
REMARK    1  A    between atoms: C_13  and  C_14 
REMARK    2  A    between atoms: C_14  and  C_19 
REMARK    3  A    between atoms: C_15  and  C_20 
REMARK    4  A    between atoms: C_16  and  C_21 
REMARK    5  A    between atoms: C_17  and  C_23 
REMARK    6  A    between atoms: C_18  and  C_26 
REMARK    7  A    between atoms: C_22  and  C_28 
ROOT
HETATM    1  O   UNL     1      28.184  35.309  -0.664  1.00  0.00    -0.304 OA
HETATM    2  O   UNL     1      29.190  34.943   4.449  1.00  0.00    -0.304 OA
HETATM    3  O   UNL     1      29.982  39.106   2.356  1.00  0.00    -0.304 OA
HETATM    4  O   UNL     1      29.865  33.435   1.715  1.00  0.00    -0.270 OA
HETATM    5  O   UNL     1      26.850  36.098   1.043  1.00  0.00    -0.263 OA
HETATM    6  O   UNL     1      30.402  36.044   0.457  1.00  0.00    -0.270 OA
HETATM    7  O   UNL     1      30.776  38.587   5.456  1.00  0.00    -0.270 OA
HETATM    8  O   UNL     1      28.881  34.317   6.638  1.00  0.00    -0.263 OA
HETATM    9  O   UNL     1      32.217  39.015   2.901  1.00  0.00    -0.263 OA
HETATM   10  N   UNL     1      27.612  33.634   2.237  1.00  0.00    -0.340 N 
HETATM   11  N   UNL     1      30.306  38.282  -0.119  1.00  0.00    -0.340 N 
HETATM   12  N   UNL     1      28.769  37.552   4.897  1.00  0.00    -0.340 N 
HETATM   13  C   UNL     1      27.260  33.711   0.805  1.00  0.00     0.190 C 
HETATM   14  C   UNL     1      31.553  38.548   0.629  1.00  0.00     0.190 C 
HETATM   15  C   UNL     1      28.802  36.667   6.080  1.00  0.00     0.190 C 
HETATM   16  C   UNL     1      29.350  33.568   4.047  1.00  0.00     0.227 C 
HETATM   17  C   UNL     1      28.611  36.645  -1.011  1.00  0.00     0.227 C 
HETATM   18  C   UNL     1      29.550  39.579   3.645  1.00  0.00     0.227 C 
HETATM   19  C   UNL     1      28.976  33.536   2.568  1.00  0.00     0.250 C 
HETATM   20  C   UNL     1      27.375  35.179   0.429  1.00  0.00     0.283 C 
HETATM   21  C   UNL     1      29.844  36.958  -0.159  1.00  0.00     0.250 C 
HETATM   22  C   UNL     1      29.769  38.529   4.744  1.00  0.00     0.250 C 
HETATM   23  C   UNL     1      28.946  35.180   5.768  1.00  0.00     0.283 C 
HETATM   24  C   UNL     1      31.300  38.899   2.094  1.00  0.00     0.283 C 
HETATM   25  C   UNL     1      26.522  33.702   3.216  1.00  0.00     0.153 C 
HETATM   26  C   UNL     1      29.621  39.421  -0.735  1.00  0.00     0.153 C 
HETATM   27  C   UNL     1      27.589  37.485   4.034  1.00  0.00     0.153 C 
ENDROOT
BRANCH  17  28
HETATM   28  C   UNL     1      28.970  36.623  -2.489  1.00  0.00     0.016 C 
HETATM   29  C   UNL     1      29.220  35.191  -2.962  1.00  0.00     0.012 C 
HETATM   30  C   UNL     1      27.868  37.277  -3.322  1.00  0.00     0.012 C 
ENDBRANCH  17  28
BRANCH  13  31
HETATM   31  C   UNL     1      25.883  33.177   0.425  1.00  0.00     0.014 C 
HETATM   32  C   UNL     1      25.421  33.816  -0.886  1.00  0.00     0.012 C 
BRANCH  31  33
HETATM   33  C   UNL     1      25.919  31.641   0.345  1.00  0.00     0.002 C 
HETATM   34  C   UNL     1      24.718  30.965   0.992  1.00  0.00     0.005 C 
ENDBRANCH  31  33
ENDBRANCH  13  31
BRANCH  14  35
HETATM   35  C   UNL     1      32.440  39.616  -0.011  1.00  0.00     0.010 C 
HETATM   36  C   UNL     1      32.377  40.917   0.785  1.00  0.00     0.012 C 
HETATM   37  C   UNL     1      33.883  39.125  -0.121  1.00  0.00     0.012 C 
ENDBRANCH  14  35
BRANCH  16  38
HETATM   38  C   UNL     1      30.804  33.159   4.270  1.00  0.00     0.016 C 
HETATM   39  C   UNL     1      30.909  32.133   5.397  1.00  0.00     0.012 C 
HETATM   40  C   UNL     1      31.666  34.382   4.578  1.00  0.00     0.012 C 
ENDBRANCH  16  38
BRANCH  18  41
HETATM   41  C   UNL     1      30.170  40.933   3.991  1.00  0.00     0.016 C 
HETATM   42  C   UNL     1      29.675  41.418   5.351  1.00  0.00     0.012 C 
HETATM   43  C   UNL     1      29.852  41.960   2.906  1.00  0.00     0.012 C 
ENDBRANCH  18  41
BRANCH  15  44
HETATM   44  C   UNL     1      27.597  36.910   6.989  1.00  0.00     0.010 C 
HETATM   45  C   UNL     1      27.995  36.758   8.455  1.00  0.00     0.012 C 
HETATM   46  C   UNL     1      26.461  35.955   6.637  1.00  0.00     0.012 C 
ENDBRANCH  15  44
TORSDOF 7
ENDMDL
MODEL 19
REMARK VINA RESULT:    -3.763      2.197      7.521
REMARK INTER + INTRA:          -4.544
REMARK INTER:                  -6.025
REMARK INTRA:                   1.481
REMARK UNBOUND:                 0.759
REMARK  7 active torsions:
REMARK  status: ('A' for Active; 'I' for Inactive)
REMARK    1  A    between atoms: C_13  and  C_14 
REMARK    2  A    between atoms: C_14  and  C_19 
REMARK    3  A    between atoms: C_15  and  C_20 
REMARK    4  A    between atoms: C_16  and  C_21 
REMARK    5  A    between atoms: C_17  and  C_23 
REMARK    6  A    between atoms: C_18  and  C_26 
REMARK    7  A    between atoms: C_22  and  C_28 
ROOT
HETATM    1  O   UNL     1      32.776  45.147   1.200  1.00  0.00    -0.304 OA
HETATM    2  O   UNL     1      32.892  42.520   5.714  1.00  0.00    -0.304 OA
HETATM    3  O   UNL     1      36.865  42.650   3.155  1.00  0.00    -0.304 OA
HETATM    4  O   UNL     1      31.158  42.697   3.038  1.00  0.00    -0.270 OA
HETATM    5  O   UNL     1      33.690  45.891   3.182  1.00  0.00    -0.263 OA
HETATM    6  O   UNL     1      33.652  42.723   1.471  1.00  0.00    -0.270 OA
HETATM    7  O   UNL     1      36.643  40.869   5.855  1.00  0.00    -0.270 OA
HETATM    8  O   UNL     1      32.462  42.071   7.926  1.00  0.00    -0.263 OA
HETATM    9  O   UNL     1      36.866  40.358   2.943  1.00  0.00    -0.263 OA
HETATM   10  N   UNL     1      31.359  44.665   4.252  1.00  0.00    -0.340 N 
HETATM   11  N   UNL     1      35.827  43.108   0.783  1.00  0.00    -0.340 N 
HETATM   12  N   UNL     1      35.523  42.897   6.067  1.00  0.00    -0.340 N 
HETATM   13  C   UNL     1      31.299  45.466   3.012  1.00  0.00     0.190 C 
HETATM   14  C   UNL     1      36.183  41.699   1.059  1.00  0.00     0.190 C 
HETATM   15  C   UNL     1      34.749  42.439   7.240  1.00  0.00     0.190 C 
HETATM   16  C   UNL     1      31.490  42.432   5.392  1.00  0.00     0.227 C 
HETATM   17  C   UNL     1      34.083  44.920   0.629  1.00  0.00     0.227 C 
HETATM   18  C   UNL     1      37.443  42.662   4.473  1.00  0.00     0.227 C 
HETATM   19  C   UNL     1      31.318  43.265   4.124  1.00  0.00     0.250 C 
HETATM   20  C   UNL     1      32.730  45.549   2.504  1.00  0.00     0.283 C 
HETATM   21  C   UNL     1      34.496  43.494   1.002  1.00  0.00     0.250 C 
HETATM   22  C   UNL     1      36.501  42.049   5.519  1.00  0.00     0.250 C 
HETATM   23  C   UNL     1      33.243  42.334   7.017  1.00  0.00     0.283 C 
HETATM   24  C   UNL     1      36.660  41.480   2.493  1.00  0.00     0.283 C 
HETATM   25  C   UNL     1      31.494  45.381   5.524  1.00  0.00     0.153 C 
HETATM   26  C   UNL     1      36.892  44.009   0.338  1.00  0.00     0.153 C 
HETATM   27  C   UNL     1      35.355  44.288   5.646  1.00  0.00     0.153 C 
ENDROOT
BRANCH  17  28
HETATM   28  C   UNL     1      33.934  45.059  -0.880  1.00  0.00     0.016 C 
HETATM   29  C   UNL     1      32.471  44.912  -1.293  1.00  0.00     0.012 C 
HETATM   30  C   UNL     1      34.493  46.400  -1.355  1.00  0.00     0.012 C 
ENDBRANCH  17  28
BRANCH  13  31
HETATM   31  C   UNL     1      30.707  46.864   3.148  1.00  0.00     0.014 C 
HETATM   32  C   UNL     1      31.186  47.746   1.993  1.00  0.00     0.012 C 
BRANCH  31  33
HETATM   33  C   UNL     1      29.172  46.779   3.219  1.00  0.00     0.002 C 
HETATM   34  C   UNL     1      28.574  45.724   2.299  1.00  0.00     0.005 C 
ENDBRANCH  31  33
ENDBRANCH  13  31
BRANCH  14  35
HETATM   35  C   UNL     1      37.206  41.121   0.082  1.00  0.00     0.010 C 
HETATM   36  C   UNL     1      38.540  40.869   0.782  1.00  0.00     0.012 C 
HETATM   37  C   UNL     1      36.681  39.831  -0.549  1.00  0.00     0.012 C 
ENDBRANCH  14  35
BRANCH  16  38
HETATM   38  C   UNL     1      31.132  40.967   5.158  1.00  0.00     0.016 C 
HETATM   39  C   UNL     1      31.972  40.381   4.025  1.00  0.00     0.012 C 
HETATM   40  C   UNL     1      29.643  40.819   4.853  1.00  0.00     0.012 C 
ENDBRANCH  16  38
BRANCH  18  41
HETATM   41  C   UNL     1      38.835  42.030   4.488  1.00  0.00     0.016 C 
HETATM   42  C   UNL     1      39.459  42.141   5.877  1.00  0.00     0.012 C 
HETATM   43  C   UNL     1      39.733  42.685   3.442  1.00  0.00     0.012 C 
ENDBRANCH  18  41
BRANCH  15  44
HETATM   44  C   UNL     1      35.050  43.294   8.472  1.00  0.00     0.010 C 
HETATM   45  C   UNL     1      36.362  42.857   9.118  1.00  0.00     0.012 C 
HETATM   46  C   UNL     1      33.901  43.210   9.473  1.00  0.00     0.012 C 
ENDBRANCH  15  44
TORSDOF 7
ENDMDL
MODEL 20
REMARK VINA RESULT:    -3.670      2.209      6.976
REMARK INTER + INTRA:          -4.412
REMARK INTER:                  -5.316
REMARK INTRA:                   0.903
REMARK UNBOUND:                 0.759
REMARK  7 active torsions:
REMARK  status: ('A' for Active; 'I' for Inactive)
REMARK    1  A    between atoms: C_13  and  C_14 
REMARK    2  A    between atoms: C_14  and  C_19 
REMARK    3  A    between atoms: C_15  and  C_20 
REMARK    4  A    between atoms: C_16  and  C_21 
REMARK    5  A    between atoms: C_17  and  C_23 
REMARK    6  A    between atoms: C_18  and  C_26 
REMARK    7  A    between atoms: C_22  and  C_28 
ROOT
HETATM    1  O   UNL     1      33.015  44.646   2.820  1.00  0.00    -0.304 OA
HETATM    2  O   UNL     1      36.928  46.184  -0.281  1.00  0.00    -0.304 OA
HETATM    3  O   UNL     1      37.879  42.886   2.970  1.00  0.00    -0.304 OA
HETATM    4  O   UNL     1      34.696  47.432   1.633  1.00  0.00    -0.270 OA
HETATM    5  O   UNL     1      33.838  43.496   0.999  1.00  0.00    -0.263 OA
HETATM    6  O   UNL     1      35.350  45.396   3.658  1.00  0.00    -0.270 OA
HETATM    7  O   UNL     1      40.212  44.165   1.118  1.00  0.00    -0.270 OA
HETATM    8  O   UNL     1      37.978  46.828  -2.220  1.00  0.00    -0.263 OA
HETATM    9  O   UNL     1      39.434  44.252   3.977  1.00  0.00    -0.263 OA
HETATM   10  N   UNL     1      33.918  46.112  -0.110  1.00  0.00    -0.340 N 
HETATM   11  N   UNL     1      35.955  43.413   4.684  1.00  0.00    -0.340 N 
HETATM   12  N   UNL     1      38.239  43.854  -0.075  1.00  0.00    -0.340 N 
HETATM   13  C   UNL     1      32.771  45.664   0.706  1.00  0.00     0.190 C 
HETATM   14  C   UNL     1      37.281  43.972   5.026  1.00  0.00     0.190 C 
HETATM   15  C   UNL     1      38.657  44.764  -1.162  1.00  0.00     0.190 C 
HETATM   16  C   UNL     1      36.089  47.356  -0.309  1.00  0.00     0.227 C 
HETATM   17  C   UNL     1      33.639  43.726   3.742  1.00  0.00     0.227 C 
HETATM   18  C   UNL     1      38.757  42.433   1.924  1.00  0.00     0.227 C 
HETATM   19  C   UNL     1      34.847  46.980   0.492  1.00  0.00     0.250 C 
HETATM   20  C   UNL     1      33.267  44.460   1.491  1.00  0.00     0.283 C 
HETATM   21  C   UNL     1      35.050  44.252   4.017  1.00  0.00     0.250 C 
HETATM   22  C   UNL     1      39.141  43.570   0.965  1.00  0.00     0.250 C 
HETATM   23  C   UNL     1      37.818  46.032  -1.300  1.00  0.00     0.283 C 
HETATM   24  C   UNL     1      38.321  43.740   3.932  1.00  0.00     0.283 C 
HETATM   25  C   UNL     1      34.030  45.593  -1.477  1.00  0.00     0.153 C 
HETATM   26  C   UNL     1      35.692  42.014   5.030  1.00  0.00     0.153 C 
HETATM   27  C   UNL     1      36.965  43.152  -0.234  1.00  0.00     0.153 C 
ENDROOT
BRANCH  17  28
HETATM   28  C   UNL     1      32.803  43.741   5.014  1.00  0.00     0.016 C 
HETATM   29  C   UNL     1      31.900  44.973   5.051  1.00  0.00     0.012 C 
HETATM   30  C   UNL     1      31.971  42.464   5.128  1.00  0.00     0.012 C 
ENDBRANCH  17  28
BRANCH  13  31
HETATM   31  C   UNL     1      31.504  45.305  -0.062  1.00  0.00     0.014 C 
HETATM   32  C   UNL     1      30.659  44.327   0.757  1.00  0.00     0.012 C 
BRANCH  31  33
HETATM   33  C   UNL     1      30.729  46.585  -0.423  1.00  0.00     0.002 C 
HETATM   34  C   UNL     1      30.741  47.639   0.675  1.00  0.00     0.005 C 
ENDBRANCH  31  33
ENDBRANCH  13  31
BRANCH  14  35
HETATM   35  C   UNL     1      37.827  43.484   6.367  1.00  0.00     0.010 C 
HETATM   36  C   UNL     1      39.319  43.175   6.263  1.00  0.00     0.012 C 
HETATM   37  C   UNL     1      37.571  44.518   7.463  1.00  0.00     0.012 C 
ENDBRANCH  14  35
BRANCH  16  38
HETATM   38  C   UNL     1      36.846  48.515   0.333  1.00  0.00     0.016 C 
HETATM   39  C   UNL     1      37.198  49.574  -0.711  1.00  0.00     0.012 C 
HETATM   40  C   UNL     1      38.108  48.013   1.033  1.00  0.00     0.012 C 
ENDBRANCH  16  38
BRANCH  18  41
HETATM   41  C   UNL     1      39.973  41.696   2.482  1.00  0.00     0.016 C 
HETATM   42  C   UNL     1      40.720  40.970   1.366  1.00  0.00     0.012 C 
HETATM   43  C   UNL     1      39.551  40.713   3.572  1.00  0.00     0.012 C 
ENDBRANCH  18  41
BRANCH  15  44
HETATM   44  C   UNL     1      38.742  44.029  -2.500  1.00  0.00     0.010 C 
HETATM   45  C   UNL     1      37.344  43.739  -3.040  1.00  0.00     0.012 C 
HETATM   46  C   UNL     1      39.541  42.738  -2.351  1.00  0.00     0.012 C 
ENDBRANCH  15  44
TORSDOF 7
ENDMDL
