MODEL 1
REMARK VINA RESULT:    -5.634      0.000      0.000
REMARK INTER + INTRA:          -6.839
REMARK INTER:                  -7.939
REMARK INTRA:                   1.100
REMARK UNBOUND:                 1.100
REMARK  7 active torsions:
REMARK  status: ('A' for Active; 'I' for Inactive)
REMARK    1  A    between atoms: C_13  and  C_14 
REMARK    2  A    between atoms: C_14  and  C_19 
REMARK    3  A    between atoms: C_15  and  C_20 
REMARK    4  A    between atoms: C_16  and  C_21 
REMARK    5  A    between atoms: C_17  and  C_23 
REMARK    6  A    between atoms: C_18  and  C_26 
REMARK    7  A    between atoms: C_22  and  C_28 
ROOT
HETATM    1  O   UNL     1       6.363  11.160   1.381  1.00  0.00    -0.304 OA
HETATM    2  O   UNL     1       7.658  13.166  -3.266  1.00  0.00    -0.304 OA
HETATM    3  O   UNL     1       9.288   8.856  -2.212  1.00  0.00    -0.304 OA
HETATM    4  O   UNL     1       7.713  13.948  -0.169  1.00  0.00    -0.270 OA
HETATM    5  O   UNL     1       5.410  10.616  -0.647  1.00  0.00    -0.263 OA
HETATM    6  O   UNL     1       8.778  11.272   0.446  1.00  0.00    -0.270 OA
HETATM    7  O   UNL     1      10.177  10.390  -4.926  1.00  0.00    -0.270 OA
HETATM    8  O   UNL     1       7.382  14.302  -5.244  1.00  0.00    -0.263 OA
HETATM    9  O   UNL     1      11.467   9.581  -2.383  1.00  0.00    -0.263 OA
HETATM   10  N   UNL     1       5.630  13.421  -1.048  1.00  0.00    -0.340 N 
HETATM   11  N   UNL     1       9.195   8.997   0.412  1.00  0.00    -0.340 N 
HETATM   12  N   UNL     1       7.938  10.763  -4.421  1.00  0.00    -0.340 N 
HETATM   13  C   UNL     1       5.193  12.868   0.250  1.00  0.00     0.190 C 
HETATM   14  C   UNL     1      10.526   9.231  -0.190  1.00  0.00     0.190 C 
HETATM   15  C   UNL     1       7.845  11.931  -5.321  1.00  0.00     0.190 C 
HETATM   16  C   UNL     1       7.438  14.372  -2.508  1.00  0.00     0.227 C 
HETATM   17  C   UNL     1       7.079   9.907   1.434  1.00  0.00     0.227 C 
HETATM   18  C   UNL     1       9.094   8.685  -3.628  1.00  0.00     0.227 C 
HETATM   19  C   UNL     1       6.949  13.902  -1.140  1.00  0.00     0.250 C 
HETATM   20  C   UNL     1       5.639  11.415   0.251  1.00  0.00     0.283 C 
HETATM   21  C   UNL     1       8.417  10.122   0.720  1.00  0.00     0.250 C 
HETATM   22  C   UNL     1       9.133  10.025  -4.378  1.00  0.00     0.250 C 
HETATM   23  C   UNL     1       7.588  13.264  -4.622  1.00  0.00     0.283 C 
HETATM   24  C   UNL     1      10.488   9.262  -1.716  1.00  0.00     0.283 C 
HETATM   25  C   UNL     1       4.674  13.397  -2.160  1.00  0.00     0.153 C 
HETATM   26  C   UNL     1       8.767   7.610   0.609  1.00  0.00     0.153 C 
HETATM   27  C   UNL     1       6.712  10.326  -3.751  1.00  0.00     0.153 C 
ENDROOT
BRANCH  17  28
HETATM   28  C   UNL     1       7.301   9.588   2.905  1.00  0.00     0.016 C 
HETATM   29  C   UNL     1       8.620  10.184   3.394  1.00  0.00     0.012 C 
HETATM   30  C   UNL     1       6.136  10.101   3.750  1.00  0.00     0.012 C 
ENDBRANCH  17  28
BRANCH  13  31
HETATM   31  C   UNL     1       3.701  12.961   0.547  1.00  0.00     0.014 C 
HETATM   32  C   UNL     1       3.282  11.810   1.464  1.00  0.00     0.012 C 
BRANCH  31  33
HETATM   33  C   UNL     1       3.370  14.338   1.150  1.00  0.00     0.002 C 
HETATM   34  C   UNL     1       2.448  15.181   0.281  1.00  0.00     0.005 C 
ENDBRANCH  31  33
ENDBRANCH  13  31
BRANCH  14  35
HETATM   35  C   UNL     1      11.595   8.245   0.279  1.00  0.00     0.010 C 
HETATM   36  C   UNL     1      12.848   8.353  -0.588  1.00  0.00     0.012 C 
HETATM   37  C   UNL     1      11.941   8.481   1.749  1.00  0.00     0.012 C 
ENDBRANCH  14  35
BRANCH  16  38
HETATM   38  C   UNL     1       8.758  15.132  -2.404  1.00  0.00     0.016 C 
HETATM   39  C   UNL     1       8.708  16.415  -3.233  1.00  0.00     0.012 C 
HETATM   40  C   UNL     1       9.924  14.252  -2.851  1.00  0.00     0.012 C 
ENDBRANCH  16  38
BRANCH  18  41
HETATM   41  C   UNL     1      10.056   7.652  -4.213  1.00  0.00     0.016 C 
HETATM   42  C   UNL     1       9.640   7.274  -5.632  1.00  0.00     0.012 C 
HETATM   43  C   UNL     1      10.118   6.413  -3.324  1.00  0.00     0.012 C 
ENDBRANCH  18  41
BRANCH  15  44
HETATM   44  C   UNL     1       6.816  11.700  -6.428  1.00  0.00     0.010 C 
HETATM   45  C   UNL     1       7.392  12.097  -7.785  1.00  0.00     0.012 C 
HETATM   46  C   UNL     1       5.536  12.477  -6.138  1.00  0.00     0.012 C 
ENDBRANCH  15  44
TORSDOF 7
ENDMDL
MODEL 2
REMARK VINA RESULT:    -5.426      2.820      8.839
REMARK INTER + INTRA:          -6.546
REMARK INTER:                  -7.234
REMARK INTRA:                   0.688
REMARK UNBOUND:                 1.100
REMARK  7 active torsions:
REMARK  status: ('A' for Active; 'I' for Inactive)
REMARK    1  A    between atoms: C_13  and  C_14 
REMARK    2  A    between atoms: C_14  and  C_19 
REMARK    3  A    between atoms: C_15  and  C_20 
REMARK    4  A    between atoms: C_16  and  C_21 
REMARK    5  A    between atoms: C_17  and  C_23 
REMARK    6  A    between atoms: C_18  and  C_26 
REMARK    7  A    between atoms: C_22  and  C_28 
ROOT
HETATM    1  O   UNL     1       3.823  13.766  -6.553  1.00  0.00    -0.304 OA
HETATM    2  O   UNL     1       7.577  13.500  -2.930  1.00  0.00    -0.304 OA
HETATM    3  O   UNL     1       3.224  14.650  -1.490  1.00  0.00    -0.304 OA
HETATM    4  O   UNL     1       7.008  14.871  -5.758  1.00  0.00    -0.270 OA
HETATM    5  O   UNL     1       4.162  12.030  -5.073  1.00  0.00    -0.263 OA
HETATM    6  O   UNL     1       4.321  15.618  -4.810  1.00  0.00    -0.270 OA
HETATM    7  O   UNL     1       5.747  14.677   0.546  1.00  0.00    -0.270 OA
HETATM    8  O   UNL     1       9.428  12.684  -1.841  1.00  0.00    -0.263 OA
HETATM    9  O   UNL     1       3.963  16.685  -0.708  1.00  0.00    -0.263 OA
HETATM   10  N   UNL     1       6.883  12.554  -5.708  1.00  0.00    -0.340 N 
HETATM   11  N   UNL     1       2.266  15.596  -3.748  1.00  0.00    -0.340 N 
HETATM   12  N   UNL     1       5.868  12.901  -0.952  1.00  0.00    -0.340 N 
HETATM   13  C   UNL     1       5.840  12.561  -6.754  1.00  0.00     0.190 C 
HETATM   14  C   UNL     1       2.733  16.613  -2.782  1.00  0.00     0.190 C 
HETATM   15  C   UNL     1       7.304  12.672  -0.689  1.00  0.00     0.190 C 
HETATM   16  C   UNL     1       8.360  13.797  -4.103  1.00  0.00     0.227 C 
HETATM   17  C   UNL     1       2.663  14.222  -5.823  1.00  0.00     0.227 C 
HETATM   18  C   UNL     1       3.653  13.901  -0.338  1.00  0.00     0.227 C 
HETATM   19  C   UNL     1       7.365  13.797  -5.260  1.00  0.00     0.250 C 
HETATM   20  C   UNL     1       4.519  12.719  -6.020  1.00  0.00     0.283 C 
HETATM   21  C   UNL     1       3.159  15.199  -4.754  1.00  0.00     0.250 C 
HETATM   22  C   UNL     1       5.183  13.877  -0.207  1.00  0.00     0.250 C 
HETATM   23  C   UNL     1       8.227  12.933  -1.876  1.00  0.00     0.283 C 
HETATM   24  C   UNL     1       3.392  15.998  -1.549  1.00  0.00     0.283 C 
HETATM   25  C   UNL     1       7.317  11.256  -5.182  1.00  0.00     0.153 C 
HETATM   26  C   UNL     1       0.920  15.047  -3.568  1.00  0.00     0.153 C 
HETATM   27  C   UNL     1       5.188  11.971  -1.855  1.00  0.00     0.153 C 
ENDROOT
BRANCH  17  28
HETATM   28  C   UNL     1       1.764  14.934  -6.825  1.00  0.00     0.016 C 
HETATM   29  C   UNL     1       2.592  15.542  -7.955  1.00  0.00     0.012 C 
HETATM   30  C   UNL     1       0.716  13.974  -7.386  1.00  0.00     0.012 C 
ENDBRANCH  17  28
BRANCH  13  31
HETATM   31  C   UNL     1       5.796  11.336  -7.661  1.00  0.00     0.014 C 
HETATM   32  C   UNL     1       4.403  11.197  -8.277  1.00  0.00     0.012 C 
BRANCH  31  33
HETATM   33  C   UNL     1       6.900  11.433  -8.729  1.00  0.00     0.002 C 
HETATM   34  C   UNL     1       7.107  12.841  -9.269  1.00  0.00     0.005 C 
ENDBRANCH  31  33
ENDBRANCH  13  31
BRANCH  14  35
HETATM   35  C   UNL     1       1.645  17.595  -2.348  1.00  0.00     0.010 C 
HETATM   36  C   UNL     1       1.171  17.285  -0.930  1.00  0.00     0.012 C 
HETATM   37  C   UNL     1       2.150  19.035  -2.439  1.00  0.00     0.012 C 
ENDBRANCH  14  35
BRANCH  16  38
HETATM   38  C   UNL     1       9.014  15.164  -3.921  1.00  0.00     0.016 C 
HETATM   39  C   UNL     1      10.512  15.014  -3.662  1.00  0.00     0.012 C 
HETATM   40  C   UNL     1       8.348  15.933  -2.781  1.00  0.00     0.012 C 
ENDBRANCH  16  38
BRANCH  18  41
HETATM   41  C   UNL     1       2.959  14.375   0.938  1.00  0.00     0.016 C 
HETATM   42  C   UNL     1       3.488  13.613   2.151  1.00  0.00     0.012 C 
HETATM   43  C   UNL     1       1.445  14.209   0.819  1.00  0.00     0.012 C 
ENDBRANCH  18  41
BRANCH  15  44
HETATM   44  C   UNL     1       7.547  11.274  -0.119  1.00  0.00     0.010 C 
HETATM   45  C   UNL     1       6.443  10.898   0.866  1.00  0.00     0.012 C 
HETATM   46  C   UNL     1       8.916  11.201   0.552  1.00  0.00     0.012 C 
ENDBRANCH  15  44
TORSDOF 7
ENDMDL
MODEL 3
REMARK VINA RESULT:    -5.386      2.113      3.798
REMARK INTER + INTRA:          -6.489
REMARK INTER:                  -7.767
REMARK INTRA:                   1.277
REMARK UNBOUND:                 1.100
REMARK  7 active torsions:
REMARK  status: ('A' for Active; 'I' for Inactive)
REMARK    1  A    between atoms: C_13  and  C_14 
REMARK    2  A    between atoms: C_14  and  C_19 
REMARK    3  A    between atoms: C_15  and  C_20 
REMARK    4  A    between atoms: C_16  and  C_21 
REMARK    5  A    between atoms: C_17  and  C_23 
REMARK    6  A    between atoms: C_18  and  C_26 
REMARK    7  A    between atoms: C_22  and  C_28 
ROOT
HETATM    1  O   UNL     1       4.687  13.529  -1.651  1.00  0.00    -0.304 OA
HETATM    2  O   UNL     1       9.366  13.217  -3.953  1.00  0.00    -0.304 OA
HETATM    3  O   UNL     1       8.068   9.644  -1.144  1.00  0.00    -0.304 OA
HETATM    4  O   UNL     1       7.650  15.243  -2.177  1.00  0.00    -0.270 OA
HETATM    5  O   UNL     1       5.207  12.259  -3.504  1.00  0.00    -0.263 OA
HETATM    6  O   UNL     1       6.904  13.003  -0.415  1.00  0.00    -0.270 OA
HETATM    7  O   UNL     1      11.025   9.776  -2.465  1.00  0.00    -0.270 OA
HETATM    8  O   UNL     1      10.933  13.415  -5.621  1.00  0.00    -0.263 OA
HETATM    9  O   UNL     1       9.861  10.019   0.250  1.00  0.00    -0.263 OA
HETATM   10  N   UNL     1       6.689  14.587  -4.185  1.00  0.00    -0.340 N 
HETATM   11  N   UNL     1       6.324  10.905   0.368  1.00  0.00    -0.340 N 
HETATM   12  N   UNL     1       9.391  10.536  -3.935  1.00  0.00    -0.340 N 
HETATM   13  C   UNL     1       5.336  14.687  -3.600  1.00  0.00     0.190 C 
HETATM   14  C   UNL     1       7.669  10.734   0.959  1.00  0.00     0.190 C 
HETATM   15  C   UNL     1      10.375  11.209  -4.809  1.00  0.00     0.190 C 
HETATM   16  C   UNL     1       9.184  14.646  -3.912  1.00  0.00     0.227 C 
HETATM   17  C   UNL     1       4.633  12.358  -0.806  1.00  0.00     0.227 C 
HETATM   18  C   UNL     1       8.815   8.902  -2.124  1.00  0.00     0.227 C 
HETATM   19  C   UNL     1       7.784  14.857  -3.343  1.00  0.00     0.250 C 
HETATM   20  C   UNL     1       5.066  13.341  -2.949  1.00  0.00     0.283 C 
HETATM   21  C   UNL     1       6.050  12.121  -0.275  1.00  0.00     0.250 C 
HETATM   22  C   UNL     1       9.850   9.780  -2.843  1.00  0.00     0.250 C 
HETATM   23  C   UNL     1      10.257  12.730  -4.860  1.00  0.00     0.283 C 
HETATM   24  C   UNL     1       8.667  10.110  -0.015  1.00  0.00     0.283 C 
HETATM   25  C   UNL     1       6.801  14.178  -5.589  1.00  0.00     0.153 C 
HETATM   26  C   UNL     1       5.387   9.784   0.462  1.00  0.00     0.153 C 
HETATM   27  C   UNL     1       7.990  10.545  -4.361  1.00  0.00     0.153 C 
ENDROOT
BRANCH  17  28
HETATM   28  C   UNL     1       3.679  12.682   0.335  1.00  0.00     0.016 C 
HETATM   29  C   UNL     1       4.173  13.894   1.124  1.00  0.00     0.012 C 
HETATM   30  C   UNL     1       2.267  12.928  -0.196  1.00  0.00     0.012 C 
ENDBRANCH  17  28
BRANCH  13  31
HETATM   31  C   UNL     1       4.214  15.037  -4.570  1.00  0.00     0.014 C 
HETATM   32  C   UNL     1       2.874  14.559  -4.009  1.00  0.00     0.012 C 
BRANCH  31  33
HETATM   33  C   UNL     1       4.220  16.549  -4.857  1.00  0.00     0.002 C 
HETATM   34  C   UNL     1       2.837  17.184  -4.825  1.00  0.00     0.005 C 
ENDBRANCH  31  33
ENDBRANCH  13  31
BRANCH  14  35
HETATM   35  C   UNL     1       7.669   9.948   2.270  1.00  0.00     0.010 C 
HETATM   36  C   UNL     1       7.753   8.448   2.001  1.00  0.00     0.012 C 
HETATM   37  C   UNL     1       8.823  10.396   3.167  1.00  0.00     0.012 C 
ENDBRANCH  14  35
BRANCH  16  38
HETATM   38  C   UNL     1      10.257  15.251  -3.010  1.00  0.00     0.016 C 
HETATM   39  C   UNL     1      11.458  15.712  -3.834  1.00  0.00     0.012 C 
HETATM   40  C   UNL     1      10.693  14.247  -1.944  1.00  0.00     0.012 C 
ENDBRANCH  16  38
BRANCH  18  41
HETATM   41  C   UNL     1       9.426   7.633  -1.531  1.00  0.00     0.016 C 
HETATM   42  C   UNL     1      10.261   6.900  -2.579  1.00  0.00     0.012 C 
HETATM   43  C   UNL     1       8.335   6.719  -0.978  1.00  0.00     0.012 C 
ENDBRANCH  18  41
BRANCH  15  44
HETATM   44  C   UNL     1      10.357  10.622  -6.221  1.00  0.00     0.010 C 
HETATM   45  C   UNL     1      11.767  10.236  -6.657  1.00  0.00     0.012 C 
HETATM   46  C   UNL     1       9.741  11.614  -7.203  1.00  0.00     0.012 C 
ENDBRANCH  15  44
TORSDOF 7
ENDMDL
MODEL 4
REMARK VINA RESULT:    -5.335      1.963      8.392
REMARK INTER + INTRA:          -6.418
REMARK INTER:                  -7.098
REMARK INTRA:                   0.680
REMARK UNBOUND:                 1.100
REMARK  7 active torsions:
REMARK  status: ('A' for Active; 'I' for Inactive)
REMARK    1  A    between atoms: C_13  and  C_14 
REMARK    2  A    between atoms: C_14  and  C_19 
REMARK    3  A    between atoms: C_15  and  C_20 
REMARK    4  A    between atoms: C_16  and  C_21 
REMARK    5  A    between atoms: C_17  and  C_23 
REMARK    6  A    between atoms: C_18  and  C_26 
REMARK    7  A    between atoms: C_22  and  C_28 
ROOT
HETATM    1  O   UNL     1       9.629   9.562  -6.444  1.00  0.00    -0.304 OA
HETATM    2  O   UNL     1       9.657   8.353  -1.361  1.00  0.00    -0.304 OA
HETATM    3  O   UNL     1       7.829  12.531  -2.606  1.00  0.00    -0.304 OA
HETATM    4  O   UNL     1      11.655   8.481  -3.851  1.00  0.00    -0.270 OA
HETATM    5  O   UNL     1       7.826   8.818  -5.214  1.00  0.00    -0.263 OA
HETATM    6  O   UNL     1      10.530  11.107  -4.568  1.00  0.00    -0.270 OA
HETATM    7  O   UNL     1       8.179  11.691   0.505  1.00  0.00    -0.270 OA
HETATM    8  O   UNL     1       9.450   7.043   0.515  1.00  0.00    -0.263 OA
HETATM    9  O   UNL     1       9.401  13.652  -1.352  1.00  0.00    -0.263 OA
HETATM   10  N   UNL     1       9.803   7.105  -4.102  1.00  0.00    -0.340 N 
HETATM   11  N   UNL     1       9.070  12.871  -4.900  1.00  0.00    -0.340 N 
HETATM   12  N   UNL     1       7.527   9.884  -0.806  1.00  0.00    -0.340 N 
HETATM   13  C   UNL     1       9.761   7.382  -5.553  1.00  0.00     0.190 C 
HETATM   14  C   UNL     1       9.653  13.595  -3.750  1.00  0.00     0.190 C 
HETATM   15  C   UNL     1       7.925   8.894   0.216  1.00  0.00     0.190 C 
HETATM   16  C   UNL     1      10.766   7.561  -1.829  1.00  0.00     0.227 C 
HETATM   17  C   UNL     1       9.107  10.909  -6.481  1.00  0.00     0.227 C 
HETATM   18  C   UNL     1       6.965  12.227  -1.496  1.00  0.00     0.227 C 
HETATM   19  C   UNL     1      10.790   7.758  -3.343  1.00  0.00     0.250 C 
HETATM   20  C   UNL     1       8.932   8.646  -5.709  1.00  0.00     0.283 C 
HETATM   21  C   UNL     1       9.629  11.629  -5.234  1.00  0.00     0.250 C 
HETATM   22  C   UNL     1       7.623  11.254  -0.507  1.00  0.00     0.250 C 
HETATM   23  C   UNL     1       9.080   7.981  -0.185  1.00  0.00     0.283 C 
HETATM   24  C   UNL     1       8.966  13.257  -2.428  1.00  0.00     0.283 C 
HETATM   25  C   UNL     1       8.791   6.199  -3.549  1.00  0.00     0.153 C 
HETATM   26  C   UNL     1       7.928  13.480  -5.585  1.00  0.00     0.153 C 
HETATM   27  C   UNL     1       6.881   9.381  -2.019  1.00  0.00     0.153 C 
ENDROOT
BRANCH  17  28
HETATM   28  C   UNL     1       9.653  11.558  -7.744  1.00  0.00     0.016 C 
HETATM   29  C   UNL     1      10.730  10.680  -8.380  1.00  0.00     0.012 C 
HETATM   30  C   UNL     1       8.527  11.830  -8.741  1.00  0.00     0.012 C 
ENDBRANCH  17  28
BRANCH  13  31
HETATM   31  C   UNL     1       9.196   6.271  -6.430  1.00  0.00     0.014 C 
HETATM   32  C   UNL     1       8.709   6.853  -7.758  1.00  0.00     0.012 C 
BRANCH  31  33
HETATM   33  C   UNL     1      10.252   5.169  -6.628  1.00  0.00     0.002 C 
HETATM   34  C   UNL     1      11.468   5.623  -7.423  1.00  0.00     0.005 C 
ENDBRANCH  31  33
ENDBRANCH  13  31
BRANCH  14  35
HETATM   35  C   UNL     1       9.695  15.111  -3.935  1.00  0.00     0.010 C 
HETATM   36  C   UNL     1       8.642  15.791  -3.063  1.00  0.00     0.012 C 
HETATM   37  C   UNL     1      11.087  15.656  -3.614  1.00  0.00     0.012 C 
ENDBRANCH  14  35
BRANCH  16  38
HETATM   38  C   UNL     1      12.045   8.073  -1.173  1.00  0.00     0.016 C 
HETATM   39  C   UNL     1      12.653   7.003  -0.267  1.00  0.00     0.012 C 
HETATM   40  C   UNL     1      11.771   9.351  -0.382  1.00  0.00     0.012 C 
ENDBRANCH  16  38
BRANCH  18  41
HETATM   41  C   UNL     1       6.443  13.494  -0.820  1.00  0.00     0.016 C 
HETATM   42  C   UNL     1       5.442  13.142   0.279  1.00  0.00     0.012 C 
HETATM   43  C   UNL     1       5.806  14.427  -1.847  1.00  0.00     0.012 C 
ENDBRANCH  18  41
BRANCH  15  44
HETATM   44  C   UNL     1       6.727   8.068   0.686  1.00  0.00     0.010 C 
HETATM   45  C   UNL     1       6.708   7.971   2.209  1.00  0.00     0.012 C 
HETATM   46  C   UNL     1       6.758   6.678   0.057  1.00  0.00     0.012 C 
ENDBRANCH  15  44
TORSDOF 7
ENDMDL
MODEL 5
REMARK VINA RESULT:    -5.284      2.014      6.848
REMARK INTER + INTRA:          -6.345
REMARK INTER:                  -7.096
REMARK INTRA:                   0.751
REMARK UNBOUND:                 1.100
REMARK  7 active torsions:
REMARK  status: ('A' for Active; 'I' for Inactive)
REMARK    1  A    between atoms: C_13  and  C_14 
REMARK    2  A    between atoms: C_14  and  C_19 
REMARK    3  A    between atoms: C_15  and  C_20 
REMARK    4  A    between atoms: C_16  and  C_21 
REMARK    5  A    between atoms: C_17  and  C_23 
REMARK    6  A    between atoms: C_18  and  C_26 
REMARK    7  A    between atoms: C_22  and  C_28 
ROOT
HETATM    1  O   UNL     1       7.722   8.881   2.767  1.00  0.00    -0.304 OA
HETATM    2  O   UNL     1       8.837  10.333  -2.126  1.00  0.00    -0.304 OA
HETATM    3  O   UNL     1       5.352  12.627   0.097  1.00  0.00    -0.304 OA
HETATM    4  O   UNL     1       8.171   7.693  -0.455  1.00  0.00    -0.270 OA
HETATM    5  O   UNL     1       8.935  10.741   2.145  1.00  0.00    -0.263 OA
HETATM    6  O   UNL     1       5.973   9.137   0.872  1.00  0.00    -0.270 OA
HETATM    7  O   UNL     1       6.037  13.191  -3.021  1.00  0.00    -0.270 OA
HETATM    8  O   UNL     1      10.139  10.839  -3.950  1.00  0.00    -0.263 OA
HETATM    9  O   UNL     1       3.825  11.950  -1.487  1.00  0.00    -0.263 OA
HETATM   10  N   UNL     1      10.014   8.910   0.258  1.00  0.00    -0.340 N 
HETATM   11  N   UNL     1       4.694  10.791   1.861  1.00  0.00    -0.340 N 
HETATM   12  N   UNL     1       7.964  12.842  -1.766  1.00  0.00    -0.340 N 
HETATM   13  C   UNL     1       9.770   8.508   1.658  1.00  0.00     0.190 C 
HETATM   14  C   UNL     1       3.827  10.862   0.666  1.00  0.00     0.190 C 
HETATM   15  C   UNL     1       8.794  12.588  -2.961  1.00  0.00     0.190 C 
HETATM   16  C   UNL     1       9.289   8.965  -2.145  1.00  0.00     0.227 C 
HETATM   17  C   UNL     1       6.578   9.688   3.120  1.00  0.00     0.227 C 
HETATM   18  C   UNL     1       5.879  13.715  -0.683  1.00  0.00     0.227 C 
HETATM   19  C   UNL     1       9.104   8.461  -0.716  1.00  0.00     0.250 C 
HETATM   20  C   UNL     1       8.792   9.528   2.217  1.00  0.00     0.283 C 
HETATM   21  C   UNL     1       5.731   9.847   1.854  1.00  0.00     0.250 C 
HETATM   22  C   UNL     1       6.620  13.220  -1.933  1.00  0.00     0.250 C 
HETATM   23  C   UNL     1       9.348  11.169  -3.071  1.00  0.00     0.283 C 
HETATM   24  C   UNL     1       4.335  11.857  -0.375  1.00  0.00     0.283 C 
HETATM   25  C   UNL     1      11.164   9.777  -0.016  1.00  0.00     0.153 C 
HETATM   26  C   UNL     1       4.436  11.734   2.952  1.00  0.00     0.153 C 
HETATM   27  C   UNL     1       8.638  12.864  -0.466  1.00  0.00     0.153 C 
ENDROOT
BRANCH  17  28
HETATM   28  C   UNL     1       5.810   8.921   4.188  1.00  0.00     0.016 C 
HETATM   29  C   UNL     1       6.283   7.470   4.254  1.00  0.00     0.012 C 
HETATM   30  C   UNL     1       5.961   9.596   5.550  1.00  0.00     0.012 C 
ENDBRANCH  17  28
BRANCH  13  31
HETATM   31  C   UNL     1      11.003   8.416   2.551  1.00  0.00     0.014 C 
HETATM   32  C   UNL     1      10.575   8.271   4.013  1.00  0.00     0.012 C 
BRANCH  31  33
HETATM   33  C   UNL     1      11.902   7.256   2.088  1.00  0.00     0.002 C 
HETATM   34  C   UNL     1      13.383   7.487   2.351  1.00  0.00     0.005 C 
ENDBRANCH  31  33
ENDBRANCH  13  31
BRANCH  14  35
HETATM   35  C   UNL     1       2.361  11.154   0.985  1.00  0.00     0.010 C 
HETATM   36  C   UNL     1       1.987  12.571   0.556  1.00  0.00     0.012 C 
HETATM   37  C   UNL     1       1.446  10.132   0.310  1.00  0.00     0.012 C 
ENDBRANCH  14  35
BRANCH  16  38
HETATM   38  C   UNL     1       8.433   8.180  -3.135  1.00  0.00     0.016 C 
HETATM   39  C   UNL     1       9.256   7.773  -4.356  1.00  0.00     0.012 C 
HETATM   40  C   UNL     1       7.214   8.998  -3.560  1.00  0.00     0.012 C 
ENDBRANCH  16  38
BRANCH  18  41
HETATM   41  C   UNL     1       4.805  14.754  -1.006  1.00  0.00     0.016 C 
HETATM   42  C   UNL     1       5.375  15.854  -1.899  1.00  0.00     0.012 C 
HETATM   43  C   UNL     1       4.231  15.349   0.278  1.00  0.00     0.012 C 
ENDBRANCH  18  41
BRANCH  15  44
HETATM   44  C   UNL     1       9.921  13.614  -3.085  1.00  0.00     0.010 C 
HETATM   45  C   UNL     1       9.431  14.998  -2.667  1.00  0.00     0.012 C 
HETATM   46  C   UNL     1      10.464  13.642  -4.510  1.00  0.00     0.012 C 
ENDBRANCH  15  44
TORSDOF 7
ENDMDL
MODEL 6
REMARK VINA RESULT:    -5.217      2.359      3.949
REMARK INTER + INTRA:          -6.252
REMARK INTER:                  -6.848
REMARK INTRA:                   0.596
REMARK UNBOUND:                 1.100
REMARK  7 active torsions:
REMARK  status: ('A' for Active; 'I' for Inactive)
REMARK    1  A    between atoms: C_13  and  C_14 
REMARK    2  A    between atoms: C_14  and  C_19 
REMARK    3  A    between atoms: C_15  and  C_20 
REMARK    4  A    between atoms: C_16  and  C_21 
REMARK    5  A    between atoms: C_17  and  C_23 
REMARK    6  A    between atoms: C_18  and  C_26 
REMARK    7  A    between atoms: C_22  and  C_28 
ROOT
HETATM    1  O   UNL     1       9.307   8.656  -1.036  1.00  0.00    -0.304 OA
HETATM    2  O   UNL     1       8.485  12.562  -4.406  1.00  0.00    -0.304 OA
HETATM    3  O   UNL     1      10.777   8.746  -5.997  1.00  0.00    -0.304 OA
HETATM    4  O   UNL     1       9.683  12.069  -1.486  1.00  0.00    -0.270 OA
HETATM    5  O   UNL     1       7.686   8.718  -2.675  1.00  0.00    -0.263 OA
HETATM    6  O   UNL     1      11.139   9.728  -2.522  1.00  0.00    -0.270 OA
HETATM    7  O   UNL     1      10.387  11.382  -7.842  1.00  0.00    -0.270 OA
HETATM    8  O   UNL     1       7.354  14.265  -5.453  1.00  0.00    -0.263 OA
HETATM    9  O   UNL     1      12.639  10.005  -6.493  1.00  0.00    -0.263 OA
HETATM   10  N   UNL     1       7.479  11.416  -1.805  1.00  0.00    -0.340 N 
HETATM   11  N   UNL     1      11.711   7.830  -3.715  1.00  0.00    -0.340 N 
HETATM   12  N   UNL     1       8.503  10.950  -6.549  1.00  0.00    -0.340 N 
HETATM   13  C   UNL     1       7.639  10.311  -0.837  1.00  0.00     0.190 C 
HETATM   14  C   UNL     1      12.672   8.608  -4.528  1.00  0.00     0.190 C 
HETATM   15  C   UNL     1       7.960  12.311  -6.740  1.00  0.00     0.190 C 
HETATM   16  C   UNL     1       8.475  13.281  -3.158  1.00  0.00     0.227 C 
HETATM   17  C   UNL     1      10.095   7.705  -1.786  1.00  0.00     0.227 C 
HETATM   18  C   UNL     1      10.058   9.093  -7.194  1.00  0.00     0.227 C 
HETATM   19  C   UNL     1       8.606  12.212  -2.077  1.00  0.00     0.250 C 
HETATM   20  C   UNL     1       8.178   9.136  -1.635  1.00  0.00     0.283 C 
HETATM   21  C   UNL     1      11.019   8.511  -2.703  1.00  0.00     0.250 C 
HETATM   22  C   UNL     1       9.679  10.582  -7.223  1.00  0.00     0.250 C 
HETATM   23  C   UNL     1       7.880  13.157  -5.471  1.00  0.00     0.283 C 
HETATM   24  C   UNL     1      12.034   9.217  -5.775  1.00  0.00     0.283 C 
HETATM   25  C   UNL     1       6.169  11.583  -2.443  1.00  0.00     0.153 C 
HETATM   26  C   UNL     1      11.521   6.416  -4.046  1.00  0.00     0.153 C 
HETATM   27  C   UNL     1       7.683   9.993  -5.804  1.00  0.00     0.153 C 
ENDROOT
BRANCH  17  28
HETATM   28  C   UNL     1      10.905   6.908  -0.774  1.00  0.00     0.016 C 
HETATM   29  C   UNL     1      11.432   7.820   0.333  1.00  0.00     0.012 C 
HETATM   30  C   UNL     1      10.065   5.778  -0.180  1.00  0.00     0.012 C 
ENDBRANCH  17  28
BRANCH  13  31
HETATM   31  C   UNL     1       6.382   9.901  -0.078  1.00  0.00     0.014 C 
HETATM   32  C   UNL     1       6.512   8.453   0.398  1.00  0.00     0.012 C 
BRANCH  31  33
HETATM   33  C   UNL     1       6.127  10.877   1.084  1.00  0.00     0.002 C 
HETATM   34  C   UNL     1       4.771  11.565   1.020  1.00  0.00     0.005 C 
ENDBRANCH  31  33
ENDBRANCH  13  31
BRANCH  14  35
HETATM   35  C   UNL     1      13.923   7.822  -4.920  1.00  0.00     0.010 C 
HETATM   36  C   UNL     1      13.905   7.487  -6.410  1.00  0.00     0.012 C 
HETATM   37  C   UNL     1      15.186   8.605  -4.563  1.00  0.00     0.012 C 
ENDBRANCH  14  35
BRANCH  16  38
HETATM   38  C   UNL     1       9.655  14.249  -3.140  1.00  0.00     0.016 C 
HETATM   39  C   UNL     1       9.167  15.696  -3.185  1.00  0.00     0.012 C 
HETATM   40  C   UNL     1      10.600  13.967  -4.307  1.00  0.00     0.012 C 
ENDBRANCH  16  38
BRANCH  18  41
HETATM   41  C   UNL     1      10.802   8.648  -8.452  1.00  0.00     0.016 C 
HETATM   42  C   UNL     1      10.033   9.064  -9.705  1.00  0.00     0.012 C 
HETATM   43  C   UNL     1      11.026   7.138  -8.437  1.00  0.00     0.012 C 
ENDBRANCH  18  41
BRANCH  15  44
HETATM   44  C   UNL     1       6.604  12.275  -7.445  1.00  0.00     0.010 C 
HETATM   45  C   UNL     1       6.560  13.302  -8.573  1.00  0.00     0.012 C 
HETATM   46  C   UNL     1       5.476  12.521  -6.448  1.00  0.00     0.012 C 
ENDBRANCH  15  44
TORSDOF 7
ENDMDL
MODEL 7
REMARK VINA RESULT:    -5.126      1.904      8.011
REMARK INTER + INTRA:          -6.123
REMARK INTER:                  -6.844
REMARK INTRA:                   0.721
REMARK UNBOUND:                 1.100
REMARK  7 active torsions:
REMARK  status: ('A' for Active; 'I' for Inactive)
REMARK    1  A    between atoms: C_13  and  C_14 
REMARK    2  A    between atoms: C_14  and  C_19 
REMARK    3  A    between atoms: C_15  and  C_20 
REMARK    4  A    between atoms: C_16  and  C_21 
REMARK    5  A    between atoms: C_17  and  C_23 
REMARK    6  A    between atoms: C_18  and  C_26 
REMARK    7  A    between atoms: C_22  and  C_28 
ROOT
HETATM    1  O   UNL     1      10.279   9.235  -4.764  1.00  0.00    -0.304 OA
HETATM    2  O   UNL     1       8.121   9.189  -0.007  1.00  0.00    -0.304 OA
HETATM    3  O   UNL     1       7.165  12.876  -2.807  1.00  0.00    -0.304 OA
HETATM    4  O   UNL     1      10.982   8.874  -1.392  1.00  0.00    -0.270 OA
HETATM    5  O   UNL     1       8.096   8.682  -4.268  1.00  0.00    -0.263 OA
HETATM    6  O   UNL     1      10.375  11.207  -3.085  1.00  0.00    -0.270 OA
HETATM    7  O   UNL     1       6.141  12.769   0.266  1.00  0.00    -0.270 OA
HETATM    8  O   UNL     1       7.090   8.319   1.853  1.00  0.00    -0.263 OA
HETATM    9  O   UNL     1       8.112  14.334  -1.299  1.00  0.00    -0.263 OA
HETATM   10  N   UNL     1       9.349   7.373  -2.078  1.00  0.00    -0.340 N 
HETATM   11  N   UNL     1       9.266  12.767  -4.384  1.00  0.00    -0.340 N 
HETATM   12  N   UNL     1       6.022  10.682  -0.753  1.00  0.00    -0.340 N 
HETATM   13  C   UNL     1       9.931   7.319  -3.434  1.00  0.00     0.190 C 
HETATM   14  C   UNL     1       9.344  13.760  -3.291  1.00  0.00     0.190 C 
HETATM   15  C   UNL     1       5.912   9.968   0.536  1.00  0.00     0.190 C 
HETATM   16  C   UNL     1       9.288   8.377   0.223  1.00  0.00     0.227 C 
HETATM   17  C   UNL     1       9.879  10.508  -5.318  1.00  0.00     0.227 C 
HETATM   18  C   UNL     1       5.903  12.778  -2.123  1.00  0.00     0.227 C 
HETATM   19  C   UNL     1       9.953   8.234  -1.144  1.00  0.00     0.250 C 
HETATM   20  C   UNL     1       9.299   8.468  -4.202  1.00  0.00     0.283 C 
HETATM   21  C   UNL     1       9.861  11.515  -4.165  1.00  0.00     0.250 C 
HETATM   22  C   UNL     1       6.042  12.087  -0.758  1.00  0.00     0.250 C 
HETATM   23  C   UNL     1       7.088   9.056   0.871  1.00  0.00     0.283 C 
HETATM   24  C   UNL     1       8.153  13.686  -2.339  1.00  0.00     0.283 C 
HETATM   25  C   UNL     1       8.161   6.557  -1.809  1.00  0.00     0.153 C 
HETATM   26  C   UNL     1       8.545  13.143  -5.602  1.00  0.00     0.153 C 
HETATM   27  C   UNL     1       5.923   9.886  -1.978  1.00  0.00     0.153 C 
ENDROOT
BRANCH  17  28
HETATM   28  C   UNL     1      10.932  10.890  -6.349  1.00  0.00     0.016 C 
HETATM   29  C   UNL     1      12.125   9.938  -6.279  1.00  0.00     0.012 C 
HETATM   30  C   UNL     1      10.334  10.896  -7.755  1.00  0.00     0.012 C 
ENDBRANCH  17  28
BRANCH  13  31
HETATM   31  C   UNL     1       9.739   6.010  -4.192  1.00  0.00     0.014 C 
HETATM   32  C   UNL     1       9.778   6.271  -5.698  1.00  0.00     0.012 C 
BRANCH  31  33
HETATM   33  C   UNL     1      10.799   4.986  -3.749  1.00  0.00     0.002 C 
HETATM   34  C   UNL     1      12.160   5.601  -3.457  1.00  0.00     0.005 C 
ENDBRANCH  31  33
ENDBRANCH  13  31
BRANCH  14  35
HETATM   35  C   UNL     1       9.525  15.198  -3.778  1.00  0.00     0.010 C 
HETATM   36  C   UNL     1       8.500  16.122  -3.125  1.00  0.00     0.012 C 
HETATM   37  C   UNL     1      10.945  15.689  -3.496  1.00  0.00     0.012 C 
ENDBRANCH  14  35
BRANCH  16  38
HETATM   38  C   UNL     1      10.195   9.093   1.220  1.00  0.00     0.016 C 
HETATM   39  C   UNL     1      10.315   8.291   2.514  1.00  0.00     0.012 C 
HETATM   40  C   UNL     1       9.673  10.500   1.509  1.00  0.00     0.012 C 
ENDBRANCH  16  38
BRANCH  18  41
HETATM   41  C   UNL     1       5.200  14.131  -2.031  1.00  0.00     0.016 C 
HETATM   42  C   UNL     1       3.800  13.970  -1.444  1.00  0.00     0.012 C 
HETATM   43  C   UNL     1       5.133  14.795  -3.405  1.00  0.00     0.012 C 
ENDBRANCH  18  41
BRANCH  15  44
HETATM   44  C   UNL     1       4.593   9.201   0.635  1.00  0.00     0.010 C 
HETATM   45  C   UNL     1       3.921   9.463   1.979  1.00  0.00     0.012 C 
HETATM   46  C   UNL     1       4.829   7.707   0.432  1.00  0.00     0.012 C 
ENDBRANCH  15  44
TORSDOF 7
ENDMDL
MODEL 8
REMARK VINA RESULT:    -5.002      2.409      5.156
REMARK INTER + INTRA:          -5.949
REMARK INTER:                  -6.892
REMARK INTRA:                   0.943
REMARK UNBOUND:                 1.100
REMARK  7 active torsions:
REMARK  status: ('A' for Active; 'I' for Inactive)
REMARK    1  A    between atoms: C_13  and  C_14 
REMARK    2  A    between atoms: C_14  and  C_19 
REMARK    3  A    between atoms: C_15  and  C_20 
REMARK    4  A    between atoms: C_16  and  C_21 
REMARK    5  A    between atoms: C_17  and  C_23 
REMARK    6  A    between atoms: C_18  and  C_26 
REMARK    7  A    between atoms: C_22  and  C_28 
ROOT
HETATM    1  O   UNL     1       6.900  10.984   0.580  1.00  0.00    -0.304 OA
HETATM    2  O   UNL     1       3.334  13.929  -1.850  1.00  0.00    -0.304 OA
HETATM    3  O   UNL     1       7.258  12.824  -4.244  1.00  0.00    -0.304 OA
HETATM    4  O   UNL     1       4.977  13.848   0.888  1.00  0.00    -0.270 OA
HETATM    5  O   UNL     1       5.388  10.258  -1.002  1.00  0.00    -0.263 OA
HETATM    6  O   UNL     1       7.414  13.213  -0.639  1.00  0.00    -0.270 OA
HETATM    7  O   UNL     1       5.038  14.845  -5.466  1.00  0.00    -0.270 OA
HETATM    8  O   UNL     1       1.248  14.644  -2.496  1.00  0.00    -0.263 OA
HETATM    9  O   UNL     1       7.818  15.046  -4.456  1.00  0.00    -0.263 OA
HETATM   10  N   UNL     1       3.657  11.992   0.439  1.00  0.00    -0.340 N 
HETATM   11  N   UNL     1       8.873  12.364  -2.221  1.00  0.00    -0.340 N 
HETATM   12  N   UNL     1       4.054  13.093  -4.294  1.00  0.00    -0.340 N 
HETATM   13  C   UNL     1       4.613  11.111   1.141  1.00  0.00     0.190 C 
HETATM   14  C   UNL     1       9.002  13.698  -2.845  1.00  0.00     0.190 C 
HETATM   15  C   UNL     1       2.756  13.790  -4.180  1.00  0.00     0.190 C 
HETATM   16  C   UNL     1       3.052  14.251  -0.474  1.00  0.00     0.227 C 
HETATM   17  C   UNL     1       7.993  10.908  -0.362  1.00  0.00     0.227 C 
HETATM   18  C   UNL     1       6.318  12.818  -5.334  1.00  0.00     0.227 C 
HETATM   19  C   UNL     1       3.980  13.358   0.345  1.00  0.00     0.250 C 
HETATM   20  C   UNL     1       5.649  10.714   0.103  1.00  0.00     0.283 C 
HETATM   21  C   UNL     1       8.061  12.258  -1.082  1.00  0.00     0.250 C 
HETATM   22  C   UNL     1       5.089  13.689  -5.036  1.00  0.00     0.250 C 
HETATM   23  C   UNL     1       2.345  14.159  -2.758  1.00  0.00     0.283 C 
HETATM   24  C   UNL     1       7.954  13.948  -3.927  1.00  0.00     0.283 C 
HETATM   25  C   UNL     1       2.460  11.379  -0.144  1.00  0.00     0.153 C 
HETATM   26  C   UNL     1       9.570  11.241  -2.853  1.00  0.00     0.153 C 
HETATM   27  C   UNL     1       4.136  11.726  -3.776  1.00  0.00     0.153 C 
ENDROOT
BRANCH  17  28
HETATM   28  C   UNL     1       9.258  10.667   0.449  1.00  0.00     0.016 C 
HETATM   29  C   UNL     1       8.929  10.543   1.936  1.00  0.00     0.012 C 
HETATM   30  C   UNL     1       9.985   9.417  -0.044  1.00  0.00     0.012 C 
ENDBRANCH  17  28
BRANCH  13  31
HETATM   31  C   UNL     1       4.019   9.868   1.794  1.00  0.00     0.014 C 
HETATM   32  C   UNL     1       4.937   8.667   1.557  1.00  0.00     0.012 C 
BRANCH  31  33
HETATM   33  C   UNL     1       3.772  10.128   3.291  1.00  0.00     0.002 C 
HETATM   34  C   UNL     1       4.946  10.789   3.999  1.00  0.00     0.005 C 
ENDBRANCH  31  33
ENDBRANCH  13  31
BRANCH  14  35
HETATM   35  C   UNL     1      10.396  13.984  -3.403  1.00  0.00     0.010 C 
HETATM   36  C   UNL     1      10.476  13.602  -4.880  1.00  0.00     0.012 C 
HETATM   37  C   UNL     1      10.764  15.455  -3.211  1.00  0.00     0.012 C 
ENDBRANCH  14  35
BRANCH  16  38
HETATM   38  C   UNL     1       3.348  15.731  -0.248  1.00  0.00     0.016 C 
HETATM   39  C   UNL     1       2.053  16.516  -0.047  1.00  0.00     0.012 C 
HETATM   40  C   UNL     1       4.146  16.306  -1.417  1.00  0.00     0.012 C 
ENDBRANCH  16  38
BRANCH  18  41
HETATM   41  C   UNL     1       6.986  13.174  -6.661  1.00  0.00     0.016 C 
HETATM   42  C   UNL     1       5.947  13.269  -7.776  1.00  0.00     0.012 C 
HETATM   43  C   UNL     1       8.060  12.148  -7.014  1.00  0.00     0.012 C 
ENDBRANCH  18  41
BRANCH  15  44
HETATM   44  C   UNL     1       1.642  13.006  -4.874  1.00  0.00     0.010 C 
HETATM   45  C   UNL     1       0.799  13.932  -5.747  1.00  0.00     0.012 C 
HETATM   46  C   UNL     1       0.769  12.295  -3.844  1.00  0.00     0.012 C 
ENDBRANCH  15  44
TORSDOF 7
ENDMDL
MODEL 9
REMARK VINA RESULT:    -4.969      2.430      6.912
REMARK INTER + INTRA:          -5.902
REMARK INTER:                  -6.518
REMARK INTRA:                   0.616
REMARK UNBOUND:                 1.100
REMARK  7 active torsions:
REMARK  status: ('A' for Active; 'I' for Inactive)
REMARK    1  A    between atoms: C_13  and  C_14 
REMARK    2  A    between atoms: C_14  and  C_19 
REMARK    3  A    between atoms: C_15  and  C_20 
REMARK    4  A    between atoms: C_16  and  C_21 
REMARK    5  A    between atoms: C_17  and  C_23 
REMARK    6  A    between atoms: C_18  and  C_26 
REMARK    7  A    between atoms: C_22  and  C_28 
ROOT
HETATM    1  O   UNL     1       3.451  14.439  -5.059  1.00  0.00    -0.304 OA
HETATM    2  O   UNL     1       8.279  12.897  -3.792  1.00  0.00    -0.304 OA
HETATM    3  O   UNL     1       4.697  11.225  -1.199  1.00  0.00    -0.304 OA
HETATM    4  O   UNL     1       6.639  15.584  -4.333  1.00  0.00    -0.270 OA
HETATM    5  O   UNL     1       4.405  12.404  -5.571  1.00  0.00    -0.263 OA
HETATM    6  O   UNL     1       4.448  14.534  -2.668  1.00  0.00    -0.270 OA
HETATM    7  O   UNL     1       7.784  10.602  -0.430  1.00  0.00    -0.270 OA
HETATM    8  O   UNL     1      10.443  12.197  -4.119  1.00  0.00    -0.263 OA
HETATM    9  O   UNL     1       5.555  12.192   0.705  1.00  0.00    -0.263 OA
HETATM   10  N   UNL     1       6.672  14.045  -6.070  1.00  0.00    -0.340 N 
HETATM   11  N   UNL     1       2.928  13.118  -1.650  1.00  0.00    -0.340 N 
HETATM   12  N   UNL     1       7.448  10.578  -2.732  1.00  0.00    -0.340 N 
HETATM   13  C   UNL     1       5.320  14.460  -6.498  1.00  0.00     0.190 C 
HETATM   14  C   UNL     1       3.659  13.224  -0.369  1.00  0.00     0.190 C 
HETATM   15  C   UNL     1       8.892  10.701  -3.025  1.00  0.00     0.190 C 
HETATM   16  C   UNL     1       8.561  14.162  -4.421  1.00  0.00     0.227 C 
HETATM   17  C   UNL     1       2.615  13.844  -4.043  1.00  0.00     0.227 C 
HETATM   18  C   UNL     1       5.559  10.074  -1.164  1.00  0.00     0.227 C 
HETATM   19  C   UNL     1       7.213  14.666  -4.930  1.00  0.00     0.250 C 
HETATM   20  C   UNL     1       4.352  13.622  -5.679  1.00  0.00     0.283 C 
HETATM   21  C   UNL     1       3.413  13.862  -2.736  1.00  0.00     0.250 C 
HETATM   22  C   UNL     1       7.030  10.450  -1.397  1.00  0.00     0.250 C 
HETATM   23  C   UNL     1       9.300  11.999  -3.717  1.00  0.00     0.283 C 
HETATM   24  C   UNL     1       4.757  12.173  -0.225  1.00  0.00     0.283 C 
HETATM   25  C   UNL     1       7.340  12.991  -6.840  1.00  0.00     0.153 C 
HETATM   26  C   UNL     1       1.774  12.217  -1.708  1.00  0.00     0.153 C 
HETATM   27  C   UNL     1       6.539  10.414  -3.867  1.00  0.00     0.153 C 
ENDROOT
BRANCH  17  28
HETATM   28  C   UNL     1       1.374  14.717  -3.926  1.00  0.00     0.016 C 
HETATM   29  C   UNL     1       1.653  16.124  -4.453  1.00  0.00     0.012 C 
HETATM   30  C   UNL     1       0.200  14.089  -4.675  1.00  0.00     0.012 C 
ENDBRANCH  17  28
BRANCH  13  31
HETATM   31  C   UNL     1       5.015  14.314  -7.985  1.00  0.00     0.014 C 
HETATM   32  C   UNL     1       3.518  14.507  -8.230  1.00  0.00     0.012 C 
BRANCH  31  33
HETATM   33  C   UNL     1       5.872  15.302  -8.796  1.00  0.00     0.002 C 
HETATM   34  C   UNL     1       6.390  14.729 -10.108  1.00  0.00     0.005 C 
ENDBRANCH  31  33
ENDBRANCH  13  31
BRANCH  14  35
HETATM   35  C   UNL     1       2.752  13.193   0.861  1.00  0.00     0.010 C 
HETATM   36  C   UNL     1       2.897  11.868   1.607  1.00  0.00     0.012 C 
HETATM   37  C   UNL     1       3.062  14.367   1.791  1.00  0.00     0.012 C 
ENDBRANCH  14  35
BRANCH  16  38
HETATM   38  C   UNL     1       9.159  15.104  -3.380  1.00  0.00     0.016 C 
HETATM   39  C   UNL     1      10.622  15.404  -3.700  1.00  0.00     0.012 C 
HETATM   40  C   UNL     1       9.029  14.510  -1.978  1.00  0.00     0.012 C 
ENDBRANCH  16  38
BRANCH  18  41
HETATM   41  C   UNL     1       5.355   9.250   0.107  1.00  0.00     0.016 C 
HETATM   42  C   UNL     1       6.304   8.054   0.130  1.00  0.00     0.012 C 
HETATM   43  C   UNL     1       3.904   8.785   0.217  1.00  0.00     0.012 C 
ENDBRANCH  18  41
BRANCH  15  44
HETATM   44  C   UNL     1       9.404   9.492  -3.808  1.00  0.00     0.010 C 
HETATM   45  C   UNL     1      10.728   9.002  -3.228  1.00  0.00     0.012 C 
HETATM   46  C   UNL     1       9.559   9.839  -5.286  1.00  0.00     0.012 C 
ENDBRANCH  15  44
TORSDOF 7
ENDMDL
MODEL 10
REMARK VINA RESULT:    -4.943      1.837      3.418
REMARK INTER + INTRA:          -5.866
REMARK INTER:                  -6.625
REMARK INTRA:                   0.760
REMARK UNBOUND:                 1.100
REMARK  7 active torsions:
REMARK  status: ('A' for Active; 'I' for Inactive)
REMARK    1  A    between atoms: C_13  and  C_14 
REMARK    2  A    between atoms: C_14  and  C_19 
REMARK    3  A    between atoms: C_15  and  C_20 
REMARK    4  A    between atoms: C_16  and  C_21 
REMARK    5  A    between atoms: C_17  and  C_23 
REMARK    6  A    between atoms: C_18  and  C_26 
REMARK    7  A    between atoms: C_22  and  C_28 
ROOT
HETATM    1  O   UNL     1       4.305  12.011  -0.826  1.00  0.00    -0.304 OA
HETATM    2  O   UNL     1       8.848  12.602  -3.335  1.00  0.00    -0.304 OA
HETATM    3  O   UNL     1       8.462   8.968  -0.337  1.00  0.00    -0.304 OA
HETATM    4  O   UNL     1       6.806  14.294  -1.555  1.00  0.00    -0.270 OA
HETATM    5  O   UNL     1       5.016  10.797  -2.653  1.00  0.00    -0.263 OA
HETATM    6  O   UNL     1       6.629  12.030   0.321  1.00  0.00    -0.270 OA
HETATM    7  O   UNL     1      11.268   9.668  -1.801  1.00  0.00    -0.270 OA
HETATM    8  O   UNL     1      10.270  13.053  -5.082  1.00  0.00    -0.263 OA
HETATM    9  O   UNL     1      10.184   9.782   0.955  1.00  0.00    -0.263 OA
HETATM   10  N   UNL     1       5.933  13.355  -3.490  1.00  0.00    -0.340 N 
HETATM   11  N   UNL     1       6.546   9.895   1.208  1.00  0.00    -0.340 N 
HETATM   12  N   UNL     1       9.452   9.992  -3.219  1.00  0.00    -0.340 N 
HETATM   13  C   UNL     1       4.613  13.190  -2.845  1.00  0.00     0.190 C 
HETATM   14  C   UNL     1       7.918  10.043   1.740  1.00  0.00     0.190 C 
HETATM   15  C   UNL     1      10.233  10.819  -4.163  1.00  0.00     0.190 C 
HETATM   16  C   UNL     1       8.364  13.959  -3.339  1.00  0.00     0.227 C 
HETATM   17  C   UNL     1       4.537  10.897   0.063  1.00  0.00     0.227 C 
HETATM   18  C   UNL     1       9.313   8.358  -1.324  1.00  0.00     0.227 C 
HETATM   19  C   UNL     1       6.974  13.891  -2.712  1.00  0.00     0.250 C 
HETATM   20  C   UNL     1       4.666  11.848  -2.133  1.00  0.00     0.283 C 
HETATM   21  C   UNL     1       5.991  10.993   0.534  1.00  0.00     0.250 C 
HETATM   22  C   UNL     1      10.105   9.403  -2.123  1.00  0.00     0.250 C 
HETATM   23  C   UNL     1       9.788  12.275  -4.265  1.00  0.00     0.283 C 
HETATM   24  C   UNL     1       8.989   9.603   0.744  1.00  0.00     0.283 C 
HETATM   25  C   UNL     1       6.075  12.914  -4.881  1.00  0.00     0.153 C 
HETATM   26  C   UNL     1       5.877   8.604   1.388  1.00  0.00     0.153 C 
HETATM   27  C   UNL     1       8.068   9.681  -3.578  1.00  0.00     0.153 C 
ENDROOT
BRANCH  17  28
HETATM   28  C   UNL     1       3.581  11.061   1.235  1.00  0.00     0.016 C 
HETATM   29  C   UNL     1       3.344  12.540   1.535  1.00  0.00     0.012 C 
HETATM   30  C   UNL     1       2.256  10.353   0.954  1.00  0.00     0.012 C 
ENDBRANCH  17  28
BRANCH  13  31
HETATM   31  C   UNL     1       3.405  13.246  -3.774  1.00  0.00     0.014 C 
HETATM   32  C   UNL     1       2.217  12.536  -3.123  1.00  0.00     0.012 C 
BRANCH  31  33
HETATM   33  C   UNL     1       3.086  14.708  -4.132  1.00  0.00     0.002 C 
HETATM   34  C   UNL     1       3.278  15.678  -2.975  1.00  0.00     0.005 C 
ENDBRANCH  31  33
ENDBRANCH  13  31
BRANCH  14  35
HETATM   35  C   UNL     1       8.138   9.337   3.078  1.00  0.00     0.010 C 
HETATM   36  C   UNL     1       8.968   8.069   2.890  1.00  0.00     0.012 C 
HETATM   37  C   UNL     1       8.815  10.275   4.078  1.00  0.00     0.012 C 
ENDBRANCH  14  35
BRANCH  16  38
HETATM   38  C   UNL     1       9.315  14.820  -2.511  1.00  0.00     0.016 C 
HETATM   39  C   UNL     1      10.225  15.645  -3.420  1.00  0.00     0.012 C 
HETATM   40  C   UNL     1      10.145  13.952  -1.567  1.00  0.00     0.012 C 
ENDBRANCH  16  38
BRANCH  18  41
HETATM   41  C   UNL     1      10.206   7.278  -0.714  1.00  0.00     0.016 C 
HETATM   42  C   UNL     1      11.132   6.687  -1.774  1.00  0.00     0.012 C 
HETATM   43  C   UNL     1       9.360   6.183  -0.069  1.00  0.00     0.012 C 
ENDBRANCH  18  41
BRANCH  15  44
HETATM   44  C   UNL     1      10.288  10.177  -5.550  1.00  0.00     0.010 C 
HETATM   45  C   UNL     1      10.540   8.676  -5.435  1.00  0.00     0.012 C 
HETATM   46  C   UNL     1      11.366  10.840  -6.402  1.00  0.00     0.012 C 
ENDBRANCH  15  44
TORSDOF 7
ENDMDL
MODEL 11
REMARK VINA RESULT:    -4.940      6.545     12.540
REMARK INTER + INTRA:          -5.861
REMARK INTER:                  -6.906
REMARK INTRA:                   1.045
REMARK UNBOUND:                 1.100
REMARK  7 active torsions:
REMARK  status: ('A' for Active; 'I' for Inactive)
REMARK    1  A    between atoms: C_13  and  C_14 
REMARK    2  A    between atoms: C_14  and  C_19 
REMARK    3  A    between atoms: C_15  and  C_20 
REMARK    4  A    between atoms: C_16  and  C_21 
REMARK    5  A    between atoms: C_17  and  C_23 
REMARK    6  A    between atoms: C_18  and  C_26 
REMARK    7  A    between atoms: C_22  and  C_28 
ROOT
HETATM    1  O   UNL     1      14.318   6.201   0.758  1.00  0.00    -0.304 OA
HETATM    2  O   UNL     1      15.979   6.546   5.699  1.00  0.00    -0.304 OA
HETATM    3  O   UNL     1      11.313   6.361   4.967  1.00  0.00    -0.304 OA
HETATM    4  O   UNL     1      16.366   8.010   2.886  1.00  0.00    -0.270 OA
HETATM    5  O   UNL     1      14.437   4.469   2.275  1.00  0.00    -0.263 OA
HETATM    6  O   UNL     1      13.449   7.925   2.486  1.00  0.00    -0.270 OA
HETATM    7  O   UNL     1      12.549   6.833   7.927  1.00  0.00    -0.270 OA
HETATM    8  O   UNL     1      17.300   6.133   7.532  1.00  0.00    -0.263 OA
HETATM    9  O   UNL     1      11.024   8.425   5.945  1.00  0.00    -0.263 OA
HETATM   10  N   UNL     1      16.887   5.749   2.936  1.00  0.00    -0.340 N 
HETATM   11  N   UNL     1      11.235   7.255   2.496  1.00  0.00    -0.340 N 
HETATM   12  N   UNL     1      13.815   5.318   6.696  1.00  0.00    -0.340 N 
HETATM   13  C   UNL     1      16.462   5.593   1.530  1.00  0.00     0.190 C 
HETATM   14  C   UNL     1      10.918   8.252   3.541  1.00  0.00     0.190 C 
HETATM   15  C   UNL     1      14.984   5.445   7.591  1.00  0.00     0.190 C 
HETATM   16  C   UNL     1      17.083   7.159   5.004  1.00  0.00     0.227 C 
HETATM   17  C   UNL     1      12.879   6.259   0.867  1.00  0.00     0.227 C 
HETATM   18  C   UNL     1      11.377   5.634   6.207  1.00  0.00     0.227 C 
HETATM   19  C   UNL     1      16.750   7.021   3.521  1.00  0.00     0.250 C 
HETATM   20  C   UNL     1      14.968   5.322   1.577  1.00  0.00     0.283 C 
HETATM   21  C   UNL     1      12.553   7.214   2.018  1.00  0.00     0.250 C 
HETATM   22  C   UNL     1      12.628   5.997   7.021  1.00  0.00     0.250 C 
HETATM   23  C   UNL     1      16.223   6.062   6.948  1.00  0.00     0.283 C 
HETATM   24  C   UNL     1      11.105   7.705   4.955  1.00  0.00     0.283 C 
HETATM   25  C   UNL     1      17.388   4.562   3.636  1.00  0.00     0.153 C 
HETATM   26  C   UNL     1      10.163   6.358   2.058  1.00  0.00     0.153 C 
HETATM   27  C   UNL     1      13.897   4.342   5.608  1.00  0.00     0.153 C 
ENDROOT
BRANCH  17  28
HETATM   28  C   UNL     1      12.359   6.811  -0.453  1.00  0.00     0.016 C 
HETATM   29  C   UNL     1      12.633   8.311  -0.554  1.00  0.00     0.012 C 
HETATM   30  C   UNL     1      12.988   6.071  -1.633  1.00  0.00     0.012 C 
ENDBRANCH  17  28
BRANCH  13  31
HETATM   31  C   UNL     1      17.170   4.501   0.735  1.00  0.00     0.014 C 
HETATM   32  C   UNL     1      16.306   4.082  -0.456  1.00  0.00     0.012 C 
BRANCH  31  33
HETATM   33  C   UNL     1      18.565   4.988   0.302  1.00  0.00     0.002 C 
HETATM   34  C   UNL     1      18.777   4.975  -1.205  1.00  0.00     0.005 C 
ENDBRANCH  31  33
ENDBRANCH  13  31
BRANCH  14  35
HETATM   35  C   UNL     1       9.524   8.865   3.406  1.00  0.00     0.010 C 
HETATM   36  C   UNL     1       8.949   9.207   4.778  1.00  0.00     0.012 C 
HETATM   37  C   UNL     1       9.565  10.108   2.518  1.00  0.00     0.012 C 
ENDBRANCH  14  35
BRANCH  16  38
HETATM   38  C   UNL     1      17.176   8.623   5.427  1.00  0.00     0.016 C 
HETATM   39  C   UNL     1      18.430   8.863   6.266  1.00  0.00     0.012 C 
HETATM   40  C   UNL     1      15.927   9.041   6.201  1.00  0.00     0.012 C 
ENDBRANCH  16  38
BRANCH  18  41
HETATM   41  C   UNL     1      10.086   5.773   7.015  1.00  0.00     0.016 C 
HETATM   42  C   UNL     1      10.063   4.770   8.166  1.00  0.00     0.012 C 
HETATM   43  C   UNL     1       8.868   5.585   6.114  1.00  0.00     0.012 C 
ENDBRANCH  18  41
BRANCH  15  44
HETATM   44  C   UNL     1      15.330   4.107   8.246  1.00  0.00     0.010 C 
HETATM   45  C   UNL     1      15.569   4.291   9.742  1.00  0.00     0.012 C 
HETATM   46  C   UNL     1      16.553   3.486   7.577  1.00  0.00     0.012 C 
ENDBRANCH  15  44
TORSDOF 7
ENDMDL
MODEL 12
REMARK VINA RESULT:    -4.890      2.516      7.373
REMARK INTER + INTRA:          -5.791
REMARK INTER:                  -6.617
REMARK INTRA:                   0.826
REMARK UNBOUND:                 1.100
REMARK  7 active torsions:
REMARK  status: ('A' for Active; 'I' for Inactive)
REMARK    1  A    between atoms: C_13  and  C_14 
REMARK    2  A    between atoms: C_14  and  C_19 
REMARK    3  A    between atoms: C_15  and  C_20 
REMARK    4  A    between atoms: C_16  and  C_21 
REMARK    5  A    between atoms: C_17  and  C_23 
REMARK    6  A    between atoms: C_18  and  C_26 
REMARK    7  A    between atoms: C_22  and  C_28 
ROOT
HETATM    1  O   UNL     1       5.469  14.655  -1.839  1.00  0.00    -0.304 OA
HETATM    2  O   UNL     1       7.492  10.028  -0.503  1.00  0.00    -0.304 OA
HETATM    3  O   UNL     1       2.920  10.772   0.442  1.00  0.00    -0.304 OA
HETATM    4  O   UNL     1       8.079  13.146  -0.136  1.00  0.00    -0.270 OA
HETATM    5  O   UNL     1       5.203  12.674  -2.988  1.00  0.00    -0.263 OA
HETATM    6  O   UNL     1       5.234  13.566   0.501  1.00  0.00    -0.270 OA
HETATM    7  O   UNL     1       4.437   8.077   1.414  1.00  0.00    -0.270 OA
HETATM    8  O   UNL     1       8.766   8.127  -0.701  1.00  0.00    -0.263 OA
HETATM    9  O   UNL     1       3.286  10.488   2.697  1.00  0.00    -0.263 OA
HETATM   10  N   UNL     1       7.952  12.386  -2.325  1.00  0.00    -0.340 N 
HETATM   11  N   UNL     1       2.927  13.400   0.528  1.00  0.00    -0.340 N 
HETATM   12  N   UNL     1       5.144   8.748  -0.699  1.00  0.00    -0.340 N 
HETATM   13  C   UNL     1       7.406  13.685  -2.771  1.00  0.00     0.190 C 
HETATM   14  C   UNL     1       2.973  12.722   1.842  1.00  0.00     0.190 C 
HETATM   15  C   UNL     1       6.360   7.911  -0.647  1.00  0.00     0.190 C 
HETATM   16  C   UNL     1       8.673  10.853  -0.473  1.00  0.00     0.227 C 
HETATM   17  C   UNL     1       4.114  14.603  -1.341  1.00  0.00     0.227 C 
HETATM   18  C   UNL     1       2.863   9.366   0.138  1.00  0.00     0.227 C 
HETATM   19  C   UNL     1       8.214  12.227  -0.953  1.00  0.00     0.250 C 
HETATM   20  C   UNL     1       5.902  13.590  -2.575  1.00  0.00     0.283 C 
HETATM   21  C   UNL     1       4.146  13.811  -0.031  1.00  0.00     0.250 C 
HETATM   22  C   UNL     1       4.218   8.677   0.357  1.00  0.00     0.250 C 
HETATM   23  C   UNL     1       7.675   8.685  -0.635  1.00  0.00     0.283 C 
HETATM   24  C   UNL     1       3.095  11.204   1.719  1.00  0.00     0.283 C 
HETATM   25  C   UNL     1       8.147  11.342  -3.336  1.00  0.00     0.153 C 
HETATM   26  C   UNL     1       1.621  13.563  -0.113  1.00  0.00     0.153 C 
HETATM   27  C   UNL     1       4.877   9.479  -1.939  1.00  0.00     0.153 C 
ENDROOT
BRANCH  17  28
HETATM   28  C   UNL     1       3.680  16.040  -1.090  1.00  0.00     0.016 C 
HETATM   29  C   UNL     1       4.840  16.863  -0.532  1.00  0.00     0.012 C 
HETATM   30  C   UNL     1       3.143  16.673  -2.372  1.00  0.00     0.012 C 
ENDBRANCH  17  28
BRANCH  13  31
HETATM   31  C   UNL     1       7.725  14.086  -4.207  1.00  0.00     0.014 C 
HETATM   32  C   UNL     1       6.623  14.997  -4.749  1.00  0.00     0.012 C 
BRANCH  31  33
HETATM   33  C   UNL     1       9.114  14.747  -4.270  1.00  0.00     0.002 C 
HETATM   34  C   UNL     1       9.381  15.720  -3.130  1.00  0.00     0.005 C 
ENDBRANCH  31  33
ENDBRANCH  13  31
BRANCH  14  35
HETATM   35  C   UNL     1       1.800  13.072   2.756  1.00  0.00     0.010 C 
HETATM   36  C   UNL     1       1.412  11.874   3.620  1.00  0.00     0.012 C 
HETATM   37  C   UNL     1       2.140  14.276   3.634  1.00  0.00     0.012 C 
ENDBRANCH  14  35
BRANCH  16  38
HETATM   38  C   UNL     1       9.199  10.902   0.959  1.00  0.00     0.016 C 
HETATM   39  C   UNL     1      10.559  10.213   1.058  1.00  0.00     0.012 C 
HETATM   40  C   UNL     1       8.202  10.258   1.922  1.00  0.00     0.012 C 
ENDBRANCH  16  38
BRANCH  18  41
HETATM   41  C   UNL     1       1.721   8.671   0.878  1.00  0.00     0.016 C 
HETATM   42  C   UNL     1       1.507   7.261   0.333  1.00  0.00     0.012 C 
HETATM   43  C   UNL     1       0.435   9.489   0.769  1.00  0.00     0.012 C 
ENDBRANCH  18  41
BRANCH  15  44
HETATM   44  C   UNL     1       6.363   6.866  -1.763  1.00  0.00     0.010 C 
HETATM   45  C   UNL     1       6.747   5.496  -1.212  1.00  0.00     0.012 C 
HETATM   46  C   UNL     1       7.313   7.283  -2.882  1.00  0.00     0.012 C 
ENDBRANCH  15  44
TORSDOF 7
ENDMDL
MODEL 13
REMARK VINA RESULT:    -4.838      2.945      7.764
REMARK INTER + INTRA:          -5.717
REMARK INTER:                  -6.424
REMARK INTRA:                   0.707
REMARK UNBOUND:                 1.100
REMARK  7 active torsions:
REMARK  status: ('A' for Active; 'I' for Inactive)
REMARK    1  A    between atoms: C_13  and  C_14 
REMARK    2  A    between atoms: C_14  and  C_19 
REMARK    3  A    between atoms: C_15  and  C_20 
REMARK    4  A    between atoms: C_16  and  C_21 
REMARK    5  A    between atoms: C_17  and  C_23 
REMARK    6  A    between atoms: C_18  and  C_26 
REMARK    7  A    between atoms: C_22  and  C_28 
ROOT
HETATM    1  O   UNL     1       6.710  12.996  -3.609  1.00  0.00    -0.304 OA
HETATM    2  O   UNL     1       9.549   9.026  -5.473  1.00  0.00    -0.304 OA
HETATM    3  O   UNL     1       8.117  12.322  -8.543  1.00  0.00    -0.304 OA
HETATM    4  O   UNL     1       6.944   9.542  -3.698  1.00  0.00    -0.270 OA
HETATM    5  O   UNL     1       8.952  13.063  -4.146  1.00  0.00    -0.263 OA
HETATM    6  O   UNL     1       6.055  11.552  -5.659  1.00  0.00    -0.270 OA
HETATM    7  O   UNL     1       9.667   9.649  -9.524  1.00  0.00    -0.270 OA
HETATM    8  O   UNL     1      11.214   7.444  -5.528  1.00  0.00    -0.263 OA
HETATM    9  O   UNL     1       6.928  10.760  -9.746  1.00  0.00    -0.263 OA
HETATM   10  N   UNL     1       8.910  10.499  -2.920  1.00  0.00    -0.340 N 
HETATM   11  N   UNL     1       6.035  13.248  -7.232  1.00  0.00    -0.340 N 
HETATM   12  N   UNL     1      10.527  10.456  -7.519  1.00  0.00    -0.340 N 
HETATM   13  C   UNL     1       8.160  11.633  -2.343  1.00  0.00     0.190 C 
HETATM   14  C   UNL     1       5.729  12.276  -8.303  1.00  0.00     0.190 C 
HETATM   15  C   UNL     1      11.209   9.184  -7.205  1.00  0.00     0.190 C 
HETATM   16  C   UNL     1       8.960   8.410  -4.311  1.00  0.00     0.227 C 
HETATM   17  C   UNL     1       6.359  13.758  -4.785  1.00  0.00     0.227 C 
HETATM   18  C   UNL     1       9.391  12.002  -9.132  1.00  0.00     0.227 C 
HETATM   19  C   UNL     1       8.178   9.523  -3.619  1.00  0.00     0.250 C 
HETATM   20  C   UNL     1       8.024  12.651  -3.463  1.00  0.00     0.283 C 
HETATM   21  C   UNL     1       6.141  12.756  -5.923  1.00  0.00     0.250 C 
HETATM   22  C   UNL     1       9.861  10.591  -8.749  1.00  0.00     0.250 C 
HETATM   23  C   UNL     1      10.680   8.455  -5.973  1.00  0.00     0.283 C 
HETATM   24  C   UNL     1       6.984  11.682  -8.939  1.00  0.00     0.283 C 
HETATM   25  C   UNL     1      10.367  10.487  -2.757  1.00  0.00     0.153 C 
HETATM   26  C   UNL     1       6.242  14.647  -7.614  1.00  0.00     0.153 C 
HETATM   27  C   UNL     1      10.734  11.579  -6.603  1.00  0.00     0.153 C 
ENDROOT
BRANCH  17  28
HETATM   28  C   UNL     1       5.066  14.494  -4.463  1.00  0.00     0.016 C 
HETATM   29  C   UNL     1       4.393  13.889  -3.232  1.00  0.00     0.012 C 
HETATM   30  C   UNL     1       5.332  15.983  -4.250  1.00  0.00     0.012 C 
ENDBRANCH  17  28
BRANCH  13  31
HETATM   31  C   UNL     1       8.778  12.285  -1.111  1.00  0.00     0.014 C 
HETATM   32  C   UNL     1       8.216  13.697  -0.933  1.00  0.00     0.012 C 
BRANCH  31  33
HETATM   33  C   UNL     1       8.539  11.401   0.126  1.00  0.00     0.002 C 
HETATM   34  C   UNL     1       7.092  10.959   0.293  1.00  0.00     0.005 C 
ENDBRANCH  31  33
ENDBRANCH  13  31
BRANCH  14  35
HETATM   35  C   UNL     1       4.812  12.831  -9.394  1.00  0.00     0.010 C 
HETATM   36  C   UNL     1       5.571  12.983 -10.711  1.00  0.00     0.012 C 
HETATM   37  C   UNL     1       3.590  11.932  -9.582  1.00  0.00     0.012 C 
ENDBRANCH  14  35
BRANCH  16  38
HETATM   38  C   UNL     1       8.045   7.277  -4.769  1.00  0.00     0.016 C 
HETATM   39  C   UNL     1       8.624   5.921  -4.369  1.00  0.00     0.012 C 
HETATM   40  C   UNL     1       7.824   7.340  -6.279  1.00  0.00     0.012 C 
ENDBRANCH  16  38
BRANCH  18  41
HETATM   41  C   UNL     1       9.393  12.236 -10.642  1.00  0.00     0.016 C 
HETATM   42  C   UNL     1      10.767  11.922 -11.231  1.00  0.00     0.012 C 
HETATM   43  C   UNL     1       8.987  13.672 -10.963  1.00  0.00     0.012 C 
ENDBRANCH  18  41
BRANCH  15  44
HETATM   44  C   UNL     1      12.723   9.375  -7.104  1.00  0.00     0.010 C 
HETATM   45  C   UNL     1      13.438   8.556  -8.175  1.00  0.00     0.012 C 
HETATM   46  C   UNL     1      13.218   8.993  -5.713  1.00  0.00     0.012 C 
ENDBRANCH  15  44
TORSDOF 7
ENDMDL
MODEL 14
REMARK VINA RESULT:    -4.819      2.217      6.602
REMARK INTER + INTRA:          -5.691
REMARK INTER:                  -6.690
REMARK INTRA:                   0.999
REMARK UNBOUND:                 1.100
REMARK  7 active torsions:
REMARK  status: ('A' for Active; 'I' for Inactive)
REMARK    1  A    between atoms: C_13  and  C_14 
REMARK    2  A    between atoms: C_14  and  C_19 
REMARK    3  A    between atoms: C_15  and  C_20 
REMARK    4  A    between atoms: C_16  and  C_21 
REMARK    5  A    between atoms: C_17  and  C_23 
REMARK    6  A    between atoms: C_18  and  C_26 
REMARK    7  A    between atoms: C_22  and  C_28 
ROOT
HETATM    1  O   UNL     1       4.187  11.810   1.095  1.00  0.00    -0.304 OA
HETATM    2  O   UNL     1       6.880   9.540  -2.763  1.00  0.00    -0.304 OA
HETATM    3  O   UNL     1       7.015  14.257  -2.482  1.00  0.00    -0.304 OA
HETATM    4  O   UNL     1       3.940   9.545  -1.514  1.00  0.00    -0.270 OA
HETATM    5  O   UNL     1       6.467  11.462   1.051  1.00  0.00    -0.263 OA
HETATM    6  O   UNL     1       4.037  12.487  -1.402  1.00  0.00    -0.270 OA
HETATM    7  O   UNL     1       8.400  12.663  -4.942  1.00  0.00    -0.270 OA
HETATM    8  O   UNL     1       8.227   7.988  -3.790  1.00  0.00    -0.263 OA
HETATM    9  O   UNL     1       6.073  14.461  -4.572  1.00  0.00    -0.263 OA
HETATM   10  N   UNL     1       5.660   8.975  -0.064  1.00  0.00    -0.340 N 
HETATM   11  N   UNL     1       4.774  14.668  -1.169  1.00  0.00    -0.340 N 
HETATM   12  N   UNL     1       8.665  11.533  -2.926  1.00  0.00    -0.340 N 
HETATM   13  C   UNL     1       4.934   9.572   1.075  1.00  0.00     0.190 C 
HETATM   14  C   UNL     1       4.698  14.869  -2.632  1.00  0.00     0.190 C 
HETATM   15  C   UNL     1       9.019  10.262  -3.592  1.00  0.00     0.190 C 
HETATM   16  C   UNL     1       5.862   8.547  -2.529  1.00  0.00     0.227 C 
HETATM   17  C   UNL     1       4.351  13.224   0.853  1.00  0.00     0.227 C 
HETATM   18  C   UNL     1       8.351  14.020  -2.961  1.00  0.00     0.227 C 
HETATM   19  C   UNL     1       5.065   9.063  -1.335  1.00  0.00     0.250 C 
HETATM   20  C   UNL     1       5.317  11.043   1.085  1.00  0.00     0.283 C 
HETATM   21  C   UNL     1       4.376  13.421  -0.666  1.00  0.00     0.250 C 
HETATM   22  C   UNL     1       8.464  12.683  -3.709  1.00  0.00     0.250 C 
HETATM   23  C   UNL     1       8.017   9.128  -3.389  1.00  0.00     0.283 C 
HETATM   24  C   UNL     1       5.993  14.493  -3.349  1.00  0.00     0.283 C 
HETATM   25  C   UNL     1       6.967   8.365   0.201  1.00  0.00     0.153 C 
HETATM   26  C   UNL     1       5.292  15.767  -0.352  1.00  0.00     0.153 C 
HETATM   27  C   UNL     1       8.721  11.570  -1.463  1.00  0.00     0.153 C 
ENDROOT
BRANCH  17  28
HETATM   28  C   UNL     1       3.144  13.919   1.465  1.00  0.00     0.016 C 
HETATM   29  C   UNL     1       1.849  13.403   0.838  1.00  0.00     0.012 C 
HETATM   30  C   UNL     1       3.120  13.724   2.980  1.00  0.00     0.012 C 
ENDBRANCH  17  28
BRANCH  13  31
HETATM   31  C   UNL     1       5.203   8.949   2.440  1.00  0.00     0.014 C 
HETATM   32  C   UNL     1       4.978   9.989   3.539  1.00  0.00     0.012 C 
BRANCH  31  33
HETATM   33  C   UNL     1       4.323   7.700   2.630  1.00  0.00     0.002 C 
HETATM   34  C   UNL     1       2.932   7.834   2.026  1.00  0.00     0.005 C 
ENDBRANCH  31  33
ENDBRANCH  13  31
BRANCH  14  35
HETATM   35  C   UNL     1       4.277  16.281  -3.038  1.00  0.00     0.010 C 
HETATM   36  C   UNL     1       4.468  16.491  -4.539  1.00  0.00     0.012 C 
HETATM   37  C   UNL     1       2.825  16.547  -2.641  1.00  0.00     0.012 C 
ENDBRANCH  14  35
BRANCH  16  38
HETATM   38  C   UNL     1       4.994   8.431  -3.780  1.00  0.00     0.016 C 
HETATM   39  C   UNL     1       5.200   7.077  -4.456  1.00  0.00     0.012 C 
HETATM   40  C   UNL     1       5.299   9.567  -4.754  1.00  0.00     0.012 C 
ENDBRANCH  16  38
BRANCH  18  41
HETATM   41  C   UNL     1       8.880  15.199  -3.776  1.00  0.00     0.016 C 
HETATM   42  C   UNL     1      10.399  15.126  -3.902  1.00  0.00     0.012 C 
HETATM   43  C   UNL     1       8.456  16.522  -3.142  1.00  0.00     0.012 C 
ENDBRANCH  18  41
BRANCH  15  44
HETATM   44  C   UNL     1      10.428   9.808  -3.209  1.00  0.00     0.010 C 
HETATM   45  C   UNL     1      11.125   9.165  -4.405  1.00  0.00     0.012 C 
HETATM   46  C   UNL     1      10.375   8.839  -2.032  1.00  0.00     0.012 C 
ENDBRANCH  15  44
TORSDOF 7
ENDMDL
MODEL 15
REMARK VINA RESULT:    -4.686     12.420     17.518
REMARK INTER + INTRA:          -5.504
REMARK INTER:                  -6.153
REMARK INTRA:                   0.649
REMARK UNBOUND:                 1.100
REMARK  7 active torsions:
REMARK  status: ('A' for Active; 'I' for Inactive)
REMARK    1  A    between atoms: C_13  and  C_14 
REMARK    2  A    between atoms: C_14  and  C_19 
REMARK    3  A    between atoms: C_15  and  C_20 
REMARK    4  A    between atoms: C_16  and  C_21 
REMARK    5  A    between atoms: C_17  and  C_23 
REMARK    6  A    between atoms: C_18  and  C_26 
REMARK    7  A    between atoms: C_22  and  C_28 
ROOT
HETATM    1  O   UNL     1      19.323   5.130   4.814  1.00  0.00    -0.304 OA
HETATM    2  O   UNL     1      19.181   7.715   9.352  1.00  0.00    -0.304 OA
HETATM    3  O   UNL     1      23.275   5.706   8.105  1.00  0.00    -0.304 OA
HETATM    4  O   UNL     1      17.581   5.431   7.793  1.00  0.00    -0.270 OA
HETATM    5  O   UNL     1      20.151   7.248   5.198  1.00  0.00    -0.263 OA
HETATM    6  O   UNL     1      20.149   4.176   7.078  1.00  0.00    -0.270 OA
HETATM    7  O   UNL     1      22.896   7.136  10.990  1.00  0.00    -0.270 OA
HETATM    8  O   UNL     1      18.637   9.385  10.832  1.00  0.00    -0.263 OA
HETATM    9  O   UNL     1      23.252   4.372   9.980  1.00  0.00    -0.263 OA
HETATM   10  N   UNL     1      17.753   7.475   6.707  1.00  0.00    -0.340 N 
HETATM   11  N   UNL     1      22.360   3.851   6.482  1.00  0.00    -0.340 N 
HETATM   12  N   UNL     1      21.797   8.299   9.301  1.00  0.00    -0.340 N 
HETATM   13  C   UNL     1      17.766   6.805   5.391  1.00  0.00     0.190 C 
HETATM   14  C   UNL     1      22.681   3.394   7.851  1.00  0.00     0.190 C 
HETATM   15  C   UNL     1      20.961   9.056  10.255  1.00  0.00     0.190 C 
HETATM   16  C   UNL     1      17.796   7.344   9.214  1.00  0.00     0.227 C 
HETATM   17  C   UNL     1      20.653   4.567   4.773  1.00  0.00     0.227 C 
HETATM   18  C   UNL     1      23.789   6.870   8.776  1.00  0.00     0.227 C 
HETATM   19  C   UNL     1      17.697   6.661   7.853  1.00  0.00     0.250 C 
HETATM   20  C   UNL     1      19.220   6.457   5.118  1.00  0.00     0.283 C 
HETATM   21  C   UNL     1      21.026   4.187   6.208  1.00  0.00     0.250 C 
HETATM   22  C   UNL     1      22.788   7.434   9.796  1.00  0.00     0.250 C 
HETATM   23  C   UNL     1      19.466   8.759  10.179  1.00  0.00     0.283 C 
HETATM   24  C   UNL     1      23.085   4.539   8.777  1.00  0.00     0.283 C 
HETATM   25  C   UNL     1      17.837   8.939   6.731  1.00  0.00     0.153 C 
HETATM   26  C   UNL     1      23.459   3.956   5.519  1.00  0.00     0.153 C 
HETATM   27  C   UNL     1      21.671   8.629   7.880  1.00  0.00     0.153 C 
ENDROOT
BRANCH  17  28
HETATM   28  C   UNL     1      20.580   3.329   3.891  1.00  0.00     0.016 C 
HETATM   29  C   UNL     1      19.203   2.675   3.993  1.00  0.00     0.012 C 
HETATM   30  C   UNL     1      20.898   3.681   2.438  1.00  0.00     0.012 C 
ENDBRANCH  17  28
BRANCH  13  31
HETATM   31  C   UNL     1      17.188   7.604   4.228  1.00  0.00     0.014 C 
HETATM   32  C   UNL     1      17.851   7.171   2.920  1.00  0.00     0.012 C 
BRANCH  31  33
HETATM   33  C   UNL     1      15.658   7.443   4.189  1.00  0.00     0.002 C 
HETATM   34  C   UNL     1      14.899   8.692   4.614  1.00  0.00     0.005 C 
ENDBRANCH  31  33
ENDBRANCH  13  31
BRANCH  14  35
HETATM   35  C   UNL     1      23.742   2.294   7.899  1.00  0.00     0.010 C 
HETATM   36  C   UNL     1      25.055   2.834   8.461  1.00  0.00     0.012 C 
HETATM   37  C   UNL     1      23.253   1.108   8.730  1.00  0.00     0.012 C 
ENDBRANCH  14  35
BRANCH  16  38
HETATM   38  C   UNL     1      17.427   6.394  10.350  1.00  0.00     0.016 C 
HETATM   39  C   UNL     1      16.413   7.043  11.290  1.00  0.00     0.012 C 
HETATM   40  C   UNL     1      18.675   5.967  11.122  1.00  0.00     0.012 C 
ENDBRANCH  16  38
BRANCH  18  41
HETATM   41  C   UNL     1      25.168   6.614   9.382  1.00  0.00     0.016 C 
HETATM   42  C   UNL     1      25.680   7.862  10.099  1.00  0.00     0.012 C 
HETATM   43  C   UNL     1      26.154   6.172   8.304  1.00  0.00     0.012 C 
ENDBRANCH  18  41
BRANCH  15  44
HETATM   44  C   UNL     1      21.214  10.560  10.145  1.00  0.00     0.010 C 
HETATM   45  C   UNL     1      21.168  11.213  11.524  1.00  0.00     0.012 C 
HETATM   46  C   UNL     1      20.196  11.205   9.209  1.00  0.00     0.012 C 
ENDBRANCH  15  44
TORSDOF 7
ENDMDL
MODEL 16
REMARK VINA RESULT:    -4.616      4.479      9.495
REMARK INTER + INTRA:          -5.405
REMARK INTER:                  -6.026
REMARK INTRA:                   0.621
REMARK UNBOUND:                 1.100
REMARK  7 active torsions:
REMARK  status: ('A' for Active; 'I' for Inactive)
REMARK    1  A    between atoms: C_13  and  C_14 
REMARK    2  A    between atoms: C_14  and  C_19 
REMARK    3  A    between atoms: C_15  and  C_20 
REMARK    4  A    between atoms: C_16  and  C_21 
REMARK    5  A    between atoms: C_17  and  C_23 
REMARK    6  A    between atoms: C_18  and  C_26 
REMARK    7  A    between atoms: C_22  and  C_28 
ROOT
HETATM    1  O   UNL     1       9.281  11.357 -10.982  1.00  0.00    -0.304 OA
HETATM    2  O   UNL     1       8.564   9.537  -6.138  1.00  0.00    -0.304 OA
HETATM    3  O   UNL     1      12.820   8.918  -8.101  1.00  0.00    -0.304 OA
HETATM    4  O   UNL     1       7.207   9.390  -9.026  1.00  0.00    -0.270 OA
HETATM    5  O   UNL     1      10.008  12.355  -9.034  1.00  0.00    -0.263 OA
HETATM    6  O   UNL     1       9.868   8.954 -10.211  1.00  0.00    -0.270 OA
HETATM    7  O   UNL     1      12.083   7.646  -5.212  1.00  0.00    -0.270 OA
HETATM    8  O   UNL     1       7.816   9.506  -3.966  1.00  0.00    -0.263 OA
HETATM    9  O   UNL     1      12.618   6.631  -7.945  1.00  0.00    -0.263 OA
HETATM   10  N   UNL     1       7.450  11.515  -8.123  1.00  0.00    -0.340 N 
HETATM   11  N   UNL     1      12.140   9.045 -10.638  1.00  0.00    -0.340 N 
HETATM   12  N   UNL     1      11.155   9.761  -5.483  1.00  0.00    -0.340 N 
HETATM   13  C   UNL     1       7.628  12.095  -9.470  1.00  0.00     0.190 C 
HETATM   14  C   UNL     1      12.315   7.681 -10.095  1.00  0.00     0.190 C 
HETATM   15  C   UNL     1      10.197   9.572  -4.373  1.00  0.00     0.190 C 
HETATM   16  C   UNL     1       7.213   9.506  -6.636  1.00  0.00     0.227 C 
HETATM   17  C   UNL     1      10.620  10.935 -11.321  1.00  0.00     0.227 C 
HETATM   18  C   UNL     1      13.227   9.109  -6.734  1.00  0.00     0.227 C 
HETATM   19  C   UNL     1       7.285  10.121  -8.031  1.00  0.00     0.250 C 
HETATM   20  C   UNL     1       9.111  11.979  -9.778  1.00  0.00     0.283 C 
HETATM   21  C   UNL     1      10.838   9.565 -10.672  1.00  0.00     0.250 C 
HETATM   22  C   UNL     1      12.103   8.758  -5.747  1.00  0.00     0.250 C 
HETATM   23  C   UNL     1       8.728   9.548  -4.786  1.00  0.00     0.283 C 
HETATM   24  C   UNL     1      12.584   7.672  -8.592  1.00  0.00     0.283 C 
HETATM   25  C   UNL     1       7.495  12.424  -6.973  1.00  0.00     0.153 C 
HETATM   26  C   UNL     1      13.337   9.772 -11.066  1.00  0.00     0.153 C 
HETATM   27  C   UNL     1      11.181  11.070  -6.138  1.00  0.00     0.153 C 
ENDROOT
BRANCH  17  28
HETATM   28  C   UNL     1      10.677  10.827 -12.838  1.00  0.00     0.016 C 
HETATM   29  C   UNL     1       9.553   9.931 -13.357  1.00  0.00     0.012 C 
HETATM   30  C   UNL     1      10.599  12.211 -13.481  1.00  0.00     0.012 C 
ENDBRANCH  17  28
BRANCH  13  31
HETATM   31  C   UNL     1       7.166  13.538  -9.641  1.00  0.00     0.014 C 
HETATM   32  C   UNL     1       7.888  14.177 -10.829  1.00  0.00     0.012 C 
BRANCH  31  33
HETATM   33  C   UNL     1       5.636  13.585  -9.795  1.00  0.00     0.002 C 
HETATM   34  C   UNL     1       5.081  12.515 -10.725  1.00  0.00     0.005 C 
ENDBRANCH  31  33
ENDBRANCH  13  31
BRANCH  14  35
HETATM   35  C   UNL     1      13.390   6.866 -10.815  1.00  0.00     0.010 C 
HETATM   36  C   UNL     1      14.629   6.711  -9.936  1.00  0.00     0.012 C 
HETATM   37  C   UNL     1      12.848   5.496 -11.222  1.00  0.00     0.012 C 
ENDBRANCH  14  35
BRANCH  16  38
HETATM   38  C   UNL     1       6.741   8.054  -6.683  1.00  0.00     0.016 C 
HETATM   39  C   UNL     1       5.644   7.810  -5.649  1.00  0.00     0.012 C 
HETATM   40  C   UNL     1       7.913   7.100  -6.457  1.00  0.00     0.012 C 
ENDBRANCH  16  38
BRANCH  18  41
HETATM   41  C   UNL     1      14.534   8.382  -6.423  1.00  0.00     0.016 C 
HETATM   42  C   UNL     1      14.909   8.557  -4.953  1.00  0.00     0.012 C 
HETATM   43  C   UNL     1      15.657   8.887  -7.327  1.00  0.00     0.012 C 
ENDBRANCH  18  41
BRANCH  15  44
HETATM   44  C   UNL     1      10.425  10.598  -3.262  1.00  0.00     0.010 C 
HETATM   45  C   UNL     1      10.440   9.914  -1.898  1.00  0.00     0.012 C 
HETATM   46  C   UNL     1       9.353  11.683  -3.310  1.00  0.00     0.012 C 
ENDBRANCH  15  44
TORSDOF 7
ENDMDL
MODEL 17
REMARK VINA RESULT:    -4.594     11.028     15.534
REMARK INTER + INTRA:          -5.374
REMARK INTER:                  -6.142
REMARK INTRA:                   0.768
REMARK UNBOUND:                 1.100
REMARK  7 active torsions:
REMARK  status: ('A' for Active; 'I' for Inactive)
REMARK    1  A    between atoms: C_13  and  C_14 
REMARK    2  A    between atoms: C_14  and  C_19 
REMARK    3  A    between atoms: C_15  and  C_20 
REMARK    4  A    between atoms: C_16  and  C_21 
REMARK    5  A    between atoms: C_17  and  C_23 
REMARK    6  A    between atoms: C_18  and  C_26 
REMARK    7  A    between atoms: C_22  and  C_28 
ROOT
HETATM    1  O   UNL     1      18.906   4.082   3.730  1.00  0.00    -0.304 OA
HETATM    2  O   UNL     1      16.556   7.594   6.801  1.00  0.00    -0.304 OA
HETATM    3  O   UNL     1      21.168   6.822   7.492  1.00  0.00    -0.304 OA
HETATM    4  O   UNL     1      16.193   4.575   5.825  1.00  0.00    -0.270 OA
HETATM    5  O   UNL     1      19.031   6.374   3.515  1.00  0.00    -0.263 OA
HETATM    6  O   UNL     1      19.060   4.113   6.317  1.00  0.00    -0.270 OA
HETATM    7  O   UNL     1      19.462   8.765   9.447  1.00  0.00    -0.270 OA
HETATM    8  O   UNL     1      15.149   9.319   7.370  1.00  0.00    -0.263 OA
HETATM    9  O   UNL     1      20.781   6.118   9.650  1.00  0.00    -0.263 OA
HETATM   10  N   UNL     1      16.268   6.182   4.153  1.00  0.00    -0.340 N 
HETATM   11  N   UNL     1      21.349   4.401   6.482  1.00  0.00    -0.340 N 
HETATM   12  N   UNL     1      18.807   8.988   7.226  1.00  0.00    -0.340 N 
HETATM   13  C   UNL     1      16.906   5.225   3.226  1.00  0.00     0.190 C 
HETATM   14  C   UNL     1      21.254   4.468   7.956  1.00  0.00     0.190 C 
HETATM   15  C   UNL     1      17.534   9.647   7.583  1.00  0.00     0.190 C 
HETATM   16  C   UNL     1      15.437   6.756   6.451  1.00  0.00     0.227 C 
HETATM   17  C   UNL     1      20.254   4.010   4.246  1.00  0.00     0.227 C 
HETATM   18  C   UNL     1      21.125   8.227   7.801  1.00  0.00     0.227 C 
HETATM   19  C   UNL     1      15.993   5.739   5.459  1.00  0.00     0.250 C 
HETATM   20  C   UNL     1      18.399   5.327   3.489  1.00  0.00     0.283 C 
HETATM   21  C   UNL     1      20.163   4.182   5.765  1.00  0.00     0.250 C 
HETATM   22  C   UNL     1      19.724   8.674   8.244  1.00  0.00     0.250 C 
HETATM   23  C   UNL     1      16.277   8.855   7.233  1.00  0.00     0.283 C 
HETATM   24  C   UNL     1      21.024   5.887   8.470  1.00  0.00     0.283 C 
HETATM   25  C   UNL     1      15.999   7.537   3.661  1.00  0.00     0.153 C 
HETATM   26  C   UNL     1      22.664   4.604   5.871  1.00  0.00     0.153 C 
HETATM   27  C   UNL     1      19.126   8.858   5.804  1.00  0.00     0.153 C 
ENDROOT
BRANCH  17  28
HETATM   28  C   UNL     1      20.788   2.630   3.893  1.00  0.00     0.016 C 
HETATM   29  C   UNL     1      19.641   1.674   3.568  1.00  0.00     0.012 C 
HETATM   30  C   UNL     1      21.763   2.714   2.719  1.00  0.00     0.012 C 
ENDBRANCH  17  28
BRANCH  13  31
HETATM   31  C   UNL     1      16.617   5.437   1.744  1.00  0.00     0.014 C 
HETATM   32  C   UNL     1      17.723   4.797   0.902  1.00  0.00     0.012 C 
BRANCH  31  33
HETATM   33  C   UNL     1      15.224   4.883   1.396  1.00  0.00     0.002 C 
HETATM   34  C   UNL     1      14.993   4.700  -0.098  1.00  0.00     0.005 C 
ENDBRANCH  31  33
ENDBRANCH  13  31
BRANCH  14  35
HETATM   35  C   UNL     1      22.448   3.845   8.679  1.00  0.00     0.010 C 
HETATM   36  C   UNL     1      23.302   4.926   9.339  1.00  0.00     0.012 C 
HETATM   37  C   UNL     1      21.980   2.825   9.716  1.00  0.00     0.012 C 
ENDBRANCH  14  35
BRANCH  16  38
HETATM   38  C   UNL     1      14.914   6.083   7.717  1.00  0.00     0.016 C 
HETATM   39  C   UNL     1      13.530   6.616   8.080  1.00  0.00     0.012 C 
HETATM   40  C   UNL     1      15.887   6.288   8.878  1.00  0.00     0.012 C 
ENDBRANCH  16  38
BRANCH  18  41
HETATM   41  C   UNL     1      22.214   8.624   8.797  1.00  0.00     0.016 C 
HETATM   42  C   UNL     1      22.152  10.120   9.092  1.00  0.00     0.012 C 
HETATM   43  C   UNL     1      23.593   8.238   8.266  1.00  0.00     0.012 C 
ENDBRANCH  18  41
BRANCH  15  44
HETATM   44  C   UNL     1      17.457  11.059   7.001  1.00  0.00     0.010 C 
HETATM   45  C   UNL     1      18.847  11.686   6.933  1.00  0.00     0.012 C 
HETATM   46  C   UNL     1      16.514  11.927   7.828  1.00  0.00     0.012 C 
ENDBRANCH  15  44
TORSDOF 7
ENDMDL
MODEL 18
REMARK VINA RESULT:    -4.535      8.506     12.505
REMARK INTER + INTRA:          -5.291
REMARK INTER:                  -6.662
REMARK INTRA:                   1.372
REMARK UNBOUND:                 1.100
REMARK  7 active torsions:
REMARK  status: ('A' for Active; 'I' for Inactive)
REMARK    1  A    between atoms: C_13  and  C_14 
REMARK    2  A    between atoms: C_14  and  C_19 
REMARK    3  A    between atoms: C_15  and  C_20 
REMARK    4  A    between atoms: C_16  and  C_21 
REMARK    5  A    between atoms: C_17  and  C_23 
REMARK    6  A    between atoms: C_18  and  C_26 
REMARK    7  A    between atoms: C_22  and  C_28 
ROOT
HETATM    1  O   UNL     1      17.604   7.794   6.082  1.00  0.00    -0.304 OA
HETATM    2  O   UNL     1      12.810   6.125   4.847  1.00  0.00    -0.304 OA
HETATM    3  O   UNL     1      16.454   3.324   3.743  1.00  0.00    -0.304 OA
HETATM    4  O   UNL     1      14.670   8.696   4.478  1.00  0.00    -0.270 OA
HETATM    5  O   UNL     1      16.374   6.220   7.234  1.00  0.00    -0.263 OA
HETATM    6  O   UNL     1      16.905   6.924   3.743  1.00  0.00    -0.270 OA
HETATM    7  O   UNL     1      13.425   2.602   2.841  1.00  0.00    -0.270 OA
HETATM    8  O   UNL     1      10.558   5.748   5.100  1.00  0.00    -0.263 OA
HETATM    9  O   UNL     1      15.934   3.441   1.503  1.00  0.00    -0.263 OA
HETATM   10  N   UNL     1      14.265   8.039   6.667  1.00  0.00    -0.340 N 
HETATM   11  N   UNL     1      18.362   5.131   3.639  1.00  0.00    -0.340 N 
HETATM   12  N   UNL     1      13.490   3.535   4.971  1.00  0.00    -0.340 N 
HETATM   13  C   UNL     1      15.597   8.522   7.085  1.00  0.00     0.190 C 
HETATM   14  C   UNL     1      17.800   4.726   2.332  1.00  0.00     0.190 C 
HETATM   15  C   UNL     1      12.046   3.848   4.966  1.00  0.00     0.190 C 
HETATM   16  C   UNL     1      12.603   7.551   4.850  1.00  0.00     0.227 C 
HETATM   17  C   UNL     1      18.479   6.781   5.539  1.00  0.00     0.227 C 
HETATM   18  C   UNL     1      15.478   2.314   4.053  1.00  0.00     0.227 C 
HETATM   19  C   UNL     1      13.931   8.149   5.305  1.00  0.00     0.250 C 
HETATM   20  C   UNL     1      16.552   7.365   6.840  1.00  0.00     0.283 C 
HETATM   21  C   UNL     1      17.843   6.288   4.236  1.00  0.00     0.250 C 
HETATM   22  C   UNL     1      14.042   2.833   3.886  1.00  0.00     0.250 C 
HETATM   23  C   UNL     1      11.710   5.337   4.994  1.00  0.00     0.283 C 
HETATM   24  C   UNL     1      16.614   3.773   2.469  1.00  0.00     0.283 C 
HETATM   25  C   UNL     1      13.398   7.446   7.690  1.00  0.00     0.153 C 
HETATM   26  C   UNL     1      19.393   4.278   4.235  1.00  0.00     0.153 C 
HETATM   27  C   UNL     1      14.240   3.816   6.196  1.00  0.00     0.153 C 
ENDROOT
BRANCH  17  28
HETATM   28  C   UNL     1      19.815   7.454   5.264  1.00  0.00     0.016 C 
HETATM   29  C   UNL     1      19.675   8.975   5.322  1.00  0.00     0.012 C 
HETATM   30  C   UNL     1      20.875   6.977   6.256  1.00  0.00     0.012 C 
ENDBRANCH  17  28
BRANCH  13  31
HETATM   31  C   UNL     1      15.711   9.001   8.528  1.00  0.00     0.014 C 
HETATM   32  C   UNL     1      16.234   7.867   9.412  1.00  0.00     0.012 C 
BRANCH  31  33
HETATM   33  C   UNL     1      16.603  10.253   8.597  1.00  0.00     0.002 C 
HETATM   34  C   UNL     1      15.822  11.559   8.628  1.00  0.00     0.005 C 
ENDBRANCH  31  33
ENDBRANCH  13  31
BRANCH  14  35
HETATM   35  C   UNL     1      18.832   4.129   1.376  1.00  0.00     0.010 C 
HETATM   36  C   UNL     1      18.645   2.618   1.254  1.00  0.00     0.012 C 
HETATM   37  C   UNL     1      18.742   4.792   0.002  1.00  0.00     0.012 C 
ENDBRANCH  14  35
BRANCH  16  38
HETATM   38  C   UNL     1      12.238   7.997   3.436  1.00  0.00     0.016 C 
HETATM   39  C   UNL     1      10.761   8.380   3.356  1.00  0.00     0.012 C 
HETATM   40  C   UNL     1      12.562   6.898   2.425  1.00  0.00     0.012 C 
ENDBRANCH  16  38
BRANCH  18  41
HETATM   41  C   UNL     1      15.732   1.020   3.280  1.00  0.00     0.016 C 
HETATM   42  C   UNL     1      14.632   0.001   3.562  1.00  0.00     0.012 C 
HETATM   43  C   UNL     1      17.101   0.444   3.634  1.00  0.00     0.012 C 
ENDBRANCH  18  41
BRANCH  15  44
HETATM   44  C   UNL     1      11.314   3.113   6.089  1.00  0.00     0.010 C 
HETATM   45  C   UNL     1      11.702   3.689   7.447  1.00  0.00     0.012 C 
HETATM   46  C   UNL     1      11.614   1.618   6.032  1.00  0.00     0.012 C 
ENDBRANCH  15  44
TORSDOF 7
ENDMDL
MODEL 19
REMARK VINA RESULT:    -4.379     12.604     16.963
REMARK INTER + INTRA:          -5.070
REMARK INTER:                  -6.347
REMARK INTRA:                   1.276
REMARK UNBOUND:                 1.100
REMARK  7 active torsions:
REMARK  status: ('A' for Active; 'I' for Inactive)
REMARK    1  A    between atoms: C_13  and  C_14 
REMARK    2  A    between atoms: C_14  and  C_19 
REMARK    3  A    between atoms: C_15  and  C_20 
REMARK    4  A    between atoms: C_16  and  C_21 
REMARK    5  A    between atoms: C_17  and  C_23 
REMARK    6  A    between atoms: C_18  and  C_26 
REMARK    7  A    between atoms: C_22  and  C_28 
ROOT
HETATM    1  O   UNL     1      18.606   9.578   7.970  1.00  0.00    -0.304 OA
HETATM    2  O   UNL     1      21.335   5.270   9.100  1.00  0.00    -0.304 OA
HETATM    3  O   UNL     1      19.153   5.441   4.910  1.00  0.00    -0.304 OA
HETATM    4  O   UNL     1      19.058   7.119  10.366  1.00  0.00    -0.270 OA
HETATM    5  O   UNL     1      20.706   9.053   7.175  1.00  0.00    -0.263 OA
HETATM    6  O   UNL     1      17.697   7.161   7.754  1.00  0.00    -0.270 OA
HETATM    7  O   UNL     1      20.684   2.767   5.917  1.00  0.00    -0.270 OA
HETATM    8  O   UNL     1      23.068   4.003   9.919  1.00  0.00    -0.263 OA
HETATM    9  O   UNL     1      17.880   3.598   5.438  1.00  0.00    -0.263 OA
HETATM   10  N   UNL     1      21.060   8.176   9.856  1.00  0.00    -0.340 N 
HETATM   11  N   UNL     1      17.279   7.195   5.479  1.00  0.00    -0.340 N 
HETATM   12  N   UNL     1      21.830   4.698   6.528  1.00  0.00    -0.340 N 
HETATM   13  C   UNL     1      20.349   9.434   9.552  1.00  0.00     0.190 C 
HETATM   14  C   UNL     1      16.855   5.779   5.516  1.00  0.00     0.190 C 
HETATM   15  C   UNL     1      22.644   3.992   7.539  1.00  0.00     0.190 C 
HETATM   16  C   UNL     1      21.006   5.731  10.425  1.00  0.00     0.227 C 
HETATM   17  C   UNL     1      17.998   9.284   6.693  1.00  0.00     0.227 C 
HETATM   18  C   UNL     1      20.320   4.691   4.527  1.00  0.00     0.227 C 
HETATM   19  C   UNL     1      20.285   7.060  10.219  1.00  0.00     0.250 C 
HETATM   20  C   UNL     1      19.945   9.339   8.090  1.00  0.00     0.283 C 
HETATM   21  C   UNL     1      17.651   7.792   6.693  1.00  0.00     0.250 C 
HETATM   22  C   UNL     1      20.948   3.958   5.722  1.00  0.00     0.250 C 
HETATM   23  C   UNL     1      22.394   4.422   8.982  1.00  0.00     0.283 C 
HETATM   24  C   UNL     1      18.014   4.809   5.303  1.00  0.00     0.283 C 
HETATM   25  C   UNL     1      22.521   8.165   9.722  1.00  0.00     0.153 C 
HETATM   26  C   UNL     1      17.317   7.865   4.177  1.00  0.00     0.153 C 
HETATM   27  C   UNL     1      22.119   6.113   6.294  1.00  0.00     0.153 C 
ENDROOT
BRANCH  17  28
HETATM   28  C   UNL     1      16.736  10.129   6.600  1.00  0.00     0.016 C 
HETATM   29  C   UNL     1      15.715   9.690   7.648  1.00  0.00     0.012 C 
HETATM   30  C   UNL     1      17.066  11.612   6.763  1.00  0.00     0.012 C 
ENDBRANCH  17  28
BRANCH  13  31
HETATM   31  C   UNL     1      21.130  10.720   9.799  1.00  0.00     0.014 C 
HETATM   32  C   UNL     1      20.814  11.739   8.703  1.00  0.00     0.012 C 
BRANCH  31  33
HETATM   33  C   UNL     1      20.819  11.261  11.206  1.00  0.00     0.002 C 
HETATM   34  C   UNL     1      21.808  10.806  12.270  1.00  0.00     0.005 C 
ENDBRANCH  31  33
ENDBRANCH  13  31
BRANCH  14  35
HETATM   35  C   UNL     1      15.722   5.451   4.544  1.00  0.00     0.010 C 
HETATM   36  C   UNL     1      16.263   4.734   3.308  1.00  0.00     0.012 C 
HETATM   37  C   UNL     1      14.651   4.602   5.228  1.00  0.00     0.012 C 
ENDBRANCH  14  35
BRANCH  16  38
HETATM   38  C   UNL     1      20.105   4.697  11.094  1.00  0.00     0.016 C 
HETATM   39  C   UNL     1      18.909   4.367  10.203  1.00  0.00     0.012 C 
HETATM   40  C   UNL     1      19.633   5.196  12.459  1.00  0.00     0.012 C 
ENDBRANCH  16  38
BRANCH  18  41
HETATM   41  C   UNL     1      20.037   3.763   3.347  1.00  0.00     0.016 C 
HETATM   42  C   UNL     1      21.302   3.011   2.940  1.00  0.00     0.012 C 
HETATM   43  C   UNL     1      19.479   4.553   2.165  1.00  0.00     0.012 C 
ENDBRANCH  18  41
BRANCH  15  44
HETATM   44  C   UNL     1      24.135   4.071   7.207  1.00  0.00     0.010 C 
HETATM   45  C   UNL     1      24.787   2.699   7.347  1.00  0.00     0.012 C 
HETATM   46  C   UNL     1      24.828   5.091   8.105  1.00  0.00     0.012 C 
ENDBRANCH  15  44
TORSDOF 7
ENDMDL
MODEL 20
REMARK VINA RESULT:    -4.319      4.260      7.352
REMARK INTER + INTRA:          -4.986
REMARK INTER:                  -5.592
REMARK INTRA:                   0.605
REMARK UNBOUND:                 1.100
REMARK  7 active torsions:
REMARK  status: ('A' for Active; 'I' for Inactive)
REMARK    1  A    between atoms: C_13  and  C_14 
REMARK    2  A    between atoms: C_14  and  C_19 
REMARK    3  A    between atoms: C_15  and  C_20 
REMARK    4  A    between atoms: C_16  and  C_21 
REMARK    5  A    between atoms: C_17  and  C_23 
REMARK    6  A    between atoms: C_18  and  C_26 
REMARK    7  A    between atoms: C_22  and  C_28 
ROOT
HETATM    1  O   UNL     1       7.088  10.130   4.730  1.00  0.00    -0.304 OA
HETATM    2  O   UNL     1       9.704   7.561   1.008  1.00  0.00    -0.304 OA
HETATM    3  O   UNL     1      10.080   5.968   5.443  1.00  0.00    -0.304 OA
HETATM    4  O   UNL     1       9.312  10.536   2.105  1.00  0.00    -0.270 OA
HETATM    5  O   UNL     1       6.464   8.132   3.762  1.00  0.00    -0.263 OA
HETATM    6  O   UNL     1       9.603   9.517   4.854  1.00  0.00    -0.270 OA
HETATM    7  O   UNL     1      11.817   4.684   3.025  1.00  0.00    -0.270 OA
HETATM    8  O   UNL     1      10.093   6.604  -1.044  1.00  0.00    -0.263 OA
HETATM    9  O   UNL     1      12.354   6.325   5.434  1.00  0.00    -0.263 OA
HETATM   10  N   UNL     1       7.384   9.444   1.414  1.00  0.00    -0.340 N 
HETATM   11  N   UNL     1       9.497   8.181   6.739  1.00  0.00    -0.340 N 
HETATM   12  N   UNL     1       9.663   5.235   2.340  1.00  0.00    -0.340 N 
HETATM   13  C   UNL     1       6.583  10.163   2.426  1.00  0.00     0.190 C 
HETATM   14  C   UNL     1      10.939   7.873   6.625  1.00  0.00     0.190 C 
HETATM   15  C   UNL     1      10.018   5.179   0.907  1.00  0.00     0.190 C 
HETATM   16  C   UNL     1       9.614   8.871   0.414  1.00  0.00     0.227 C 
HETATM   17  C   UNL     1       7.479   9.468   5.953  1.00  0.00     0.227 C 
HETATM   18  C   UNL     1      10.140   4.712   4.745  1.00  0.00     0.227 C 
HETATM   19  C   UNL     1       8.768   9.693   1.382  1.00  0.00     0.250 C 
HETATM   20  C   UNL     1       6.682   9.335   3.697  1.00  0.00     0.283 C 
HETATM   21  C   UNL     1       8.946   9.059   5.795  1.00  0.00     0.250 C 
HETATM   22  C   UNL     1      10.629   4.881   3.298  1.00  0.00     0.250 C 
HETATM   23  C   UNL     1       9.932   6.513   0.169  1.00  0.00     0.283 C 
HETATM   24  C   UNL     1      11.216   6.649   5.756  1.00  0.00     0.283 C 
HETATM   25  C   UNL     1       6.690   8.494   0.539  1.00  0.00     0.153 C 
HETATM   26  C   UNL     1       8.738   7.521   7.804  1.00  0.00     0.153 C 
HETATM   27  C   UNL     1       8.262   5.484   2.681  1.00  0.00     0.153 C 
ENDROOT
BRANCH  17  28
HETATM   28  C   UNL     1       7.324  10.487   7.073  1.00  0.00     0.016 C 
HETATM   29  C   UNL     1       7.764  11.874   6.606  1.00  0.00     0.012 C 
HETATM   30  C   UNL     1       5.880  10.523   7.573  1.00  0.00     0.012 C 
ENDBRANCH  17  28
BRANCH  13  31
HETATM   31  C   UNL     1       5.121  10.408   2.070  1.00  0.00     0.014 C 
HETATM   32  C   UNL     1       4.313  10.669   3.342  1.00  0.00     0.012 C 
BRANCH  31  33
HETATM   33  C   UNL     1       5.013  11.566   1.062  1.00  0.00     0.002 C 
HETATM   34  C   UNL     1       4.181  11.231  -0.168  1.00  0.00     0.005 C 
ENDBRANCH  31  33
ENDBRANCH  13  31
BRANCH  14  35
HETATM   35  C   UNL     1      11.643   7.717   7.973  1.00  0.00     0.010 C 
HETATM   36  C   UNL     1      12.074   6.269   8.193  1.00  0.00     0.012 C 
HETATM   37  C   UNL     1      12.848   8.653   8.064  1.00  0.00     0.012 C 
ENDBRANCH  14  35
BRANCH  16  38
HETATM   38  C   UNL     1      11.022   9.442   0.270  1.00  0.00     0.016 C 
HETATM   39  C   UNL     1      11.450   9.462  -1.196  1.00  0.00     0.012 C 
HETATM   40  C   UNL     1      12.017   8.639   1.107  1.00  0.00     0.012 C 
ENDBRANCH  16  38
BRANCH  18  41
HETATM   41  C   UNL     1      10.943   3.668   5.520  1.00  0.00     0.016 C 
HETATM   42  C   UNL     1      11.016   2.358   4.740  1.00  0.00     0.012 C 
HETATM   43  C   UNL     1      10.332   3.438   6.901  1.00  0.00     0.012 C 
ENDBRANCH  18  41
BRANCH  15  44
HETATM   44  C   UNL     1       9.207   4.109   0.175  1.00  0.00     0.010 C 
HETATM   45  C   UNL     1      10.115   3.266  -0.716  1.00  0.00     0.012 C 
HETATM   46  C   UNL     1       8.093   4.753  -0.646  1.00  0.00     0.012 C 
ENDBRANCH  15  44
TORSDOF 7
ENDMDL
