MODEL 1
REMARK VINA RESULT:    -6.220      0.000      0.000
REMARK INTER + INTRA:          -7.535
REMARK INTER:                  -8.766
REMARK INTRA:                   1.231
REMARK UNBOUND:                 1.231
REMARK  7 active torsions:
REMARK  status: ('A' for Active; 'I' for Inactive)
REMARK    1  A    between atoms: C_13  and  C_14 
REMARK    2  A    between atoms: C_14  and  C_19 
REMARK    3  A    between atoms: C_15  and  C_20 
REMARK    4  A    between atoms: C_16  and  C_21 
REMARK    5  A    between atoms: C_17  and  C_23 
REMARK    6  A    between atoms: C_18  and  C_26 
REMARK    7  A    between atoms: C_22  and  C_28 
ROOT
HETATM    1  O   UNL     1      22.173  34.777  57.121  1.00  0.00    -0.304 OA
HETATM    2  O   UNL     1      26.585  31.988  57.335  1.00  0.00    -0.304 OA
HETATM    3  O   UNL     1      22.689  30.067  59.199  1.00  0.00    -0.304 OA
HETATM    4  O   UNL     1      25.503  34.903  58.067  1.00  0.00    -0.270 OA
HETATM    5  O   UNL     1      22.732  33.011  55.748  1.00  0.00    -0.263 OA
HETATM    6  O   UNL     1      23.112  33.670  59.268  1.00  0.00    -0.270 OA
HETATM    7  O   UNL     1      25.580  28.622  59.451  1.00  0.00    -0.270 OA
HETATM    8  O   UNL     1      28.582  31.108  56.617  1.00  0.00    -0.263 OA
HETATM    9  O   UNL     1      23.671  29.963  61.279  1.00  0.00    -0.263 OA
HETATM   10  N   UNL     1      25.282  34.263  55.847  1.00  0.00    -0.340 N 
HETATM   11  N   UNL     1      21.326  32.261  59.688  1.00  0.00    -0.340 N 
HETATM   12  N   UNL     1      25.301  29.634  57.375  1.00  0.00    -0.340 N 
HETATM   13  C   UNL     1      24.044  35.060  55.713  1.00  0.00     0.190 C 
HETATM   14  C   UNL     1      22.033  31.681  60.851  1.00  0.00     0.190 C 
HETATM   15  C   UNL     1      26.748  29.603  57.074  1.00  0.00     0.190 C 
HETATM   16  C   UNL     1      27.119  33.325  57.277  1.00  0.00     0.227 C 
HETATM   17  C   UNL     1      21.214  33.973  57.843  1.00  0.00     0.227 C 
HETATM   18  C   UNL     1      23.314  28.871  58.698  1.00  0.00     0.227 C 
HETATM   19  C   UNL     1      25.905  34.234  57.107  1.00  0.00     0.250 C 
HETATM   20  C   UNL     1      22.915  34.148  56.163  1.00  0.00     0.283 C 
HETATM   21  C   UNL     1      21.970  33.291  58.987  1.00  0.00     0.250 C 
HETATM   22  C   UNL     1      24.834  29.034  58.557  1.00  0.00     0.250 C 
HETATM   23  C   UNL     1      27.413  30.972  56.966  1.00  0.00     0.283 C 
HETATM   24  C   UNL     1      22.906  30.485  60.475  1.00  0.00     0.283 C 
HETATM   25  C   UNL     1      25.754  33.529  54.668  1.00  0.00     0.153 C 
HETATM   26  C   UNL     1      20.023  31.698  59.328  1.00  0.00     0.153 C 
HETATM   27  C   UNL     1      24.404  30.134  56.332  1.00  0.00     0.153 C 
ENDROOT
BRANCH  17  28
HETATM   28  C   UNL     1      20.161  34.927  58.388  1.00  0.00     0.016 C 
HETATM   29  C   UNL     1      20.819  36.104  59.106  1.00  0.00     0.012 C 
HETATM   30  C   UNL     1      19.252  35.425  57.265  1.00  0.00     0.012 C 
ENDBRANCH  17  28
BRANCH  13  31
HETATM   31  C   UNL     1      23.753  35.614  54.323  1.00  0.00     0.014 C 
HETATM   32  C   UNL     1      22.287  36.042  54.231  1.00  0.00     0.012 C 
BRANCH  31  33
HETATM   33  C   UNL     1      24.719  36.768  54.004  1.00  0.00     0.002 C 
HETATM   34  C   UNL     1      24.059  38.139  54.011  1.00  0.00     0.005 C 
ENDBRANCH  31  33
ENDBRANCH  13  31
BRANCH  14  35
HETATM   35  C   UNL     1      21.108  31.301  62.006  1.00  0.00     0.010 C 
HETATM   36  C   UNL     1      21.773  30.267  62.912  1.00  0.00     0.012 C 
HETATM   37  C   UNL     1      20.711  32.539  62.810  1.00  0.00     0.012 C 
ENDBRANCH  14  35
BRANCH  16  38
HETATM   38  C   UNL     1      27.861  33.613  58.580  1.00  0.00     0.016 C 
HETATM   39  C   UNL     1      29.360  33.758  58.325  1.00  0.00     0.012 C 
HETATM   40  C   UNL     1      27.596  32.512  59.605  1.00  0.00     0.012 C 
ENDBRANCH  16  38
BRANCH  18  41
HETATM   41  C   UNL     1      22.925  27.641  59.517  1.00  0.00     0.016 C 
HETATM   42  C   UNL     1      23.130  26.366  58.701  1.00  0.00     0.012 C 
HETATM   43  C   UNL     1      21.478  27.747  59.991  1.00  0.00     0.012 C 
ENDBRANCH  18  41
BRANCH  15  44
HETATM   44  C   UNL     1      27.038  28.765  55.828  1.00  0.00     0.010 C 
HETATM   45  C   UNL     1      26.174  27.508  55.816  1.00  0.00     0.012 C 
HETATM   46  C   UNL     1      28.519  28.403  55.762  1.00  0.00     0.012 C 
ENDBRANCH  15  44
TORSDOF 7
ENDMDL
MODEL 2
REMARK VINA RESULT:    -5.451      2.090      3.560
REMARK INTER + INTRA:          -6.450
REMARK INTER:                  -7.722
REMARK INTRA:                   1.272
REMARK UNBOUND:                 1.231
REMARK  7 active torsions:
REMARK  status: ('A' for Active; 'I' for Inactive)
REMARK    1  A    between atoms: C_13  and  C_14 
REMARK    2  A    between atoms: C_14  and  C_19 
REMARK    3  A    between atoms: C_15  and  C_20 
REMARK    4  A    between atoms: C_16  and  C_21 
REMARK    5  A    between atoms: C_17  and  C_23 
REMARK    6  A    between atoms: C_18  and  C_26 
REMARK    7  A    between atoms: C_22  and  C_28 
ROOT
HETATM    1  O   UNL     1      23.320  32.032  57.551  1.00  0.00    -0.304 OA
HETATM    2  O   UNL     1      28.376  30.720  57.512  1.00  0.00    -0.304 OA
HETATM    3  O   UNL     1      25.213  27.228  57.890  1.00  0.00    -0.304 OA
HETATM    4  O   UNL     1      26.380  32.699  59.030  1.00  0.00    -0.270 OA
HETATM    5  O   UNL     1      24.486  31.167  55.759  1.00  0.00    -0.263 OA
HETATM    6  O   UNL     1      24.453  30.486  59.295  1.00  0.00    -0.270 OA
HETATM    7  O   UNL     1      28.398  26.663  58.103  1.00  0.00    -0.270 OA
HETATM    8  O   UNL     1      30.584  30.779  56.880  1.00  0.00    -0.263 OA
HETATM    9  O   UNL     1      26.068  26.603  59.934  1.00  0.00    -0.263 OA
HETATM   10  N   UNL     1      26.490  32.937  56.724  1.00  0.00    -0.340 N 
HETATM   11  N   UNL     1      23.195  28.590  58.883  1.00  0.00    -0.340 N 
HETATM   12  N   UNL     1      27.916  28.280  56.502  1.00  0.00    -0.340 N 
HETATM   13  C   UNL     1      25.071  33.345  56.673  1.00  0.00     0.190 C 
HETATM   14  C   UNL     1      23.990  27.825  59.868  1.00  0.00     0.190 C 
HETATM   15  C   UNL     1      29.309  28.770  56.460  1.00  0.00     0.190 C 
HETATM   16  C   UNL     1      28.455  32.066  58.022  1.00  0.00     0.227 C 
HETATM   17  C   UNL     1      22.634  30.779  57.769  1.00  0.00     0.227 C 
HETATM   18  C   UNL     1      26.213  26.545  57.113  1.00  0.00     0.227 C 
HETATM   19  C   UNL     1      27.024  32.595  57.980  1.00  0.00     0.250 C 
HETATM   20  C   UNL     1      24.272  32.056  56.573  1.00  0.00     0.283 C 
HETATM   21  C   UNL     1      23.509  29.945  58.710  1.00  0.00     0.250 C 
HETATM   22  C   UNL     1      27.606  27.165  57.299  1.00  0.00     0.250 C 
HETATM   23  C   UNL     1      29.505  30.200  56.955  1.00  0.00     0.283 C 
HETATM   24  C   UNL     1      25.218  27.162  59.249  1.00  0.00     0.283 C 
HETATM   25  C   UNL     1      27.233  32.879  55.461  1.00  0.00     0.153 C 
HETATM   26  C   UNL     1      22.162  27.873  58.132  1.00  0.00     0.153 C 
HETATM   27  C   UNL     1      26.960  28.875  55.566  1.00  0.00     0.153 C 
ENDROOT
BRANCH  17  28
HETATM   28  C   UNL     1      21.304  31.114  58.428  1.00  0.00     0.016 C 
HETATM   29  C   UNL     1      21.495  31.387  59.920  1.00  0.00     0.012 C 
HETATM   30  C   UNL     1      20.650  32.314  57.744  1.00  0.00     0.012 C 
ENDBRANCH  17  28
BRANCH  13  31
HETATM   31  C   UNL     1      24.689  34.290  55.539  1.00  0.00     0.014 C 
HETATM   32  C   UNL     1      23.190  34.182  55.255  1.00  0.00     0.012 C 
BRANCH  31  33
HETATM   33  C   UNL     1      25.114  35.728  55.887  1.00  0.00     0.002 C 
HETATM   34  C   UNL     1      24.974  36.706  54.729  1.00  0.00     0.005 C 
ENDBRANCH  31  33
ENDBRANCH  13  31
BRANCH  14  35
HETATM   35  C   UNL     1      23.178  26.786  60.641  1.00  0.00     0.010 C 
HETATM   36  C   UNL     1      23.517  25.374  60.167  1.00  0.00     0.012 C 
HETATM   37  C   UNL     1      23.422  26.918  62.144  1.00  0.00     0.012 C 
ENDBRANCH  14  35
BRANCH  16  38
HETATM   38  C   UNL     1      28.998  32.020  59.447  1.00  0.00     0.016 C 
HETATM   39  C   UNL     1      30.392  32.641  59.514  1.00  0.00     0.012 C 
HETATM   40  C   UNL     1      29.026  30.583  59.966  1.00  0.00     0.012 C 
ENDBRANCH  16  38
BRANCH  18  41
HETATM   41  C   UNL     1      26.199  25.038  57.367  1.00  0.00     0.016 C 
HETATM   42  C   UNL     1      27.383  24.366  56.677  1.00  0.00     0.012 C 
HETATM   43  C   UNL     1      24.883  24.427  56.892  1.00  0.00     0.012 C 
ENDBRANCH  18  41
BRANCH  15  44
HETATM   44  C   UNL     1      29.917  28.598  55.067  1.00  0.00     0.010 C 
HETATM   45  C   UNL     1      30.761  27.328  55.005  1.00  0.00     0.012 C 
HETATM   46  C   UNL     1      30.752  29.819  54.694  1.00  0.00     0.012 C 
ENDBRANCH  15  44
TORSDOF 7
ENDMDL
MODEL 3
REMARK VINA RESULT:    -5.227     11.233     16.302
REMARK INTER + INTRA:          -6.134
REMARK INTER:                  -7.041
REMARK INTRA:                   0.907
REMARK UNBOUND:                 1.231
REMARK  7 active torsions:
REMARK  status: ('A' for Active; 'I' for Inactive)
REMARK    1  A    between atoms: C_13  and  C_14 
REMARK    2  A    between atoms: C_14  and  C_19 
REMARK    3  A    between atoms: C_15  and  C_20 
REMARK    4  A    between atoms: C_16  and  C_21 
REMARK    5  A    between atoms: C_17  and  C_23 
REMARK    6  A    between atoms: C_18  and  C_26 
REMARK    7  A    between atoms: C_22  and  C_28 
ROOT
HETATM    1  O   UNL     1      39.358  36.220  55.088  1.00  0.00    -0.304 OA
HETATM    2  O   UNL     1      37.579  40.917  53.651  1.00  0.00    -0.304 OA
HETATM    3  O   UNL     1      34.752  38.230  56.321  1.00  0.00    -0.304 OA
HETATM    4  O   UNL     1      38.859  38.292  52.358  1.00  0.00    -0.270 OA
HETATM    5  O   UNL     1      39.286  38.108  56.409  1.00  0.00    -0.263 OA
HETATM    6  O   UNL     1      37.046  36.648  53.997  1.00  0.00    -0.270 OA
HETATM    7  O   UNL     1      33.749  41.064  55.108  1.00  0.00    -0.270 OA
HETATM    8  O   UNL     1      37.642  43.169  53.202  1.00  0.00    -0.263 OA
HETATM    9  O   UNL     1      33.142  38.195  54.675  1.00  0.00    -0.263 OA
HETATM   10  N   UNL     1      40.128  39.343  53.992  1.00  0.00    -0.340 N 
HETATM   11  N   UNL     1      35.739  35.864  55.737  1.00  0.00    -0.340 N 
HETATM   12  N   UNL     1      35.973  41.155  55.784  1.00  0.00    -0.340 N 
HETATM   13  C   UNL     1      40.692  38.048  54.424  1.00  0.00     0.190 C 
HETATM   14  C   UNL     1      34.509  36.235  55.006  1.00  0.00     0.190 C 
HETATM   15  C   UNL     1      36.243  42.384  55.009  1.00  0.00     0.190 C 
HETATM   16  C   UNL     1      38.510  40.647  52.584  1.00  0.00     0.227 C 
HETATM   17  C   UNL     1      38.247  35.626  55.796  1.00  0.00     0.227 C 
HETATM   18  C   UNL     1      34.387  39.523  56.836  1.00  0.00     0.227 C 
HETATM   19  C   UNL     1      39.176  39.325  52.957  1.00  0.00     0.250 C 
HETATM   20  C   UNL     1      39.713  37.490  55.443  1.00  0.00     0.283 C 
HETATM   21  C   UNL     1      36.967  36.094  55.099  1.00  0.00     0.250 C 
HETATM   22  C   UNL     1      34.665  40.643  55.822  1.00  0.00     0.250 C 
HETATM   23  C   UNL     1      37.239  42.218  53.864  1.00  0.00     0.283 C 
HETATM   24  C   UNL     1      34.059  37.666  55.294  1.00  0.00     0.283 C 
HETATM   25  C   UNL     1      40.572  40.552  54.694  1.00  0.00     0.153 C 
HETATM   26  C   UNL     1      35.595  35.316  57.088  1.00  0.00     0.153 C 
HETATM   27  C   UNL     1      37.053  40.634  56.624  1.00  0.00     0.153 C 
ENDROOT
BRANCH  17  28
HETATM   28  C   UNL     1      38.404  34.117  55.674  1.00  0.00     0.016 C 
HETATM   29  C   UNL     1      39.682  33.767  54.913  1.00  0.00     0.012 C 
HETATM   30  C   UNL     1      38.407  33.462  57.055  1.00  0.00     0.012 C 
ENDBRANCH  17  28
BRANCH  13  31
HETATM   31  C   UNL     1      42.097  38.094  55.015  1.00  0.00     0.014 C 
HETATM   32  C   UNL     1      42.280  36.949  56.012  1.00  0.00     0.012 C 
BRANCH  31  33
HETATM   33  C   UNL     1      43.143  38.059  53.886  1.00  0.00     0.002 C 
HETATM   34  C   UNL     1      42.745  37.179  52.710  1.00  0.00     0.005 C 
ENDBRANCH  31  33
ENDBRANCH  13  31
BRANCH  14  35
HETATM   35  C   UNL     1      33.344  35.273  55.234  1.00  0.00     0.010 C 
HETATM   36  C   UNL     1      32.520  35.700  56.447  1.00  0.00     0.012 C 
HETATM   37  C   UNL     1      32.460  35.191  53.990  1.00  0.00     0.012 C 
ENDBRANCH  14  35
BRANCH  16  38
HETATM   38  C   UNL     1      37.735  40.538  51.274  1.00  0.00     0.016 C 
HETATM   39  C   UNL     1      38.093  41.692  50.338  1.00  0.00     0.012 C 
HETATM   40  C   UNL     1      36.230  40.511  51.538  1.00  0.00     0.012 C 
ENDBRANCH  16  38
BRANCH  18  41
HETATM   41  C   UNL     1      32.952  39.543  57.359  1.00  0.00     0.016 C 
HETATM   42  C   UNL     1      32.573  40.943  57.834  1.00  0.00     0.012 C 
HETATM   43  C   UNL     1      32.778  38.528  58.488  1.00  0.00     0.012 C 
ENDBRANCH  18  41
BRANCH  15  44
HETATM   44  C   UNL     1      36.664  43.536  55.922  1.00  0.00     0.010 C 
HETATM   45  C   UNL     1      35.926  44.817  55.542  1.00  0.00     0.012 C 
HETATM   46  C   UNL     1      38.174  43.744  55.858  1.00  0.00     0.012 C 
ENDBRANCH  15  44
TORSDOF 7
ENDMDL
MODEL 4
REMARK VINA RESULT:    -5.183      3.720      6.301
REMARK INTER + INTRA:          -6.073
REMARK INTER:                  -6.959
REMARK INTRA:                   0.885
REMARK UNBOUND:                 1.231
REMARK  7 active torsions:
REMARK  status: ('A' for Active; 'I' for Inactive)
REMARK    1  A    between atoms: C_13  and  C_14 
REMARK    2  A    between atoms: C_14  and  C_19 
REMARK    3  A    between atoms: C_15  and  C_20 
REMARK    4  A    between atoms: C_16  and  C_21 
REMARK    5  A    between atoms: C_17  and  C_23 
REMARK    6  A    between atoms: C_18  and  C_26 
REMARK    7  A    between atoms: C_22  and  C_28 
ROOT
HETATM    1  O   UNL     1      28.407  32.274  56.651  1.00  0.00    -0.304 OA
HETATM    2  O   UNL     1      31.125  28.411  58.883  1.00  0.00    -0.304 OA
HETATM    3  O   UNL     1      26.779  27.408  57.318  1.00  0.00    -0.304 OA
HETATM    4  O   UNL     1      30.223  31.418  59.474  1.00  0.00    -0.270 OA
HETATM    5  O   UNL     1      29.506  30.573  55.549  1.00  0.00    -0.263 OA
HETATM    6  O   UNL     1      27.511  30.745  58.541  1.00  0.00    -0.270 OA
HETATM    7  O   UNL     1      28.536  25.233  58.959  1.00  0.00    -0.270 OA
HETATM    8  O   UNL     1      32.951  27.113  59.391  1.00  0.00    -0.263 OA
HETATM    9  O   UNL     1      26.090  26.837  59.439  1.00  0.00    -0.263 OA
HETATM   10  N   UNL     1      31.466  31.090  57.542  1.00  0.00    -0.340 N 
HETATM   11  N   UNL     1      25.741  29.823  57.372  1.00  0.00    -0.340 N 
HETATM   12  N   UNL     1      29.854  26.490  57.512  1.00  0.00    -0.340 N 
HETATM   13  C   UNL     1      30.755  32.195  56.866  1.00  0.00     0.190 C 
HETATM   14  C   UNL     1      25.403  28.961  58.525  1.00  0.00     0.190 C 
HETATM   15  C   UNL     1      31.109  26.108  58.194  1.00  0.00     0.190 C 
HETATM   16  C   UNL     1      31.727  29.559  59.514  1.00  0.00     0.227 C 
HETATM   17  C   UNL     1      27.119  31.683  56.376  1.00  0.00     0.227 C 
HETATM   18  C   UNL     1      27.416  26.148  57.041  1.00  0.00     0.227 C 
HETATM   19  C   UNL     1      31.073  30.769  58.853  1.00  0.00     0.250 C 
HETATM   20  C   UNL     1      29.510  31.573  56.255  1.00  0.00     0.283 C 
HETATM   21  C   UNL     1      26.815  30.712  57.521  1.00  0.00     0.250 C 
HETATM   22  C   UNL     1      28.643  25.916  57.936  1.00  0.00     0.250 C 
HETATM   23  C   UNL     1      31.846  27.256  58.878  1.00  0.00     0.283 C 
HETATM   24  C   UNL     1      26.137  27.622  58.497  1.00  0.00     0.283 C 
HETATM   25  C   UNL     1      32.505  30.382  56.788  1.00  0.00     0.153 C 
HETATM   26  C   UNL     1      24.957  29.664  56.145  1.00  0.00     0.153 C 
HETATM   27  C   UNL     1      29.963  27.312  56.306  1.00  0.00     0.153 C 
ENDROOT
BRANCH  17  28
HETATM   28  C   UNL     1      26.107  32.820  56.353  1.00  0.00     0.016 C 
HETATM   29  C   UNL     1      26.542  33.947  57.290  1.00  0.00     0.012 C 
HETATM   30  C   UNL     1      25.921  33.348  54.932  1.00  0.00     0.012 C 
ENDBRANCH  17  28
BRANCH  13  31
HETATM   31  C   UNL     1      31.546  32.945  55.799  1.00  0.00     0.014 C 
HETATM   32  C   UNL     1      30.733  33.018  54.506  1.00  0.00     0.012 C 
BRANCH  31  33
HETATM   33  C   UNL     1      31.940  34.338  56.321  1.00  0.00     0.002 C 
HETATM   34  C   UNL     1      32.595  35.222  55.270  1.00  0.00     0.005 C 
ENDBRANCH  31  33
ENDBRANCH  13  31
BRANCH  14  35
HETATM   35  C   UNL     1      23.903  28.723  58.697  1.00  0.00     0.010 C 
HETATM   36  C   UNL     1      23.536  27.291  58.313  1.00  0.00     0.012 C 
HETATM   37  C   UNL     1      23.469  29.020  60.132  1.00  0.00     0.012 C 
ENDBRANCH  14  35
BRANCH  16  38
HETATM   38  C   UNL     1      31.434  29.505  61.011  1.00  0.00     0.016 C 
HETATM   39  C   UNL     1      32.714  29.243  61.802  1.00  0.00     0.012 C 
HETATM   40  C   UNL     1      30.387  28.436  61.317  1.00  0.00     0.012 C 
ENDBRANCH  16  38
BRANCH  18  41
HETATM   41  C   UNL     1      26.424  24.987  57.089  1.00  0.00     0.016 C 
HETATM   42  C   UNL     1      27.121  23.670  56.756  1.00  0.00     0.012 C 
HETATM   43  C   UNL     1      25.261  25.235  56.130  1.00  0.00     0.012 C 
ENDBRANCH  18  41
BRANCH  15  44
HETATM   44  C   UNL     1      32.047  25.355  57.250  1.00  0.00     0.010 C 
HETATM   45  C   UNL     1      32.626  24.124  57.941  1.00  0.00     0.012 C 
HETATM   46  C   UNL     1      33.163  26.275  56.762  1.00  0.00     0.012 C 
ENDBRANCH  15  44
TORSDOF 7
ENDMDL
MODEL 5
REMARK VINA RESULT:    -5.154      3.001      7.729
REMARK INTER + INTRA:          -6.032
REMARK INTER:                  -6.724
REMARK INTRA:                   0.691
REMARK UNBOUND:                 1.231
REMARK  7 active torsions:
REMARK  status: ('A' for Active; 'I' for Inactive)
REMARK    1  A    between atoms: C_13  and  C_14 
REMARK    2  A    between atoms: C_14  and  C_19 
REMARK    3  A    between atoms: C_15  and  C_20 
REMARK    4  A    between atoms: C_16  and  C_21 
REMARK    5  A    between atoms: C_17  and  C_23 
REMARK    6  A    between atoms: C_18  and  C_26 
REMARK    7  A    between atoms: C_22  and  C_28 
ROOT
HETATM    1  O   UNL     1      29.201  28.381  56.598  1.00  0.00    -0.304 OA
HETATM    2  O   UNL     1      24.758  30.466  58.386  1.00  0.00    -0.304 OA
HETATM    3  O   UNL     1      25.491  25.865  59.182  1.00  0.00    -0.304 OA
HETATM    4  O   UNL     1      26.448  30.272  55.683  1.00  0.00    -0.270 OA
HETATM    5  O   UNL     1      28.764  28.981  58.781  1.00  0.00    -0.263 OA
HETATM    6  O   UNL     1      26.840  27.396  56.182  1.00  0.00    -0.270 OA
HETATM    7  O   UNL     1      22.695  27.300  59.978  1.00  0.00    -0.270 OA
HETATM    8  O   UNL     1      23.381  32.029  59.356  1.00  0.00    -0.263 OA
HETATM    9  O   UNL     1      23.606  25.303  57.985  1.00  0.00    -0.263 OA
HETATM   10  N   UNL     1      27.544  31.207  57.502  1.00  0.00    -0.340 N 
HETATM   11  N   UNL     1      27.173  25.359  57.226  1.00  0.00    -0.340 N 
HETATM   12  N   UNL     1      24.520  28.687  60.378  1.00  0.00    -0.340 N 
HETATM   13  C   UNL     1      28.838  30.671  57.031  1.00  0.00     0.190 C 
HETATM   14  C   UNL     1      25.768  24.976  56.969  1.00  0.00     0.190 C 
HETATM   15  C   UNL     1      23.681  29.901  60.461  1.00  0.00     0.190 C 
HETATM   16  C   UNL     1      25.047  31.356  57.291  1.00  0.00     0.227 C 
HETATM   17  C   UNL     1      29.080  26.976  56.911  1.00  0.00     0.227 C 
HETATM   18  C   UNL     1      24.786  26.194  60.393  1.00  0.00     0.227 C 
HETATM   19  C   UNL     1      26.398  30.898  56.748  1.00  0.00     0.250 C 
HETATM   20  C   UNL     1      28.936  29.266  57.603  1.00  0.00     0.283 C 
HETATM   21  C   UNL     1      27.604  26.603  56.743  1.00  0.00     0.250 C 
HETATM   22  C   UNL     1      23.899  27.436  60.220  1.00  0.00     0.250 C 
HETATM   23  C   UNL     1      23.923  30.928  59.358  1.00  0.00     0.283 C 
HETATM   24  C   UNL     1      24.823  25.410  58.087  1.00  0.00     0.283 C 
HETATM   25  C   UNL     1      27.538  31.991  58.742  1.00  0.00     0.153 C 
HETATM   26  C   UNL     1      28.006  24.432  57.996  1.00  0.00     0.153 C 
HETATM   27  C   UNL     1      25.951  28.833  60.646  1.00  0.00     0.153 C 
ENDROOT
BRANCH  17  28
HETATM   28  C   UNL     1      29.941  26.225  55.906  1.00  0.00     0.016 C 
HETATM   29  C   UNL     1      30.400  27.157  54.785  1.00  0.00     0.012 C 
HETATM   30  C   UNL     1      31.146  25.587  56.597  1.00  0.00     0.012 C 
ENDBRANCH  17  28
BRANCH  13  31
HETATM   31  C   UNL     1      30.073  31.480  57.409  1.00  0.00     0.014 C 
HETATM   32  C   UNL     1      31.314  30.587  57.360  1.00  0.00     0.012 C 
BRANCH  31  33
HETATM   33  C   UNL     1      30.200  32.705  56.486  1.00  0.00     0.002 C 
HETATM   34  C   UNL     1      31.329  32.594  55.471  1.00  0.00     0.005 C 
ENDBRANCH  31  33
ENDBRANCH  13  31
BRANCH  14  35
HETATM   35  C   UNL     1      25.579  23.486  56.684  1.00  0.00     0.010 C 
HETATM   36  C   UNL     1      25.010  22.771  57.907  1.00  0.00     0.012 C 
HETATM   37  C   UNL     1      24.670  23.279  55.473  1.00  0.00     0.012 C 
ENDBRANCH  14  35
BRANCH  16  38
HETATM   38  C   UNL     1      23.943  31.221  56.245  1.00  0.00     0.016 C 
HETATM   39  C   UNL     1      23.154  32.523  56.122  1.00  0.00     0.012 C 
HETATM   40  C   UNL     1      23.012  30.061  56.593  1.00  0.00     0.012 C 
ENDBRANCH  16  38
BRANCH  18  41
HETATM   41  C   UNL     1      24.021  24.995  60.950  1.00  0.00     0.016 C 
HETATM   42  C   UNL     1      23.232  25.393  62.194  1.00  0.00     0.012 C 
HETATM   43  C   UNL     1      24.979  23.848  61.266  1.00  0.00     0.012 C 
ENDBRANCH  18  41
BRANCH  15  44
HETATM   44  C   UNL     1      23.790  30.557  61.838  1.00  0.00     0.010 C 
HETATM   45  C   UNL     1      22.404  30.904  62.376  1.00  0.00     0.012 C 
HETATM   46  C   UNL     1      24.668  31.803  61.768  1.00  0.00     0.012 C 
ENDBRANCH  15  44
TORSDOF 7
ENDMDL
MODEL 6
REMARK VINA RESULT:    -5.060      2.972      7.644
REMARK INTER + INTRA:          -5.900
REMARK INTER:                  -6.516
REMARK INTRA:                   0.616
REMARK UNBOUND:                 1.231
REMARK  7 active torsions:
REMARK  status: ('A' for Active; 'I' for Inactive)
REMARK    1  A    between atoms: C_13  and  C_14 
REMARK    2  A    between atoms: C_14  and  C_19 
REMARK    3  A    between atoms: C_15  and  C_20 
REMARK    4  A    between atoms: C_16  and  C_21 
REMARK    5  A    between atoms: C_17  and  C_23 
REMARK    6  A    between atoms: C_18  and  C_26 
REMARK    7  A    between atoms: C_22  and  C_28 
ROOT
HETATM    1  O   UNL     1      30.052  29.803  56.338  1.00  0.00    -0.304 OA
HETATM    2  O   UNL     1      26.741  27.146  59.384  1.00  0.00    -0.304 OA
HETATM    3  O   UNL     1      25.366  31.399  57.845  1.00  0.00    -0.304 OA
HETATM    4  O   UNL     1      29.785  28.114  59.350  1.00  0.00    -0.270 OA
HETATM    5  O   UNL     1      28.196  28.630  55.630  1.00  0.00    -0.263 OA
HETATM    6  O   UNL     1      28.889  30.769  58.443  1.00  0.00    -0.270 OA
HETATM    7  O   UNL     1      23.580  29.696  59.947  1.00  0.00    -0.270 OA
HETATM    8  O   UNL     1      25.602  25.330  60.211  1.00  0.00    -0.263 OA
HETATM    9  O   UNL     1      25.193  32.182  60.003  1.00  0.00    -0.263 OA
HETATM   10  N   UNL     1      29.124  26.775  57.573  1.00  0.00    -0.340 N 
HETATM   11  N   UNL     1      27.724  32.470  57.392  1.00  0.00    -0.340 N 
HETATM   12  N   UNL     1      24.567  28.326  58.348  1.00  0.00    -0.340 N 
HETATM   13  C   UNL     1      30.065  27.467  56.668  1.00  0.00     0.190 C 
HETATM   14  C   UNL     1      27.090  32.851  58.672  1.00  0.00     0.190 C 
HETATM   15  C   UNL     1      24.349  27.101  59.145  1.00  0.00     0.190 C 
HETATM   16  C   UNL     1      28.000  26.590  59.810  1.00  0.00     0.227 C 
HETATM   17  C   UNL     1      29.391  31.069  56.123  1.00  0.00     0.227 C 
HETATM   18  C   UNL     1      24.090  30.734  57.843  1.00  0.00     0.227 C 
HETATM   19  C   UNL     1      29.049  27.227  58.903  1.00  0.00     0.250 C 
HETATM   20  C   UNL     1      29.312  28.674  56.132  1.00  0.00     0.283 C 
HETATM   21  C   UNL     1      28.649  31.415  57.417  1.00  0.00     0.250 C 
HETATM   22  C   UNL     1      24.059  29.548  58.819  1.00  0.00     0.250 C 
HETATM   23  C   UNL     1      25.621  26.412  59.630  1.00  0.00     0.283 C 
HETATM   24  C   UNL     1      25.786  32.100  58.933  1.00  0.00     0.283 C 
HETATM   25  C   UNL     1      28.308  25.692  57.016  1.00  0.00     0.153 C 
HETATM   26  C   UNL     1      27.319  33.192  56.184  1.00  0.00     0.153 C 
HETATM   27  C   UNL     1      25.149  28.170  57.014  1.00  0.00     0.153 C 
ENDROOT
BRANCH  17  28
HETATM   28  C   UNL     1      30.481  32.092  55.839  1.00  0.00     0.016 C 
HETATM   29  C   UNL     1      31.861  31.505  56.133  1.00  0.00     0.012 C 
HETATM   30  C   UNL     1      30.403  32.577  54.392  1.00  0.00     0.012 C 
ENDBRANCH  17  28
BRANCH  13  31
HETATM   31  C   UNL     1      30.616  26.636  55.515  1.00  0.00     0.014 C 
HETATM   32  C   UNL     1      30.756  27.508  54.266  1.00  0.00     0.012 C 
BRANCH  31  33
HETATM   33  C   UNL     1      31.949  25.986  55.926  1.00  0.00     0.002 C 
HETATM   34  C   UNL     1      32.676  26.731  57.037  1.00  0.00     0.005 C 
ENDBRANCH  31  33
ENDBRANCH  13  31
BRANCH  14  35
HETATM   35  C   UNL     1      26.856  34.355  58.819  1.00  0.00     0.010 C 
HETATM   36  C   UNL     1      25.368  34.683  58.713  1.00  0.00     0.012 C 
HETATM   37  C   UNL     1      27.423  34.863  60.144  1.00  0.00     0.012 C 
ENDBRANCH  14  35
BRANCH  16  38
HETATM   38  C   UNL     1      28.225  26.954  61.276  1.00  0.00     0.016 C 
HETATM   39  C   UNL     1      28.141  25.710  62.159  1.00  0.00     0.012 C 
HETATM   40  C   UNL     1      27.213  28.003  61.732  1.00  0.00     0.012 C 
ENDBRANCH  16  38
BRANCH  18  41
HETATM   41  C   UNL     1      22.938  31.713  58.066  1.00  0.00     0.016 C 
HETATM   42  C   UNL     1      21.606  30.969  58.125  1.00  0.00     0.012 C 
HETATM   43  C   UNL     1      22.913  32.772  56.966  1.00  0.00     0.012 C 
ENDBRANCH  18  41
BRANCH  15  44
HETATM   44  C   UNL     1      23.451  26.108  58.405  1.00  0.00     0.010 C 
HETATM   45  C   UNL     1      22.407  25.523  59.351  1.00  0.00     0.012 C 
HETATM   46  C   UNL     1      24.289  25.000  57.773  1.00  0.00     0.012 C 
ENDBRANCH  15  44
TORSDOF 7
ENDMDL
MODEL 7
REMARK VINA RESULT:    -4.923      3.265      8.131
REMARK INTER + INTRA:          -5.706
REMARK INTER:                  -6.459
REMARK INTRA:                   0.752
REMARK UNBOUND:                 1.231
REMARK  7 active torsions:
REMARK  status: ('A' for Active; 'I' for Inactive)
REMARK    1  A    between atoms: C_13  and  C_14 
REMARK    2  A    between atoms: C_14  and  C_19 
REMARK    3  A    between atoms: C_15  and  C_20 
REMARK    4  A    between atoms: C_16  and  C_21 
REMARK    5  A    between atoms: C_17  and  C_23 
REMARK    6  A    between atoms: C_18  and  C_26 
REMARK    7  A    between atoms: C_22  and  C_28 
ROOT
HETATM    1  O   UNL     1      24.979  27.547  58.476  1.00  0.00    -0.304 OA
HETATM    2  O   UNL     1      30.086  27.898  57.435  1.00  0.00    -0.304 OA
HETATM    3  O   UNL     1      27.722  31.925  58.168  1.00  0.00    -0.304 OA
HETATM    4  O   UNL     1      27.440  26.555  56.251  1.00  0.00    -0.270 OA
HETATM    5  O   UNL     1      26.657  27.919  60.014  1.00  0.00    -0.263 OA
HETATM    6  O   UNL     1      26.011  29.096  56.672  1.00  0.00    -0.270 OA
HETATM    7  O   UNL     1      30.833  31.926  57.258  1.00  0.00    -0.270 OA
HETATM    8  O   UNL     1      32.315  27.348  57.512  1.00  0.00    -0.263 OA
HETATM    9  O   UNL     1      28.230  32.671  56.051  1.00  0.00    -0.263 OA
HETATM   10  N   UNL     1      27.990  25.972  58.429  1.00  0.00    -0.340 N 
HETATM   11  N   UNL     1      25.297  31.110  57.557  1.00  0.00    -0.340 N 
HETATM   12  N   UNL     1      30.376  30.210  58.761  1.00  0.00    -0.340 N 
HETATM   13  C   UNL     1      26.561  25.825  58.777  1.00  0.00     0.190 C 
HETATM   14  C   UNL     1      26.005  31.851  56.491  1.00  0.00     0.190 C 
HETATM   15  C   UNL     1      31.611  29.474  58.421  1.00  0.00     0.190 C 
HETATM   16  C   UNL     1      29.769  26.648  56.792  1.00  0.00     0.227 C 
HETATM   17  C   UNL     1      24.541  28.922  58.552  1.00  0.00     0.227 C 
HETATM   18  C   UNL     1      28.986  32.295  58.747  1.00  0.00     0.227 C 
HETATM   19  C   UNL     1      28.301  26.388  57.122  1.00  0.00     0.250 C 
HETATM   20  C   UNL     1      26.092  27.210  59.191  1.00  0.00     0.283 C 
HETATM   21  C   UNL     1      25.349  29.709  57.516  1.00  0.00     0.250 C 
HETATM   22  C   UNL     1      30.144  31.466  58.174  1.00  0.00     0.250 C 
HETATM   23  C   UNL     1      31.391  28.118  57.754  1.00  0.00     0.283 C 
HETATM   24  C   UNL     1      27.449  32.184  56.861  1.00  0.00     0.283 C 
HETATM   25  C   UNL     1      28.981  25.711  59.477  1.00  0.00     0.153 C 
HETATM   26  C   UNL     1      24.623  31.888  58.600  1.00  0.00     0.153 C 
HETATM   27  C   UNL     1      29.540  29.670  59.834  1.00  0.00     0.153 C 
ENDROOT
BRANCH  17  28
HETATM   28  C   UNL     1      23.061  28.933  58.200  1.00  0.00     0.016 C 
HETATM   29  C   UNL     1      22.583  27.529  57.833  1.00  0.00     0.012 C 
HETATM   30  C   UNL     1      22.235  29.494  59.357  1.00  0.00     0.012 C 
ENDBRANCH  17  28
BRANCH  13  31
HETATM   31  C   UNL     1      26.241  24.812  59.871  1.00  0.00     0.014 C 
HETATM   32  C   UNL     1      24.960  25.221  60.599  1.00  0.00     0.012 C 
BRANCH  31  33
HETATM   33  C   UNL     1      26.144  23.400  59.267  1.00  0.00     0.002 C 
HETATM   34  C   UNL     1      25.451  23.360  57.913  1.00  0.00     0.005 C 
ENDBRANCH  31  33
ENDBRANCH  13  31
BRANCH  14  35
HETATM   35  C   UNL     1      25.283  33.121  56.040  1.00  0.00     0.010 C 
HETATM   36  C   UNL     1      25.801  34.337  56.806  1.00  0.00     0.012 C 
HETATM   37  C   UNL     1      25.445  33.329  54.535  1.00  0.00     0.012 C 
ENDBRANCH  14  35
BRANCH  16  38
HETATM   38  C   UNL     1      29.991  26.799  55.289  1.00  0.00     0.016 C 
HETATM   39  C   UNL     1      31.156  25.927  54.825  1.00  0.00     0.012 C 
HETATM   40  C   UNL     1      30.239  28.262  54.926  1.00  0.00     0.012 C 
ENDBRANCH  16  38
BRANCH  18  41
HETATM   41  C   UNL     1      29.234  33.800  58.653  1.00  0.00     0.016 C 
HETATM   42  C   UNL     1      30.634  34.145  59.154  1.00  0.00     0.012 C 
HETATM   43  C   UNL     1      28.177  34.569  59.443  1.00  0.00     0.012 C 
ENDBRANCH  18  41
BRANCH  15  44
HETATM   44  C   UNL     1      32.525  29.330  59.638  1.00  0.00     0.010 C 
HETATM   45  C   UNL     1      33.962  29.692  59.273  1.00  0.00     0.012 C 
HETATM   46  C   UNL     1      32.452  27.912  60.197  1.00  0.00     0.012 C 
ENDBRANCH  15  44
TORSDOF 7
ENDMDL
MODEL 8
REMARK VINA RESULT:    -4.853     12.174     17.467
REMARK INTER + INTRA:          -5.608
REMARK INTER:                  -6.573
REMARK INTRA:                   0.965
REMARK UNBOUND:                 1.231
REMARK  7 active torsions:
REMARK  status: ('A' for Active; 'I' for Inactive)
REMARK    1  A    between atoms: C_13  and  C_14 
REMARK    2  A    between atoms: C_14  and  C_19 
REMARK    3  A    between atoms: C_15  and  C_20 
REMARK    4  A    between atoms: C_16  and  C_21 
REMARK    5  A    between atoms: C_17  and  C_23 
REMARK    6  A    between atoms: C_18  and  C_26 
REMARK    7  A    between atoms: C_22  and  C_28 
ROOT
HETATM    1  O   UNL     1      35.997  38.959  53.277  1.00  0.00    -0.304 OA
HETATM    2  O   UNL     1      38.862  35.970  56.463  1.00  0.00    -0.304 OA
HETATM    3  O   UNL     1      40.778  40.017  54.948  1.00  0.00    -0.304 OA
HETATM    4  O   UNL     1      37.190  35.742  53.751  1.00  0.00    -0.270 OA
HETATM    5  O   UNL     1      36.335  39.310  55.531  1.00  0.00    -0.263 OA
HETATM    6  O   UNL     1      38.443  38.238  52.816  1.00  0.00    -0.270 OA
HETATM    7  O   UNL     1      42.473  37.896  56.720  1.00  0.00    -0.270 OA
HETATM    8  O   UNL     1      39.321  34.579  58.233  1.00  0.00    -0.263 OA
HETATM    9  O   UNL     1      42.499  38.880  53.924  1.00  0.00    -0.263 OA
HETATM   10  N   UNL     1      36.016  36.487  55.610  1.00  0.00    -0.340 N 
HETATM   11  N   UNL     1      39.375  40.354  52.750  1.00  0.00    -0.340 N 
HETATM   12  N   UNL     1      40.263  38.041  57.431  1.00  0.00    -0.340 N 
HETATM   13  C   UNL     1      35.151  37.329  54.758  1.00  0.00     0.190 C 
HETATM   14  C   UNL     1      40.722  39.775  52.560  1.00  0.00     0.190 C 
HETATM   15  C   UNL     1      40.337  36.772  58.185  1.00  0.00     0.190 C 
HETATM   16  C   UNL     1      38.005  34.977  55.866  1.00  0.00     0.227 C 
HETATM   17  C   UNL     1      36.880  40.046  52.928  1.00  0.00     0.227 C 
HETATM   18  C   UNL     1      41.355  39.972  56.265  1.00  0.00     0.227 C 
HETATM   19  C   UNL     1      37.041  35.760  54.979  1.00  0.00     0.250 C 
HETATM   20  C   UNL     1      35.885  38.651  54.603  1.00  0.00     0.283 C 
HETATM   21  C   UNL     1      38.294  39.464  52.831  1.00  0.00     0.250 C 
HETATM   22  C   UNL     1      41.423  38.539  56.814  1.00  0.00     0.250 C 
HETATM   23  C   UNL     1      39.447  35.653  57.651  1.00  0.00     0.283 C 
HETATM   24  C   UNL     1      41.434  39.487  53.880  1.00  0.00     0.283 C 
HETATM   25  C   UNL     1      35.771  36.495  57.056  1.00  0.00     0.153 C 
HETATM   26  C   UNL     1      39.267  41.809  52.877  1.00  0.00     0.153 C 
HETATM   27  C   UNL     1      39.020  38.809  57.520  1.00  0.00     0.153 C 
ENDROOT
BRANCH  17  28
HETATM   28  C   UNL     1      36.421  40.569  51.574  1.00  0.00     0.016 C 
HETATM   29  C   UNL     1      35.114  39.900  51.153  1.00  0.00     0.012 C 
HETATM   30  C   UNL     1      36.258  42.088  51.610  1.00  0.00     0.012 C 
ENDBRANCH  17  28
BRANCH  13  31
HETATM   31  C   UNL     1      33.737  37.570  55.274  1.00  0.00     0.014 C 
HETATM   32  C   UNL     1      33.012  38.559  54.361  1.00  0.00     0.012 C 
BRANCH  31  33
HETATM   33  C   UNL     1      32.988  36.231  55.396  1.00  0.00     0.002 C 
HETATM   34  C   UNL     1      32.630  35.605  54.055  1.00  0.00     0.005 C 
ENDBRANCH  31  33
ENDBRANCH  13  31
BRANCH  14  35
HETATM   35  C   UNL     1      41.630  40.611  51.658  1.00  0.00     0.010 C 
HETATM   36  C   UNL     1      42.737  41.276  52.472  1.00  0.00     0.012 C 
HETATM   37  C   UNL     1      42.229  39.749  50.546  1.00  0.00     0.012 C 
ENDBRANCH  14  35
BRANCH  16  38
HETATM   38  C   UNL     1      38.866  34.014  55.053  1.00  0.00     0.016 C 
HETATM   39  C   UNL     1      38.802  32.605  55.641  1.00  0.00     0.012 C 
HETATM   40  C   UNL     1      40.312  34.503  54.991  1.00  0.00     0.012 C 
ENDBRANCH  16  38
BRANCH  18  41
HETATM   41  C   UNL     1      42.703  40.690  56.320  1.00  0.00     0.016 C 
HETATM   42  C   UNL     1      43.307  40.591  57.719  1.00  0.00     0.012 C 
HETATM   43  C   UNL     1      42.551  42.151  55.903  1.00  0.00     0.012 C 
ENDBRANCH  18  41
BRANCH  15  44
HETATM   44  C   UNL     1      40.081  36.995  59.676  1.00  0.00     0.010 C 
HETATM   45  C   UNL     1      41.122  36.257  60.513  1.00  0.00     0.012 C 
HETATM   46  C   UNL     1      38.671  36.546  60.049  1.00  0.00     0.012 C 
ENDBRANCH  15  44
TORSDOF 7
ENDMDL
MODEL 9
REMARK VINA RESULT:    -4.788      2.693      7.398
REMARK INTER + INTRA:          -5.516
REMARK INTER:                  -6.223
REMARK INTRA:                   0.707
REMARK UNBOUND:                 1.231
REMARK  7 active torsions:
REMARK  status: ('A' for Active; 'I' for Inactive)
REMARK    1  A    between atoms: C_13  and  C_14 
REMARK    2  A    between atoms: C_14  and  C_19 
REMARK    3  A    between atoms: C_15  and  C_20 
REMARK    4  A    between atoms: C_16  and  C_21 
REMARK    5  A    between atoms: C_17  and  C_23 
REMARK    6  A    between atoms: C_18  and  C_26 
REMARK    7  A    between atoms: C_22  and  C_28 
ROOT
HETATM    1  O   UNL     1      29.398  33.550  58.600  1.00  0.00    -0.304 OA
HETATM    2  O   UNL     1      24.659  31.412  58.081  1.00  0.00    -0.304 OA
HETATM    3  O   UNL     1      28.404  28.558  57.664  1.00  0.00    -0.304 OA
HETATM    4  O   UNL     1      26.379  33.844  56.927  1.00  0.00    -0.270 OA
HETATM    5  O   UNL     1      28.279  32.320  60.198  1.00  0.00    -0.263 OA
HETATM    6  O   UNL     1      28.677  32.026  56.631  1.00  0.00    -0.270 OA
HETATM    7  O   UNL     1      25.390  27.492  57.126  1.00  0.00    -0.270 OA
HETATM    8  O   UNL     1      22.436  31.034  58.522  1.00  0.00    -0.263 OA
HETATM    9  O   UNL     1      27.817  28.015  55.506  1.00  0.00    -0.263 OA
HETATM   10  N   UNL     1      26.068  33.819  59.227  1.00  0.00    -0.340 N 
HETATM   11  N   UNL     1      30.217  30.334  56.977  1.00  0.00    -0.340 N 
HETATM   12  N   UNL     1      25.469  28.992  58.902  1.00  0.00    -0.340 N 
HETATM   13  C   UNL     1      27.386  34.452  59.438  1.00  0.00     0.190 C 
HETATM   14  C   UNL     1      29.639  29.554  55.862  1.00  0.00     0.190 C 
HETATM   15  C   UNL     1      24.011  29.234  58.868  1.00  0.00     0.190 C 
HETATM   16  C   UNL     1      24.382  32.771  57.691  1.00  0.00     0.227 C 
HETATM   17  C   UNL     1      30.305  32.459  58.329  1.00  0.00     0.227 C 
HETATM   18  C   UNL     1      27.487  27.640  58.286  1.00  0.00     0.227 C 
HETATM   19  C   UNL     1      25.691  33.525  57.904  1.00  0.00     0.250 C 
HETATM   20  C   UNL     1      28.389  33.312  59.490  1.00  0.00     0.283 C 
HETATM   21  C   UNL     1      29.659  31.593  57.245  1.00  0.00     0.250 C 
HETATM   22  C   UNL     1      26.024  28.033  58.038  1.00  0.00     0.250 C 
HETATM   23  C   UNL     1      23.603  30.655  58.489  1.00  0.00     0.283 C 
HETATM   24  C   UNL     1      28.506  28.633  56.310  1.00  0.00     0.283 C 
HETATM   25  C   UNL     1      25.260  33.507  60.410  1.00  0.00     0.153 C 
HETATM   26  C   UNL     1      31.305  29.727  57.747  1.00  0.00     0.153 C 
HETATM   27  C   UNL     1      26.237  29.638  59.968  1.00  0.00     0.153 C 
ENDROOT
BRANCH  17  28
HETATM   28  C   UNL     1      31.599  33.079  57.821  1.00  0.00     0.016 C 
HETATM   29  C   UNL     1      31.360  34.511  57.345  1.00  0.00     0.012 C 
HETATM   30  C   UNL     1      32.675  33.048  58.906  1.00  0.00     0.012 C 
ENDBRANCH  17  28
BRANCH  13  31
HETATM   31  C   UNL     1      27.517  35.325  60.682  1.00  0.00     0.014 C 
HETATM   32  C   UNL     1      28.993  35.498  61.042  1.00  0.00     0.012 C 
BRANCH  31  33
HETATM   33  C   UNL     1      26.809  36.672  60.454  1.00  0.00     0.002 C 
HETATM   34  C   UNL     1      27.586  37.869  60.984  1.00  0.00     0.005 C 
ENDBRANCH  31  33
ENDBRANCH  13  31
BRANCH  14  35
HETATM   35  C   UNL     1      30.673  28.752  55.072  1.00  0.00     0.010 C 
HETATM   36  C   UNL     1      30.345  27.261  55.112  1.00  0.00     0.012 C 
HETATM   37  C   UNL     1      30.748  29.244  53.626  1.00  0.00     0.012 C 
ENDBRANCH  14  35
BRANCH  16  38
HETATM   38  C   UNL     1      23.956  32.783  56.225  1.00  0.00     0.016 C 
HETATM   39  C   UNL     1      22.493  33.201  56.091  1.00  0.00     0.012 C 
HETATM   40  C   UNL     1      24.181  31.413  55.587  1.00  0.00     0.012 C 
ENDBRANCH  16  38
BRANCH  18  41
HETATM   41  C   UNL     1      27.784  26.191  57.899  1.00  0.00     0.016 C 
HETATM   42  C   UNL     1      26.802  25.242  58.582  1.00  0.00     0.012 C 
HETATM   43  C   UNL     1      29.222  25.824  58.257  1.00  0.00     0.012 C 
ENDBRANCH  18  41
BRANCH  15  44
HETATM   44  C   UNL     1      23.348  28.819  60.182  1.00  0.00     0.010 C 
HETATM   45  C   UNL     1      22.115  27.961  59.910  1.00  0.00     0.012 C 
HETATM   46  C   UNL     1      22.978  30.049  61.005  1.00  0.00     0.012 C 
ENDBRANCH  15  44
TORSDOF 7
ENDMDL
MODEL 10
REMARK VINA RESULT:    -4.772      5.175     10.297
REMARK INTER + INTRA:          -5.494
REMARK INTER:                  -6.423
REMARK INTRA:                   0.929
REMARK UNBOUND:                 1.231
REMARK  7 active torsions:
REMARK  status: ('A' for Active; 'I' for Inactive)
REMARK    1  A    between atoms: C_13  and  C_14 
REMARK    2  A    between atoms: C_14  and  C_19 
REMARK    3  A    between atoms: C_15  and  C_20 
REMARK    4  A    between atoms: C_16  and  C_21 
REMARK    5  A    between atoms: C_17  and  C_23 
REMARK    6  A    between atoms: C_18  and  C_26 
REMARK    7  A    between atoms: C_22  and  C_28 
ROOT
HETATM    1  O   UNL     1      32.210  26.550  56.155  1.00  0.00    -0.304 OA
HETATM    2  O   UNL     1      27.420  27.805  57.821  1.00  0.00    -0.304 OA
HETATM    3  O   UNL     1      28.661  23.246  57.962  1.00  0.00    -0.304 OA
HETATM    4  O   UNL     1      29.318  28.247  55.290  1.00  0.00    -0.270 OA
HETATM    5  O   UNL     1      31.540  26.731  58.355  1.00  0.00    -0.263 OA
HETATM    6  O   UNL     1      30.029  25.390  55.374  1.00  0.00    -0.270 OA
HETATM    7  O   UNL     1      25.657  24.210  58.705  1.00  0.00    -0.270 OA
HETATM    8  O   UNL     1      25.790  29.024  58.887  1.00  0.00    -0.263 OA
HETATM    9  O   UNL     1      26.956  22.683  56.522  1.00  0.00    -0.263 OA
HETATM   10  N   UNL     1      30.150  28.987  57.326  1.00  0.00    -0.340 N 
HETATM   11  N   UNL     1      30.535  23.259  56.117  1.00  0.00    -0.340 N 
HETATM   12  N   UNL     1      27.259  25.707  59.483  1.00  0.00    -0.340 N 
HETATM   13  C   UNL     1      31.532  28.683  56.901  1.00  0.00     0.190 C 
HETATM   14  C   UNL     1      29.212  22.770  55.674  1.00  0.00     0.190 C 
HETATM   15  C   UNL     1      26.272  26.790  59.674  1.00  0.00     0.190 C 
HETATM   16  C   UNL     1      27.677  28.890  56.907  1.00  0.00     0.227 C 
HETATM   17  C   UNL     1      32.243  25.108  56.235  1.00  0.00     0.227 C 
HETATM   18  C   UNL     1      27.833  23.292  59.138  1.00  0.00     0.227 C 
HETATM   19  C   UNL     1      29.111  28.681  56.429  1.00  0.00     0.250 C 
HETATM   20  C   UNL     1      31.762  27.223  57.256  1.00  0.00     0.283 C 
HETATM   21  C   UNL     1      30.842  24.606  55.875  1.00  0.00     0.250 C 
HETATM   22  C   UNL     1      26.813  24.438  59.077  1.00  0.00     0.250 C 
HETATM   23  C   UNL     1      26.465  28.005  58.770  1.00  0.00     0.283 C 
HETATM   24  C   UNL     1      28.140  22.906  56.753  1.00  0.00     0.283 C 
HETATM   25  C   UNL     1      29.954  29.551  58.665  1.00  0.00     0.153 C 
HETATM   26  C   UNL     1      31.417  22.317  56.810  1.00  0.00     0.153 C 
HETATM   27  C   UNL     1      28.637  25.966  59.904  1.00  0.00     0.153 C 
ENDROOT
BRANCH  17  28
HETATM   28  C   UNL     1      33.264  24.633  55.211  1.00  0.00     0.016 C 
HETATM   29  C   UNL     1      32.985  25.255  53.843  1.00  0.00     0.012 C 
HETATM   30  C   UNL     1      34.683  24.965  55.671  1.00  0.00     0.012 C 
ENDBRANCH  17  28
BRANCH  13  31
HETATM   31  C   UNL     1      32.625  29.552  57.512  1.00  0.00     0.014 C 
HETATM   32  C   UNL     1      33.935  28.765  57.586  1.00  0.00     0.012 C 
BRANCH  31  33
HETATM   33  C   UNL     1      32.772  30.855  56.707  1.00  0.00     0.002 C 
HETATM   34  C   UNL     1      32.505  32.112  57.522  1.00  0.00     0.005 C 
ENDBRANCH  31  33
ENDBRANCH  13  31
BRANCH  14  35
HETATM   35  C   UNL     1      29.232  21.335  55.147  1.00  0.00     0.010 C 
HETATM   36  C   UNL     1      27.816  20.766  55.076  1.00  0.00     0.012 C 
HETATM   37  C   UNL     1      29.902  21.274  53.774  1.00  0.00     0.012 C 
ENDBRANCH  14  35
BRANCH  16  38
HETATM   38  C   UNL     1      26.680  28.805  55.755  1.00  0.00     0.016 C 
HETATM   39  C   UNL     1      25.706  29.982  55.797  1.00  0.00     0.012 C 
HETATM   40  C   UNL     1      25.919  27.481  55.796  1.00  0.00     0.012 C 
ENDBRANCH  16  38
BRANCH  18  41
HETATM   41  C   UNL     1      27.185  21.939  59.430  1.00  0.00     0.016 C 
HETATM   42  C   UNL     1      26.554  21.935  60.820  1.00  0.00     0.012 C 
HETATM   43  C   UNL     1      28.210  20.815  59.302  1.00  0.00     0.012 C 
ENDBRANCH  18  41
BRANCH  15  44
HETATM   44  C   UNL     1      26.194  27.219  61.139  1.00  0.00     0.010 C 
HETATM   45  C   UNL     1      24.740  27.333  61.587  1.00  0.00     0.012 C 
HETATM   46  C   UNL     1      26.927  28.542  61.348  1.00  0.00     0.012 C 
ENDBRANCH  15  44
TORSDOF 7
ENDMDL
MODEL 11
REMARK VINA RESULT:    -4.650     10.552     15.185
REMARK INTER + INTRA:          -5.321
REMARK INTER:                  -5.941
REMARK INTRA:                   0.620
REMARK UNBOUND:                 1.231
REMARK  7 active torsions:
REMARK  status: ('A' for Active; 'I' for Inactive)
REMARK    1  A    between atoms: C_13  and  C_14 
REMARK    2  A    between atoms: C_14  and  C_19 
REMARK    3  A    between atoms: C_15  and  C_20 
REMARK    4  A    between atoms: C_16  and  C_21 
REMARK    5  A    between atoms: C_17  and  C_23 
REMARK    6  A    between atoms: C_18  and  C_26 
REMARK    7  A    between atoms: C_22  and  C_28 
ROOT
HETATM    1  O   UNL     1      33.902  41.726  57.755  1.00  0.00    -0.304 OA
HETATM    2  O   UNL     1      35.230  36.883  56.316  1.00  0.00    -0.304 OA
HETATM    3  O   UNL     1      37.038  40.476  53.833  1.00  0.00    -0.304 OA
HETATM    4  O   UNL     1      32.619  38.616  56.931  1.00  0.00    -0.270 OA
HETATM    5  O   UNL     1      35.898  40.669  58.221  1.00  0.00    -0.263 OA
HETATM    6  O   UNL     1      33.751  40.816  55.333  1.00  0.00    -0.270 OA
HETATM    7  O   UNL     1      37.525  37.393  52.957  1.00  0.00    -0.270 OA
HETATM    8  O   UNL     1      35.839  34.681  56.565  1.00  0.00    -0.263 OA
HETATM    9  O   UNL     1      36.025  39.724  51.908  1.00  0.00    -0.263 OA
HETATM   10  N   UNL     1      34.165  38.459  58.655  1.00  0.00    -0.340 N 
HETATM   11  N   UNL     1      35.225  42.307  54.357  1.00  0.00    -0.340 N 
HETATM   12  N   UNL     1      37.576  37.649  55.268  1.00  0.00    -0.340 N 
HETATM   13  C   UNL     1      33.810  39.812  59.131  1.00  0.00     0.190 C 
HETATM   14  C   UNL     1      35.080  41.626  53.052  1.00  0.00     0.190 C 
HETATM   15  C   UNL     1      37.393  36.204  55.514  1.00  0.00     0.190 C 
HETATM   16  C   UNL     1      33.958  36.634  56.945  1.00  0.00     0.227 C 
HETATM   17  C   UNL     1      34.527  42.570  56.763  1.00  0.00     0.227 C 
HETATM   18  C   UNL     1      38.152  39.568  53.761  1.00  0.00     0.227 C 
HETATM   19  C   UNL     1      33.515  37.983  57.502  1.00  0.00     0.250 C 
HETATM   20  C   UNL     1      34.684  40.771  58.339  1.00  0.00     0.283 C 
HETATM   21  C   UNL     1      34.468  41.818  55.431  1.00  0.00     0.250 C 
HETATM   22  C   UNL     1      37.714  38.107  53.947  1.00  0.00     0.250 C 
HETATM   23  C   UNL     1      36.083  35.827  56.201  1.00  0.00     0.283 C 
HETATM   24  C   UNL     1      36.083  40.490  52.864  1.00  0.00     0.283 C 
HETATM   25  C   UNL     1      35.194  37.721  59.394  1.00  0.00     0.153 C 
HETATM   26  C   UNL     1      36.174  43.419  54.447  1.00  0.00     0.153 C 
HETATM   27  C   UNL     1      37.786  38.512  56.432  1.00  0.00     0.153 C 
ENDROOT
BRANCH  17  28
HETATM   28  C   UNL     1      33.707  43.850  56.695  1.00  0.00     0.016 C 
HETATM   29  C   UNL     1      32.320  43.636  57.301  1.00  0.00     0.012 C 
HETATM   30  C   UNL     1      34.430  44.993  57.406  1.00  0.00     0.012 C 
ENDBRANCH  17  28
BRANCH  13  31
HETATM   31  C   UNL     1      33.978  40.060  60.626  1.00  0.00     0.014 C 
HETATM   32  C   UNL     1      34.170  41.555  60.887  1.00  0.00     0.012 C 
BRANCH  31  33
HETATM   33  C   UNL     1      32.773  39.484  61.392  1.00  0.00     0.002 C 
HETATM   34  C   UNL     1      31.440  39.702  60.690  1.00  0.00     0.005 C 
ENDBRANCH  31  33
ENDBRANCH  13  31
BRANCH  14  35
HETATM   35  C   UNL     1      35.143  42.572  51.853  1.00  0.00     0.010 C 
HETATM   36  C   UNL     1      36.285  42.182  50.917  1.00  0.00     0.012 C 
HETATM   37  C   UNL     1      33.813  42.578  51.100  1.00  0.00     0.012 C 
ENDBRANCH  14  35
BRANCH  16  38
HETATM   38  C   UNL     1      32.985  36.112  55.890  1.00  0.00     0.016 C 
HETATM   39  C   UNL     1      32.604  34.661  56.179  1.00  0.00     0.012 C 
HETATM   40  C   UNL     1      33.587  36.239  54.492  1.00  0.00     0.012 C 
ENDBRANCH  16  38
BRANCH  18  41
HETATM   41  C   UNL     1      38.977  39.780  52.492  1.00  0.00     0.016 C 
HETATM   42  C   UNL     1      40.238  38.921  52.522  1.00  0.00     0.012 C 
HETATM   43  C   UNL     1      39.335  41.255  52.326  1.00  0.00     0.012 C 
ENDBRANCH  18  41
BRANCH  15  44
HETATM   44  C   UNL     1      38.584  35.614  56.271  1.00  0.00     0.010 C 
HETATM   45  C   UNL     1      39.048  34.318  55.611  1.00  0.00     0.012 C 
HETATM   46  C   UNL     1      38.221  35.374  57.733  1.00  0.00     0.012 C 
ENDBRANCH  15  44
TORSDOF 7
ENDMDL
MODEL 12
REMARK VINA RESULT:    -4.577     18.879     22.228
REMARK INTER + INTRA:          -5.219
REMARK INTER:                  -6.051
REMARK INTRA:                   0.832
REMARK UNBOUND:                 1.231
REMARK  7 active torsions:
REMARK  status: ('A' for Active; 'I' for Inactive)
REMARK    1  A    between atoms: C_13  and  C_14 
REMARK    2  A    between atoms: C_14  and  C_19 
REMARK    3  A    between atoms: C_15  and  C_20 
REMARK    4  A    between atoms: C_16  and  C_21 
REMARK    5  A    between atoms: C_17  and  C_23 
REMARK    6  A    between atoms: C_18  and  C_26 
REMARK    7  A    between atoms: C_22  and  C_28 
ROOT
HETATM    1  O   UNL     1      45.363  27.338  51.959  1.00  0.00    -0.304 OA
HETATM    2  O   UNL     1      44.163  22.254  51.901  1.00  0.00    -0.304 OA
HETATM    3  O   UNL     1      42.521  24.848  55.495  1.00  0.00    -0.304 OA
HETATM    4  O   UNL     1      46.716  24.162  51.685  1.00  0.00    -0.270 OA
HETATM    5  O   UNL     1      43.343  26.426  51.321  1.00  0.00    -0.263 OA
HETATM    6  O   UNL     1      45.690  25.725  53.961  1.00  0.00    -0.270 OA
HETATM    7  O   UNL     1      42.112  21.634  55.397  1.00  0.00    -0.270 OA
HETATM    8  O   UNL     1      43.549  20.223  51.019  1.00  0.00    -0.263 OA
HETATM    9  O   UNL     1      43.673  23.563  57.018  1.00  0.00    -0.263 OA
HETATM   10  N   UNL     1      45.052  24.507  50.105  1.00  0.00    -0.340 N 
HETATM   11  N   UNL     1      44.283  26.799  55.450  1.00  0.00    -0.340 N 
HETATM   12  N   UNL     1      41.895  22.594  53.289  1.00  0.00    -0.340 N 
HETATM   13  C   UNL     1      45.365  25.950  50.052  1.00  0.00     0.190 C 
HETATM   14  C   UNL     1      44.524  25.750  56.464  1.00  0.00     0.190 C 
HETATM   15  C   UNL     1      42.066  21.302  52.594  1.00  0.00     0.190 C 
HETATM   16  C   UNL     1      45.389  22.247  51.143  1.00  0.00     0.227 C 
HETATM   17  C   UNL     1      44.806  27.815  53.204  1.00  0.00     0.227 C 
HETATM   18  C   UNL     1      41.419  23.933  55.354  1.00  0.00     0.227 C 
HETATM   19  C   UNL     1      45.785  23.714  51.006  1.00  0.00     0.250 C 
HETATM   20  C   UNL     1      44.545  26.592  51.160  1.00  0.00     0.283 C 
HETATM   21  C   UNL     1      44.964  26.689  54.229  1.00  0.00     0.250 C 
HETATM   22  C   UNL     1      41.850  22.615  54.694  1.00  0.00     0.250 C 
HETATM   23  C   UNL     1      43.326  21.193  51.738  1.00  0.00     0.283 C 
HETATM   24  C   UNL     1      43.542  24.586  56.354  1.00  0.00     0.283 C 
HETATM   25  C   UNL     1      43.976  24.008  49.243  1.00  0.00     0.153 C 
HETATM   26  C   UNL     1      43.325  27.859  55.774  1.00  0.00     0.153 C 
HETATM   27  C   UNL     1      41.599  23.770  52.469  1.00  0.00     0.153 C 
ENDROOT
BRANCH  17  28
HETATM   28  C   UNL     1      45.623  29.032  53.614  1.00  0.00     0.016 C 
HETATM   29  C   UNL     1      47.051  28.929  53.078  1.00  0.00     0.012 C 
HETATM   30  C   UNL     1      44.959  30.318  53.123  1.00  0.00     0.012 C 
ENDBRANCH  17  28
BRANCH  13  31
HETATM   31  C   UNL     1      45.090  26.645  48.724  1.00  0.00     0.014 C 
HETATM   32  C   UNL     1      45.072  28.162  48.925  1.00  0.00     0.012 C 
BRANCH  31  33
HETATM   33  C   UNL     1      46.129  26.207  47.677  1.00  0.00     0.002 C 
HETATM   34  C   UNL     1      46.594  27.335  46.766  1.00  0.00     0.005 C 
ENDBRANCH  31  33
ENDBRANCH  13  31
BRANCH  14  35
HETATM   35  C   UNL     1      44.543  26.275  57.899  1.00  0.00     0.010 C 
HETATM   36  C   UNL     1      43.332  25.763  58.677  1.00  0.00     0.012 C 
HETATM   37  C   UNL     1      45.839  25.875  58.604  1.00  0.00     0.012 C 
ENDBRANCH  14  35
BRANCH  16  38
HETATM   38  C   UNL     1      46.437  21.449  51.915  1.00  0.00     0.016 C 
HETATM   39  C   UNL     1      46.778  20.154  51.181  1.00  0.00     0.012 C 
HETATM   40  C   UNL     1      45.950  21.149  53.332  1.00  0.00     0.012 C 
ENDBRANCH  16  38
BRANCH  18  41
HETATM   41  C   UNL     1      40.686  23.718  56.678  1.00  0.00     0.016 C 
HETATM   42  C   UNL     1      39.463  22.827  56.476  1.00  0.00     0.012 C 
HETATM   43  C   UNL     1      40.280  25.057  57.289  1.00  0.00     0.012 C 
ENDBRANCH  18  41
BRANCH  15  44
HETATM   44  C   UNL     1      40.827  20.945  51.771  1.00  0.00     0.010 C 
HETATM   45  C   UNL     1      39.575  21.547  52.402  1.00  0.00     0.012 C 
HETATM   46  C   UNL     1      40.691  19.430  51.642  1.00  0.00     0.012 C 
ENDBRANCH  15  44
TORSDOF 7
ENDMDL
MODEL 13
REMARK VINA RESULT:    -4.569      5.937     10.661
REMARK INTER + INTRA:          -5.208
REMARK INTER:                  -7.210
REMARK INTRA:                   2.002
REMARK UNBOUND:                 1.231
REMARK  7 active torsions:
REMARK  status: ('A' for Active; 'I' for Inactive)
REMARK    1  A    between atoms: C_13  and  C_14 
REMARK    2  A    between atoms: C_14  and  C_19 
REMARK    3  A    between atoms: C_15  and  C_20 
REMARK    4  A    between atoms: C_16  and  C_21 
REMARK    5  A    between atoms: C_17  and  C_23 
REMARK    6  A    between atoms: C_18  and  C_26 
REMARK    7  A    between atoms: C_22  and  C_28 
ROOT
HETATM    1  O   UNL     1      28.140  26.973  56.705  1.00  0.00    -0.304 OA
HETATM    2  O   UNL     1      33.239  25.948  56.214  1.00  0.00    -0.304 OA
HETATM    3  O   UNL     1      32.014  30.163  57.968  1.00  0.00    -0.304 OA
HETATM    4  O   UNL     1      30.559  25.888  54.477  1.00  0.00    -0.270 OA
HETATM    5  O   UNL     1      29.573  26.363  58.406  1.00  0.00    -0.263 OA
HETATM    6  O   UNL     1      29.852  28.538  55.549  1.00  0.00    -0.270 OA
HETATM    7  O   UNL     1      35.107  29.419  57.342  1.00  0.00    -0.270 OA
HETATM    8  O   UNL     1      35.178  24.718  56.287  1.00  0.00    -0.263 OA
HETATM    9  O   UNL     1      33.058  31.250  56.228  1.00  0.00    -0.263 OA
HETATM   10  N   UNL     1      30.550  24.596  56.405  1.00  0.00    -0.340 N 
HETATM   11  N   UNL     1      29.596  30.358  56.954  1.00  0.00    -0.340 N 
HETATM   12  N   UNL     1      33.941  27.600  58.205  1.00  0.00    -0.340 N 
HETATM   13  C   UNL     1      29.101  24.823  56.581  1.00  0.00     0.190 C 
HETATM   14  C   UNL     1      30.651  31.094  56.225  1.00  0.00     0.190 C 
HETATM   15  C   UNL     1      34.959  26.630  57.750  1.00  0.00     0.190 C 
HETATM   16  C   UNL     1      32.695  25.086  55.195  1.00  0.00     0.227 C 
HETATM   17  C   UNL     1      28.100  28.342  57.167  1.00  0.00     0.227 C 
HETATM   18  C   UNL     1      33.216  29.942  58.728  1.00  0.00     0.227 C 
HETATM   19  C   UNL     1      31.180  25.227  55.317  1.00  0.00     0.250 C 
HETATM   20  C   UNL     1      28.978  26.120  57.364  1.00  0.00     0.283 C 
HETATM   21  C   UNL     1      29.258  29.079  56.488  1.00  0.00     0.250 C 
HETATM   22  C   UNL     1      34.174  28.974  58.017  1.00  0.00     0.250 C 
HETATM   23  C   UNL     1      34.481  25.647  56.684  1.00  0.00     0.283 C 
HETATM   24  C   UNL     1      32.048  30.838  56.788  1.00  0.00     0.283 C 
HETATM   25  C   UNL     1      31.239  23.761  57.394  1.00  0.00     0.153 C 
HETATM   26  C   UNL     1      29.004  30.998  58.131  1.00  0.00     0.153 C 
HETATM   27  C   UNL     1      32.821  27.086  58.994  1.00  0.00     0.153 C 
ENDROOT
BRANCH  17  28
HETATM   28  C   UNL     1      26.763  28.917  56.724  1.00  0.00     0.016 C 
HETATM   29  C   UNL     1      26.220  28.154  55.517  1.00  0.00     0.012 C 
HETATM   30  C   UNL     1      25.756  28.888  57.873  1.00  0.00     0.012 C 
ENDBRANCH  17  28
BRANCH  13  31
HETATM   31  C   UNL     1      28.331  23.709  57.283  1.00  0.00     0.014 C 
HETATM   32  C   UNL     1      27.017  24.258  57.842  1.00  0.00     0.012 C 
BRANCH  31  33
HETATM   33  C   UNL     1      28.108  22.535  56.314  1.00  0.00     0.002 C 
HETATM   34  C   UNL     1      26.663  22.063  56.247  1.00  0.00     0.005 C 
ENDBRANCH  31  33
ENDBRANCH  13  31
BRANCH  14  35
HETATM   35  C   UNL     1      30.401  32.599  56.133  1.00  0.00     0.010 C 
HETATM   36  C   UNL     1      31.254  33.351  57.152  1.00  0.00     0.012 C 
HETATM   37  C   UNL     1      30.684  33.108  54.720  1.00  0.00     0.012 C 
ENDBRANCH  14  35
BRANCH  16  38
HETATM   38  C   UNL     1      33.198  25.558  53.834  1.00  0.00     0.016 C 
HETATM   39  C   UNL     1      32.048  25.638  52.832  1.00  0.00     0.012 C 
HETATM   40  C   UNL     1      34.296  24.631  53.314  1.00  0.00     0.012 C 
ENDBRANCH  16  38
BRANCH  18  41
HETATM   41  C   UNL     1      33.890  31.256  59.121  1.00  0.00     0.016 C 
HETATM   42  C   UNL     1      35.202  30.989  59.854  1.00  0.00     0.012 C 
HETATM   43  C   UNL     1      32.955  32.101  59.983  1.00  0.00     0.012 C 
ENDBRANCH  18  41
BRANCH  15  44
HETATM   44  C   UNL     1      35.579  25.881  58.930  1.00  0.00     0.010 C 
HETATM   45  C   UNL     1      37.100  25.848  58.803  1.00  0.00     0.012 C 
HETATM   46  C   UNL     1      35.015  24.465  59.019  1.00  0.00     0.012 C 
ENDBRANCH  15  44
TORSDOF 7
ENDMDL
MODEL 14
REMARK VINA RESULT:    -4.468     11.359     15.678
REMARK INTER + INTRA:          -5.066
REMARK INTER:                  -6.363
REMARK INTRA:                   1.297
REMARK UNBOUND:                 1.231
REMARK  7 active torsions:
REMARK  status: ('A' for Active; 'I' for Inactive)
REMARK    1  A    between atoms: C_13  and  C_14 
REMARK    2  A    between atoms: C_14  and  C_19 
REMARK    3  A    between atoms: C_15  and  C_20 
REMARK    4  A    between atoms: C_16  and  C_21 
REMARK    5  A    between atoms: C_17  and  C_23 
REMARK    6  A    between atoms: C_18  and  C_26 
REMARK    7  A    between atoms: C_22  and  C_28 
ROOT
HETATM    1  O   UNL     1      38.573  40.548  52.713  1.00  0.00    -0.304 OA
HETATM    2  O   UNL     1      39.028  37.184  56.684  1.00  0.00    -0.304 OA
HETATM    3  O   UNL     1      34.733  37.780  54.803  1.00  0.00    -0.304 OA
HETATM    4  O   UNL     1      39.776  40.200  55.942  1.00  0.00    -0.270 OA
HETATM    5  O   UNL     1      38.640  38.249  52.545  1.00  0.00    -0.263 OA
HETATM    6  O   UNL     1      37.073  40.553  54.826  1.00  0.00    -0.270 OA
HETATM    7  O   UNL     1      35.193  35.939  57.431  1.00  0.00    -0.270 OA
HETATM    8  O   UNL     1      39.964  35.527  57.971  1.00  0.00    -0.263 OA
HETATM    9  O   UNL     1      33.899  38.533  56.812  1.00  0.00    -0.263 OA
HETATM   10  N   UNL     1      40.640  38.564  54.541  1.00  0.00    -0.340 N 
HETATM   11  N   UNL     1      35.052  40.175  53.765  1.00  0.00    -0.340 N 
HETATM   12  N   UNL     1      36.931  35.707  55.902  1.00  0.00    -0.340 N 
HETATM   13  C   UNL     1      40.566  39.479  53.384  1.00  0.00     0.190 C 
HETATM   14  C   UNL     1      34.354  40.136  55.068  1.00  0.00     0.190 C 
HETATM   15  C   UNL     1      37.838  35.106  56.902  1.00  0.00     0.190 C 
HETATM   16  C   UNL     1      40.141  38.061  56.949  1.00  0.00     0.227 C 
HETATM   17  C   UNL     1      37.156  40.573  52.436  1.00  0.00     0.227 C 
HETATM   18  C   UNL     1      34.642  36.383  55.137  1.00  0.00     0.227 C 
HETATM   19  C   UNL     1      40.169  39.039  55.778  1.00  0.00     0.250 C 
HETATM   20  C   UNL     1      39.163  39.321  52.821  1.00  0.00     0.283 C 
HETATM   21  C   UNL     1      36.431  40.430  53.777  1.00  0.00     0.250 C 
HETATM   22  C   UNL     1      35.606  36.000  56.269  1.00  0.00     0.250 C 
HETATM   23  C   UNL     1      39.069  35.942  57.241  1.00  0.00     0.283 C 
HETATM   24  C   UNL     1      34.313  38.735  55.675  1.00  0.00     0.283 C 
HETATM   25  C   UNL     1      41.163  37.213  54.314  1.00  0.00     0.153 C 
HETATM   26  C   UNL     1      34.267  39.908  52.558  1.00  0.00     0.153 C 
HETATM   27  C   UNL     1      37.411  35.801  54.522  1.00  0.00     0.153 C 
ENDROOT
BRANCH  17  28
HETATM   28  C   UNL     1      36.854  41.925  51.804  1.00  0.00     0.016 C 
HETATM   29  C   UNL     1      37.151  43.057  52.786  1.00  0.00     0.012 C 
HETATM   30  C   UNL     1      37.655  42.109  50.516  1.00  0.00     0.012 C 
ENDBRANCH  17  28
BRANCH  13  31
HETATM   31  C   UNL     1      41.601  39.255  52.287  1.00  0.00     0.014 C 
HETATM   32  C   UNL     1      41.228  40.068  51.046  1.00  0.00     0.012 C 
BRANCH  31  33
HETATM   33  C   UNL     1      43.005  39.604  52.812  1.00  0.00     0.002 C 
HETATM   34  C   UNL     1      44.086  38.632  52.360  1.00  0.00     0.005 C 
ENDBRANCH  31  33
ENDBRANCH  13  31
BRANCH  14  35
HETATM   35  C   UNL     1      32.942  40.721  55.027  1.00  0.00     0.010 C 
HETATM   36  C   UNL     1      32.167  40.349  56.289  1.00  0.00     0.012 C 
HETATM   37  C   UNL     1      32.991  42.239  54.857  1.00  0.00     0.012 C 
ENDBRANCH  14  35
BRANCH  16  38
HETATM   38  C   UNL     1      39.895  38.775  58.276  1.00  0.00     0.016 C 
HETATM   39  C   UNL     1      40.889  38.301  59.335  1.00  0.00     0.012 C 
HETATM   40  C   UNL     1      38.460  38.553  58.750  1.00  0.00     0.012 C 
ENDBRANCH  16  38
BRANCH  18  41
HETATM   41  C   UNL     1      33.201  35.959  55.419  1.00  0.00     0.016 C 
HETATM   42  C   UNL     1      33.166  34.573  56.060  1.00  0.00     0.012 C 
HETATM   43  C   UNL     1      32.375  35.977  54.135  1.00  0.00     0.012 C 
ENDBRANCH  18  41
BRANCH  15  44
HETATM   44  C   UNL     1      38.248  33.689  56.498  1.00  0.00     0.010 C 
HETATM   45  C   UNL     1      38.160  32.746  57.694  1.00  0.00     0.012 C 
HETATM   46  C   UNL     1      39.657  33.687  55.913  1.00  0.00     0.012 C 
ENDBRANCH  15  44
TORSDOF 7
ENDMDL
MODEL 15
REMARK VINA RESULT:    -4.357     18.279     21.886
REMARK INTER + INTRA:          -4.909
REMARK INTER:                  -5.565
REMARK INTRA:                   0.656
REMARK UNBOUND:                 1.231
REMARK  7 active torsions:
REMARK  status: ('A' for Active; 'I' for Inactive)
REMARK    1  A    between atoms: C_13  and  C_14 
REMARK    2  A    between atoms: C_14  and  C_19 
REMARK    3  A    between atoms: C_15  and  C_20 
REMARK    4  A    between atoms: C_16  and  C_21 
REMARK    5  A    between atoms: C_17  and  C_23 
REMARK    6  A    between atoms: C_18  and  C_26 
REMARK    7  A    between atoms: C_22  and  C_28 
ROOT
HETATM    1  O   UNL     1      43.003  20.005  50.940  1.00  0.00    -0.304 OA
HETATM    2  O   UNL     1      43.062  24.289  53.929  1.00  0.00    -0.304 OA
HETATM    3  O   UNL     1      39.936  20.912  55.008  1.00  0.00    -0.304 OA
HETATM    4  O   UNL     1      42.894  23.465  50.847  1.00  0.00    -0.270 OA
HETATM    5  O   UNL     1      43.955  20.189  53.032  1.00  0.00    -0.263 OA
HETATM    6  O   UNL     1      40.908  21.406  51.547  1.00  0.00    -0.270 OA
HETATM    7  O   UNL     1      39.971  23.753  56.569  1.00  0.00    -0.270 OA
HETATM    8  O   UNL     1      43.954  26.042  55.116  1.00  0.00    -0.263 OA
HETATM    9  O   UNL     1      38.177  22.357  54.666  1.00  0.00    -0.263 OA
HETATM   10  N   UNL     1      44.762  22.712  52.001  1.00  0.00    -0.340 N 
HETATM   11  N   UNL     1      39.744  19.745  52.660  1.00  0.00    -0.340 N 
HETATM   12  N   UNL     1      42.121  23.008  56.088  1.00  0.00    -0.340 N 
HETATM   13  C   UNL     1      44.818  21.494  51.167  1.00  0.00     0.190 C 
HETATM   14  C   UNL     1      38.660  20.696  52.985  1.00  0.00     0.190 C 
HETATM   15  C   UNL     1      42.720  24.341  56.309  1.00  0.00     0.190 C 
HETATM   16  C   UNL     1      43.586  24.818  52.695  1.00  0.00     0.227 C 
HETATM   17  C   UNL     1      41.900  19.230  51.460  1.00  0.00     0.227 C 
HETATM   18  C   UNL     1      40.234  21.377  56.337  1.00  0.00     0.227 C 
HETATM   19  C   UNL     1      43.711  23.616  51.764  1.00  0.00     0.250 C 
HETATM   20  C   UNL     1      43.904  20.486  51.846  1.00  0.00     0.283 C 
HETATM   21  C   UNL     1      40.817  20.222  51.892  1.00  0.00     0.250 C 
HETATM   22  C   UNL     1      40.750  22.824  56.335  1.00  0.00     0.250 C 
HETATM   23  C   UNL     1      43.329  24.987  55.067  1.00  0.00     0.283 C 
HETATM   24  C   UNL     1      38.896  21.433  54.302  1.00  0.00     0.283 C 
HETATM   25  C   UNL     1      45.782  22.878  53.041  1.00  0.00     0.153 C 
HETATM   26  C   UNL     1      39.643  18.383  53.190  1.00  0.00     0.153 C 
HETATM   27  C   UNL     1      43.030  21.898  55.795  1.00  0.00     0.153 C 
ENDROOT
BRANCH  17  28
HETATM   28  C   UNL     1      41.401  18.354  50.320  1.00  0.00     0.016 C 
HETATM   29  C   UNL     1      42.086  18.734  49.008  1.00  0.00     0.012 C 
HETATM   30  C   UNL     1      41.631  16.876  50.634  1.00  0.00     0.012 C 
ENDBRANCH  17  28
BRANCH  13  31
HETATM   31  C   UNL     1      46.202  20.891  50.957  1.00  0.00     0.014 C 
HETATM   32  C   UNL     1      46.086  19.379  50.758  1.00  0.00     0.012 C 
BRANCH  31  33
HETATM   33  C   UNL     1      46.903  21.584  49.775  1.00  0.00     0.002 C 
HETATM   34  C   UNL     1      47.996  22.556  50.195  1.00  0.00     0.005 C 
ENDBRANCH  31  33
ENDBRANCH  13  31
BRANCH  14  35
HETATM   35  C   UNL     1      37.268  20.065  52.990  1.00  0.00     0.010 C 
HETATM   36  C   UNL     1      36.696  20.031  54.405  1.00  0.00     0.012 C 
HETATM   37  C   UNL     1      36.329  20.822  52.051  1.00  0.00     0.012 C 
ENDBRANCH  14  35
BRANCH  16  38
HETATM   38  C   UNL     1      42.605  25.854  52.151  1.00  0.00     0.016 C 
HETATM   39  C   UNL     1      43.208  27.256  52.219  1.00  0.00     0.012 C 
HETATM   40  C   UNL     1      41.285  25.801  52.919  1.00  0.00     0.012 C 
ENDBRANCH  16  38
BRANCH  18  41
HETATM   41  C   UNL     1      39.056  21.172  57.289  1.00  0.00     0.016 C 
HETATM   42  C   UNL     1      39.395  21.696  58.682  1.00  0.00     0.012 C 
HETATM   43  C   UNL     1      38.668  19.696  57.350  1.00  0.00     0.012 C 
ENDBRANCH  18  41
BRANCH  15  44
HETATM   44  C   UNL     1      43.736  24.312  57.451  1.00  0.00     0.010 C 
HETATM   45  C   UNL     1      43.516  25.493  58.393  1.00  0.00     0.012 C 
HETATM   46  C   UNL     1      45.159  24.320  56.900  1.00  0.00     0.012 C 
ENDBRANCH  15  44
TORSDOF 7
ENDMDL
MODEL 16
REMARK VINA RESULT:    -4.337     12.430     18.061
REMARK INTER + INTRA:          -4.881
REMARK INTER:                  -5.468
REMARK INTRA:                   0.587
REMARK UNBOUND:                 1.231
REMARK  7 active torsions:
REMARK  status: ('A' for Active; 'I' for Inactive)
REMARK    1  A    between atoms: C_13  and  C_14 
REMARK    2  A    between atoms: C_14  and  C_19 
REMARK    3  A    between atoms: C_15  and  C_20 
REMARK    4  A    between atoms: C_16  and  C_21 
REMARK    5  A    between atoms: C_17  and  C_23 
REMARK    6  A    between atoms: C_18  and  C_26 
REMARK    7  A    between atoms: C_22  and  C_28 
ROOT
HETATM    1  O   UNL     1      41.144  35.276  55.649  1.00  0.00    -0.304 OA
HETATM    2  O   UNL     1      36.955  38.123  56.929  1.00  0.00    -0.304 OA
HETATM    3  O   UNL     1      39.339  39.365  53.041  1.00  0.00    -0.304 OA
HETATM    4  O   UNL     1      39.654  37.028  58.239  1.00  0.00    -0.270 OA
HETATM    5  O   UNL     1      39.059  35.141  54.673  1.00  0.00    -0.263 OA
HETATM    6  O   UNL     1      41.118  37.862  55.823  1.00  0.00    -0.270 OA
HETATM    7  O   UNL     1      36.869  41.143  54.156  1.00  0.00    -0.270 OA
HETATM    8  O   UNL     1      34.825  38.558  57.672  1.00  0.00    -0.263 OA
HETATM    9  O   UNL     1      39.809  41.437  53.926  1.00  0.00    -0.263 OA
HETATM   10  N   UNL     1      38.219  35.422  57.374  1.00  0.00    -0.340 N 
HETATM   11  N   UNL     1      41.680  38.320  53.626  1.00  0.00    -0.340 N 
HETATM   12  N   UNL     1      36.468  38.864  54.399  1.00  0.00    -0.340 N 
HETATM   13  C   UNL     1      39.361  34.556  57.016  1.00  0.00     0.190 C 
HETATM   14  C   UNL     1      41.553  39.771  53.877  1.00  0.00     0.190 C 
HETATM   15  C   UNL     1      35.383  39.077  55.379  1.00  0.00     0.190 C 
HETATM   16  C   UNL     1      37.335  37.613  58.222  1.00  0.00     0.227 C 
HETATM   17  C   UNL     1      41.690  35.955  54.497  1.00  0.00     0.227 C 
HETATM   18  C   UNL     1      38.009  39.704  52.609  1.00  0.00     0.227 C 
HETATM   19  C   UNL     1      38.505  36.671  57.954  1.00  0.00     0.250 C 
HETATM   20  C   UNL     1      39.805  35.007  55.634  1.00  0.00     0.283 C 
HETATM   21  C   UNL     1      41.467  37.455  54.710  1.00  0.00     0.250 C 
HETATM   22  C   UNL     1      37.073  39.980  53.795  1.00  0.00     0.250 C 
HETATM   23  C   UNL     1      35.670  38.550  56.783  1.00  0.00     0.283 C 
HETATM   24  C   UNL     1      40.137  40.291  53.638  1.00  0.00     0.283 C 
HETATM   25  C   UNL     1      36.870  34.937  57.067  1.00  0.00     0.153 C 
HETATM   26  C   UNL     1      41.982  37.883  52.261  1.00  0.00     0.153 C 
HETATM   27  C   UNL     1      36.734  37.490  53.971  1.00  0.00     0.153 C 
ENDROOT
BRANCH  17  28
HETATM   28  C   UNL     1      43.177  35.633  54.460  1.00  0.00     0.016 C 
HETATM   29  C   UNL     1      43.647  35.101  55.814  1.00  0.00     0.012 C 
HETATM   30  C   UNL     1      43.485  34.626  53.353  1.00  0.00     0.012 C 
ENDBRANCH  17  28
BRANCH  13  31
HETATM   31  C   UNL     1      39.089  33.056  57.018  1.00  0.00     0.014 C 
HETATM   32  C   UNL     1      40.030  32.356  56.036  1.00  0.00     0.012 C 
BRANCH  31  33
HETATM   33  C   UNL     1      39.220  32.501  58.447  1.00  0.00     0.002 C 
HETATM   34  C   UNL     1      40.310  33.174  59.269  1.00  0.00     0.005 C 
ENDBRANCH  31  33
ENDBRANCH  13  31
BRANCH  14  35
HETATM   35  C   UNL     1      42.552  40.621  53.092  1.00  0.00     0.010 C 
HETATM   36  C   UNL     1      41.836  41.460  52.036  1.00  0.00     0.012 C 
HETATM   37  C   UNL     1      43.356  41.518  54.033  1.00  0.00     0.012 C 
ENDBRANCH  14  35
BRANCH  16  38
HETATM   38  C   UNL     1      37.746  38.785  59.109  1.00  0.00     0.016 C 
HETATM   39  C   UNL     1      36.735  38.989  60.236  1.00  0.00     0.012 C 
HETATM   40  C   UNL     1      37.890  40.062  58.283  1.00  0.00     0.012 C 
ENDBRANCH  16  38
BRANCH  18  41
HETATM   41  C   UNL     1      38.016  40.838  51.585  1.00  0.00     0.016 C 
HETATM   42  C   UNL     1      36.609  41.081  51.043  1.00  0.00     0.012 C 
HETATM   43  C   UNL     1      38.984  40.527  50.446  1.00  0.00     0.012 C 
ENDBRANCH  18  41
BRANCH  15  44
HETATM   44  C   UNL     1      34.052  38.528  54.863  1.00  0.00     0.010 C 
HETATM   45  C   UNL     1      32.934  39.543  55.082  1.00  0.00     0.012 C 
HETATM   46  C   UNL     1      33.720  37.204  55.545  1.00  0.00     0.012 C 
ENDBRANCH  15  44
TORSDOF 7
ENDMDL
MODEL 17
REMARK VINA RESULT:    -4.334     11.038     16.791
REMARK INTER + INTRA:          -4.876
REMARK INTER:                  -5.581
REMARK INTRA:                   0.705
REMARK UNBOUND:                 1.231
REMARK  7 active torsions:
REMARK  status: ('A' for Active; 'I' for Inactive)
REMARK    1  A    between atoms: C_13  and  C_14 
REMARK    2  A    between atoms: C_14  and  C_19 
REMARK    3  A    between atoms: C_15  and  C_20 
REMARK    4  A    between atoms: C_16  and  C_21 
REMARK    5  A    between atoms: C_17  and  C_23 
REMARK    6  A    between atoms: C_18  and  C_26 
REMARK    7  A    between atoms: C_22  and  C_28 
ROOT
HETATM    1  O   UNL     1      41.199  35.827  55.658  1.00  0.00    -0.304 OA
HETATM    2  O   UNL     1      36.379  36.015  57.663  1.00  0.00    -0.304 OA
HETATM    3  O   UNL     1      37.408  39.013  54.157  1.00  0.00    -0.304 OA
HETATM    4  O   UNL     1      39.425  36.084  58.622  1.00  0.00    -0.270 OA
HETATM    5  O   UNL     1      39.299  34.926  54.713  1.00  0.00    -0.263 OA
HETATM    6  O   UNL     1      40.021  37.992  56.458  1.00  0.00    -0.270 OA
HETATM    7  O   UNL     1      34.567  39.134  55.713  1.00  0.00    -0.270 OA
HETATM    8  O   UNL     1      34.402  35.225  58.525  1.00  0.00    -0.263 OA
HETATM    9  O   UNL     1      36.993  40.826  55.513  1.00  0.00    -0.263 OA
HETATM   10  N   UNL     1      38.781  34.209  57.414  1.00  0.00    -0.340 N 
HETATM   11  N   UNL     1      40.022  39.106  54.431  1.00  0.00    -0.340 N 
HETATM   12  N   UNL     1      35.284  36.943  55.398  1.00  0.00    -0.340 N 
HETATM   13  C   UNL     1      40.135  34.084  56.837  1.00  0.00     0.190 C 
HETATM   14  C   UNL     1      39.281  40.236  55.030  1.00  0.00     0.190 C 
HETATM   15  C   UNL     1      34.359  36.408  56.419  1.00  0.00     0.190 C 
HETATM   16  C   UNL     1      37.114  35.490  58.786  1.00  0.00     0.227 C 
HETATM   17  C   UNL     1      41.222  36.906  54.697  1.00  0.00     0.227 C 
HETATM   18  C   UNL     1      36.026  38.763  53.842  1.00  0.00     0.227 C 
HETATM   19  C   UNL     1      38.539  35.294  58.276  1.00  0.00     0.250 C 
HETATM   20  C   UNL     1      40.141  34.966  55.600  1.00  0.00     0.283 C 
HETATM   21  C   UNL     1      40.369  38.040  55.273  1.00  0.00     0.250 C 
HETATM   22  C   UNL     1      35.230  38.310  55.075  1.00  0.00     0.250 C 
HETATM   23  C   UNL     1      35.034  35.802  57.646  1.00  0.00     0.283 C 
HETATM   24  C   UNL     1      37.766  40.060  54.948  1.00  0.00     0.283 C 
HETATM   25  C   UNL     1      37.774  33.219  57.021  1.00  0.00     0.153 C 
HETATM   26  C   UNL     1      40.309  39.159  52.995  1.00  0.00     0.153 C 
HETATM   27  C   UNL     1      36.090  35.982  54.644  1.00  0.00     0.153 C 
ENDROOT
BRANCH  17  28
HETATM   28  C   UNL     1      42.673  37.343  54.559  1.00  0.00     0.016 C 
HETATM   29  C   UNL     1      43.497  36.860  55.752  1.00  0.00     0.012 C 
HETATM   30  C   UNL     1      43.270  36.825  53.251  1.00  0.00     0.012 C 
ENDBRANCH  17  28
BRANCH  13  31
HETATM   31  C   UNL     1      40.579  32.670  56.477  1.00  0.00     0.014 C 
HETATM   32  C   UNL     1      41.724  32.727  55.465  1.00  0.00     0.012 C 
BRANCH  31  33
HETATM   33  C   UNL     1      40.966  31.901  57.753  1.00  0.00     0.002 C 
HETATM   34  C   UNL     1      40.359  30.508  57.836  1.00  0.00     0.005 C 
ENDBRANCH  31  33
ENDBRANCH  13  31
BRANCH  14  35
HETATM   35  C   UNL     1      39.672  41.600  54.459  1.00  0.00     0.010 C 
HETATM   36  C   UNL     1      38.581  42.131  53.532  1.00  0.00     0.012 C 
HETATM   37  C   UNL     1      39.949  42.597  55.584  1.00  0.00     0.012 C 
ENDBRANCH  14  35
BRANCH  16  38
HETATM   38  C   UNL     1      37.056  36.504  59.926  1.00  0.00     0.016 C 
HETATM   39  C   UNL     1      36.223  35.964  61.087  1.00  0.00     0.012 C 
HETATM   40  C   UNL     1      36.490  37.835  59.435  1.00  0.00     0.012 C 
ENDBRANCH  16  38
BRANCH  18  41
HETATM   41  C   UNL     1      35.382  39.950  53.127  1.00  0.00     0.016 C 
HETATM   42  C   UNL     1      33.893  39.697  52.902  1.00  0.00     0.012 C 
HETATM   43  C   UNL     1      36.087  40.222  51.799  1.00  0.00     0.012 C 
ENDBRANCH  18  41
BRANCH  15  44
HETATM   44  C   UNL     1      33.370  35.415  55.806  1.00  0.00     0.010 C 
HETATM   45  C   UNL     1      32.844  35.939  54.473  1.00  0.00     0.012 C 
HETATM   46  C   UNL     1      32.220  35.143  56.771  1.00  0.00     0.012 C 
ENDBRANCH  15  44
TORSDOF 7
ENDMDL
MODEL 18
REMARK VINA RESULT:    -4.318      9.977     14.868
REMARK INTER + INTRA:          -4.854
REMARK INTER:                  -5.436
REMARK INTRA:                   0.582
REMARK UNBOUND:                 1.231
REMARK  7 active torsions:
REMARK  status: ('A' for Active; 'I' for Inactive)
REMARK    1  A    between atoms: C_13  and  C_14 
REMARK    2  A    between atoms: C_14  and  C_19 
REMARK    3  A    between atoms: C_15  and  C_20 
REMARK    4  A    between atoms: C_16  and  C_21 
REMARK    5  A    between atoms: C_17  and  C_23 
REMARK    6  A    between atoms: C_18  and  C_26 
REMARK    7  A    between atoms: C_22  and  C_28 
ROOT
HETATM    1  O   UNL     1      35.151  33.122  59.902  1.00  0.00    -0.304 OA
HETATM    2  O   UNL     1      39.385  33.678  56.893  1.00  0.00    -0.304 OA
HETATM    3  O   UNL     1      35.854  36.763  56.293  1.00  0.00    -0.304 OA
HETATM    4  O   UNL     1      37.283  31.434  57.757  1.00  0.00    -0.270 OA
HETATM    5  O   UNL     1      36.834  34.670  60.198  1.00  0.00    -0.263 OA
HETATM    6  O   UNL     1      35.102  33.366  57.322  1.00  0.00    -0.270 OA
HETATM    7  O   UNL     1      38.458  36.769  54.362  1.00  0.00    -0.270 OA
HETATM    8  O   UNL     1      41.616  33.718  56.347  1.00  0.00    -0.263 OA
HETATM    9  O   UNL     1      35.581  36.105  54.104  1.00  0.00    -0.263 OA
HETATM   10  N   UNL     1      38.456  32.447  59.484  1.00  0.00    -0.340 N 
HETATM   11  N   UNL     1      33.865  35.318  57.226  1.00  0.00    -0.340 N 
HETATM   12  N   UNL     1      39.026  36.316  56.572  1.00  0.00    -0.340 N 
HETATM   13  C   UNL     1      37.303  32.290  60.394  1.00  0.00     0.190 C 
HETATM   14  C   UNL     1      33.992  35.347  55.753  1.00  0.00     0.190 C 
HETATM   15  C   UNL     1      40.350  35.771  56.206  1.00  0.00     0.190 C 
HETATM   16  C   UNL     1      39.451  32.269  57.186  1.00  0.00     0.227 C 
HETATM   17  C   UNL     1      34.242  34.134  59.418  1.00  0.00     0.227 C 
HETATM   18  C   UNL     1      36.966  37.638  56.031  1.00  0.00     0.227 C 
HETATM   19  C   UNL     1      38.303  32.007  58.157  1.00  0.00     0.250 C 
HETATM   20  C   UNL     1      36.431  33.515  60.172  1.00  0.00     0.283 C 
HETATM   21  C   UNL     1      34.446  34.236  57.904  1.00  0.00     0.250 C 
HETATM   22  C   UNL     1      38.209  36.863  55.568  1.00  0.00     0.250 C 
HETATM   23  C   UNL     1      40.538  34.285  56.498  1.00  0.00     0.283 C 
HETATM   24  C   UNL     1      35.236  36.096  55.281  1.00  0.00     0.283 C 
HETATM   25  C   UNL     1      39.666  33.084  60.014  1.00  0.00     0.153 C 
HETATM   26  C   UNL     1      33.176  36.434  57.877  1.00  0.00     0.153 C 
HETATM   27  C   UNL     1      38.708  36.420  57.997  1.00  0.00     0.153 C 
ENDROOT
BRANCH  17  28
HETATM   28  C   UNL     1      32.834  33.651  59.739  1.00  0.00     0.016 C 
HETATM   29  C   UNL     1      32.798  32.127  59.846  1.00  0.00     0.012 C 
HETATM   30  C   UNL     1      32.325  34.291  61.030  1.00  0.00     0.012 C 
ENDBRANCH  17  28
BRANCH  13  31
HETATM   31  C   UNL     1      37.636  32.142  61.875  1.00  0.00     0.014 C 
HETATM   32  C   UNL     1      36.424  32.537  62.721  1.00  0.00     0.012 C 
BRANCH  31  33
HETATM   33  C   UNL     1      38.109  30.707  62.165  1.00  0.00     0.002 C 
HETATM   34  C   UNL     1      39.454  30.637  62.875  1.00  0.00     0.005 C 
ENDBRANCH  31  33
ENDBRANCH  13  31
BRANCH  14  35
HETATM   35  C   UNL     1      32.758  35.900  55.040  1.00  0.00     0.010 C 
HETATM   36  C   UNL     1      33.067  37.247  54.390  1.00  0.00     0.012 C 
HETATM   37  C   UNL     1      32.247  34.907  53.995  1.00  0.00     0.012 C 
ENDBRANCH  14  35
BRANCH  16  38
HETATM   38  C   UNL     1      39.278  31.489  55.885  1.00  0.00     0.016 C 
HETATM   39  C   UNL     1      40.550  30.713  55.549  1.00  0.00     0.012 C 
HETATM   40  C   UNL     1      38.906  32.429  54.739  1.00  0.00     0.012 C 
ENDBRANCH  16  38
BRANCH  18  41
HETATM   41  C   UNL     1      36.586  38.770  55.077  1.00  0.00     0.016 C 
HETATM   42  C   UNL     1      37.794  39.659  54.792  1.00  0.00     0.012 C 
HETATM   43  C   UNL     1      35.437  39.594  55.653  1.00  0.00     0.012 C 
ENDBRANCH  18  41
BRANCH  15  44
HETATM   44  C   UNL     1      41.480  36.588  56.833  1.00  0.00     0.010 C 
HETATM   45  C   UNL     1      42.555  36.899  55.796  1.00  0.00     0.012 C 
HETATM   46  C   UNL     1      42.078  35.844  58.024  1.00  0.00     0.012 C 
ENDBRANCH  15  44
TORSDOF 7
ENDMDL
MODEL 19
REMARK VINA RESULT:    -4.275      9.482     13.596
REMARK INTER + INTRA:          -4.793
REMARK INTER:                  -5.523
REMARK INTRA:                   0.731
REMARK UNBOUND:                 1.231
REMARK  7 active torsions:
REMARK  status: ('A' for Active; 'I' for Inactive)
REMARK    1  A    between atoms: C_13  and  C_14 
REMARK    2  A    between atoms: C_14  and  C_19 
REMARK    3  A    between atoms: C_15  and  C_20 
REMARK    4  A    between atoms: C_16  and  C_21 
REMARK    5  A    between atoms: C_17  and  C_23 
REMARK    6  A    between atoms: C_18  and  C_26 
REMARK    7  A    between atoms: C_22  and  C_28 
ROOT
HETATM    1  O   UNL     1      33.596  35.880  56.572  1.00  0.00    -0.304 OA
HETATM    2  O   UNL     1      38.693  36.999  56.823  1.00  0.00    -0.304 OA
HETATM    3  O   UNL     1      37.384  32.547  57.724  1.00  0.00    -0.304 OA
HETATM    4  O   UNL     1      35.904  38.055  57.966  1.00  0.00    -0.270 OA
HETATM    5  O   UNL     1      35.176  35.392  54.964  1.00  0.00    -0.263 OA
HETATM    6  O   UNL     1      35.141  35.273  58.563  1.00  0.00    -0.270 OA
HETATM    7  O   UNL     1      40.458  33.515  58.073  1.00  0.00    -0.270 OA
HETATM    8  O   UNL     1      40.692  37.958  56.222  1.00  0.00    -0.263 OA
HETATM    9  O   UNL     1      38.246  32.669  59.855  1.00  0.00    -0.263 OA
HETATM   10  N   UNL     1      36.097  37.991  55.654  1.00  0.00    -0.340 N 
HETATM   11  N   UNL     1      34.893  32.976  58.450  1.00  0.00    -0.340 N 
HETATM   12  N   UNL     1      39.450  34.498  56.221  1.00  0.00    -0.340 N 
HETATM   13  C   UNL     1      34.654  37.704  55.515  1.00  0.00     0.190 C 
HETATM   14  C   UNL     1      35.856  32.799  59.559  1.00  0.00     0.190 C 
HETATM   15  C   UNL     1      40.481  35.553  56.119  1.00  0.00     0.190 C 
HETATM   16  C   UNL     1      38.123  38.292  57.105  1.00  0.00     0.227 C 
HETATM   17  C   UNL     1      33.520  34.497  56.983  1.00  0.00     0.227 C 
HETATM   18  C   UNL     1      38.646  32.287  57.085  1.00  0.00     0.227 C 
HETATM   19  C   UNL     1      36.615  38.106  56.956  1.00  0.00     0.250 C 
HETATM   20  C   UNL     1      34.521  36.193  55.617  1.00  0.00     0.283 C 
HETATM   21  C   UNL     1      34.588  34.288  58.061  1.00  0.00     0.250 C 
HETATM   22  C   UNL     1      39.599  33.487  57.186  1.00  0.00     0.250 C 
HETATM   23  C   UNL     1      39.979  36.971  56.376  1.00  0.00     0.283 C 
HETATM   24  C   UNL     1      37.299  32.681  59.075  1.00  0.00     0.283 C 
HETATM   25  C   UNL     1      36.895  38.098  54.429  1.00  0.00     0.153 C 
HETATM   26  C   UNL     1      34.354  31.773  57.812  1.00  0.00     0.153 C 
HETATM   27  C   UNL     1      38.416  34.461  55.186  1.00  0.00     0.153 C 
ENDROOT
BRANCH  17  28
HETATM   28  C   UNL     1      32.128  34.285  57.559  1.00  0.00     0.016 C 
HETATM   29  C   UNL     1      31.603  35.573  58.192  1.00  0.00     0.012 C 
HETATM   30  C   UNL     1      31.167  33.789  56.479  1.00  0.00     0.012 C 
ENDBRANCH  17  28
BRANCH  13  31
HETATM   31  C   UNL     1      33.993  38.205  54.236  1.00  0.00     0.014 C 
HETATM   32  C   UNL     1      32.667  37.475  54.016  1.00  0.00     0.012 C 
BRANCH  31  33
HETATM   33  C   UNL     1      33.815  39.733  54.301  1.00  0.00     0.002 C 
HETATM   34  C   UNL     1      34.057  40.435  52.973  1.00  0.00     0.005 C 
ENDBRANCH  31  33
ENDBRANCH  13  31
BRANCH  14  35
HETATM   35  C   UNL     1      35.524  31.625  60.480  1.00  0.00     0.010 C 
HETATM   36  C   UNL     1      36.545  30.502  60.313  1.00  0.00     0.012 C 
HETATM   37  C   UNL     1      35.466  32.082  61.938  1.00  0.00     0.012 C 
ENDBRANCH  14  35
BRANCH  16  38
HETATM   38  C   UNL     1      38.504  38.696  58.527  1.00  0.00     0.016 C 
HETATM   39  C   UNL     1      39.468  39.881  58.511  1.00  0.00     0.012 C 
HETATM   40  C   UNL     1      39.120  37.515  59.276  1.00  0.00     0.012 C 
ENDBRANCH  16  38
BRANCH  18  41
HETATM   41  C   UNL     1      39.279  30.988  57.583  1.00  0.00     0.016 C 
HETATM   42  C   UNL     1      40.586  30.710  56.845  1.00  0.00     0.012 C 
HETATM   43  C   UNL     1      38.309  29.820  57.414  1.00  0.00     0.012 C 
ENDBRANCH  18  41
BRANCH  15  44
HETATM   44  C   UNL     1      41.220  35.480  54.782  1.00  0.00     0.010 C 
HETATM   45  C   UNL     1      41.609  34.038  54.465  1.00  0.00     0.012 C 
HETATM   46  C   UNL     1      42.453  36.378  54.805  1.00  0.00     0.012 C 
ENDBRANCH  15  44
TORSDOF 7
ENDMDL
MODEL 20
REMARK VINA RESULT:    -4.203     12.577     17.778
REMARK INTER + INTRA:          -4.692
REMARK INTER:                  -5.541
REMARK INTRA:                   0.849
REMARK UNBOUND:                 1.231
REMARK  7 active torsions:
REMARK  status: ('A' for Active; 'I' for Inactive)
REMARK    1  A    between atoms: C_13  and  C_14 
REMARK    2  A    between atoms: C_14  and  C_19 
REMARK    3  A    between atoms: C_15  and  C_20 
REMARK    4  A    between atoms: C_16  and  C_21 
REMARK    5  A    between atoms: C_17  and  C_23 
REMARK    6  A    between atoms: C_18  and  C_26 
REMARK    7  A    between atoms: C_22  and  C_28 
ROOT
HETATM    1  O   UNL     1      40.309  39.285  52.480  1.00  0.00    -0.304 OA
HETATM    2  O   UNL     1      36.635  38.176  56.024  1.00  0.00    -0.304 OA
HETATM    3  O   UNL     1      41.147  37.994  57.421  1.00  0.00    -0.304 OA
HETATM    4  O   UNL     1      37.510  37.332  53.071  1.00  0.00    -0.270 OA
HETATM    5  O   UNL     1      39.554  40.695  54.141  1.00  0.00    -0.263 OA
HETATM    6  O   UNL     1      40.305  37.177  53.987  1.00  0.00    -0.270 OA
HETATM    7  O   UNL     1      38.726  37.097  59.382  1.00  0.00    -0.270 OA
HETATM    8  O   UNL     1      34.645  38.369  57.157  1.00  0.00    -0.263 OA
HETATM    9  O   UNL     1      40.949  35.762  57.946  1.00  0.00    -0.263 OA
HETATM   10  N   UNL     1      37.048  39.584  53.390  1.00  0.00    -0.340 N 
HETATM   11  N   UNL     1      42.296  37.589  55.091  1.00  0.00    -0.340 N 
HETATM   12  N   UNL     1      38.152  38.949  58.095  1.00  0.00    -0.340 N 
HETATM   13  C   UNL     1      38.052  39.961  52.373  1.00  0.00     0.190 C 
HETATM   14  C   UNL     1      42.107  36.382  55.923  1.00  0.00     0.190 C 
HETATM   15  C   UNL     1      36.706  38.779  58.351  1.00  0.00     0.190 C 
HETATM   16  C   UNL     1      35.943  37.831  54.808  1.00  0.00     0.227 C 
HETATM   17  C   UNL     1      41.552  39.052  53.179  1.00  0.00     0.227 C 
HETATM   18  C   UNL     1      40.551  38.471  58.641  1.00  0.00     0.227 C 
HETATM   19  C   UNL     1      36.898  38.216  53.681  1.00  0.00     0.250 C 
HETATM   20  C   UNL     1      39.375  40.055  53.114  1.00  0.00     0.283 C 
HETATM   21  C   UNL     1      41.324  37.864  54.117  1.00  0.00     0.250 C 
HETATM   22  C   UNL     1      39.065  38.096  58.739  1.00  0.00     0.250 C 
HETATM   23  C   UNL     1      35.870  38.435  57.121  1.00  0.00     0.283 C 
HETATM   24  C   UNL     1      41.323  36.663  57.203  1.00  0.00     0.283 C 
HETATM   25  C   UNL     1      36.305  40.661  54.051  1.00  0.00     0.153 C 
HETATM   26  C   UNL     1      43.462  38.433  55.363  1.00  0.00     0.153 C 
HETATM   27  C   UNL     1      38.569  40.119  57.322  1.00  0.00     0.153 C 
ENDROOT
BRANCH  17  28
HETATM   28  C   UNL     1      42.593  38.711  52.123  1.00  0.00     0.016 C 
HETATM   29  C   UNL     1      42.480  37.245  51.708  1.00  0.00     0.012 C 
HETATM   30  C   UNL     1      42.448  39.625  50.906  1.00  0.00     0.012 C 
ENDBRANCH  17  28
BRANCH  13  31
HETATM   31  C   UNL     1      37.780  41.255  51.614  1.00  0.00     0.014 C 
HETATM   32  C   UNL     1      38.997  41.623  50.764  1.00  0.00     0.012 C 
BRANCH  31  33
HETATM   33  C   UNL     1      36.501  41.111  50.771  1.00  0.00     0.002 C 
HETATM   34  C   UNL     1      35.628  42.358  50.764  1.00  0.00     0.005 C 
ENDBRANCH  31  33
ENDBRANCH  13  31
BRANCH  14  35
HETATM   35  C   UNL     1      43.410  35.660  56.266  1.00  0.00     0.010 C 
HETATM   36  C   UNL     1      43.744  35.823  57.747  1.00  0.00     0.012 C 
HETATM   37  C   UNL     1      43.320  34.179  55.898  1.00  0.00     0.012 C 
ENDBRANCH  14  35
BRANCH  16  38
HETATM   38  C   UNL     1      35.655  36.332  54.816  1.00  0.00     0.016 C 
HETATM   39  C   UNL     1      34.152  36.073  54.898  1.00  0.00     0.012 C 
HETATM   40  C   UNL     1      36.380  35.651  55.976  1.00  0.00     0.012 C 
ENDBRANCH  16  38
BRANCH  18  41
HETATM   41  C   UNL     1      41.351  38.041  59.870  1.00  0.00     0.016 C 
HETATM   42  C   UNL     1      40.683  38.543  61.147  1.00  0.00     0.012 C 
HETATM   43  C   UNL     1      42.788  38.551  59.779  1.00  0.00     0.012 C 
ENDBRANCH  18  41
BRANCH  15  44
HETATM   44  C   UNL     1      36.123  39.995  59.072  1.00  0.00     0.010 C 
HETATM   45  C   UNL     1      35.237  39.553  60.234  1.00  0.00     0.012 C 
HETATM   46  C   UNL     1      35.338  40.868  58.097  1.00  0.00     0.012 C 
ENDBRANCH  15  44
TORSDOF 7
ENDMDL
