MODEL 1
REMARK VINA RESULT:    -5.275      0.000      0.000
REMARK INTER + INTRA:          -6.577
REMARK INTER:                  -7.433
REMARK INTRA:                   0.856
REMARK UNBOUND:                 0.856
REMARK  7 active torsions:
REMARK  status: ('A' for Active; 'I' for Inactive)
REMARK    1  A    between atoms: C_13  and  C_14 
REMARK    2  A    between atoms: C_14  and  C_19 
REMARK    3  A    between atoms: C_15  and  C_20 
REMARK    4  A    between atoms: C_16  and  C_21 
REMARK    5  A    between atoms: C_17  and  C_23 
REMARK    6  A    between atoms: C_18  and  C_26 
REMARK    7  A    between atoms: C_22  and  C_28 
ROOT
HETATM    1  O   UNL     1      48.021  18.315  34.213  1.00  0.00    -0.304 OA
HETATM    2  O   UNL     1      51.832  18.594  30.651  1.00  0.00    -0.304 OA
HETATM    3  O   UNL     1      53.085  17.789  35.137  1.00  0.00    -0.304 OA
HETATM    4  O   UNL     1      49.301  20.266  31.654  1.00  0.00    -0.270 OA
HETATM    5  O   UNL     1      49.142  16.529  33.280  1.00  0.00    -0.263 OA
HETATM    6  O   UNL     1      50.140  19.790  34.437  1.00  0.00    -0.270 OA
HETATM    7  O   UNL     1      55.298  18.253  32.814  1.00  0.00    -0.270 OA
HETATM    8  O   UNL     1      52.891  18.264  28.639  1.00  0.00    -0.263 OA
HETATM    9  O   UNL     1      54.325  19.728  35.194  1.00  0.00    -0.263 OA
HETATM   10  N   UNL     1      48.870  18.103  30.929  1.00  0.00    -0.340 N 
HETATM   11  N   UNL     1      50.990  18.811  36.353  1.00  0.00    -0.340 N 
HETATM   12  N   UNL     1      53.488  17.012  32.043  1.00  0.00    -0.340 N 
HETATM   13  C   UNL     1      47.758  17.974  31.894  1.00  0.00     0.190 C 
HETATM   14  C   UNL     1      52.180  19.687  36.295  1.00  0.00     0.190 C 
HETATM   15  C   UNL     1      53.825  17.250  30.624  1.00  0.00     0.190 C 
HETATM   16  C   UNL     1      50.817  19.400  30.019  1.00  0.00     0.227 C 
HETATM   17  C   UNL     1      48.723  18.160  35.466  1.00  0.00     0.227 C 
HETATM   18  C   UNL     1      54.095  17.005  34.475  1.00  0.00     0.227 C 
HETATM   19  C   UNL     1      49.601  19.305  30.936  1.00  0.00     0.250 C 
HETATM   20  C   UNL     1      48.390  17.490  33.189  1.00  0.00     0.283 C 
HETATM   21  C   UNL     1      50.008  18.987  35.367  1.00  0.00     0.250 C 
HETATM   22  C   UNL     1      54.352  17.493  33.042  1.00  0.00     0.250 C 
HETATM   23  C   UNL     1      52.802  18.075  29.848  1.00  0.00     0.283 C 
HETATM   24  C   UNL     1      53.316  19.088  35.468  1.00  0.00     0.283 C 
HETATM   25  C   UNL     1      49.157  16.960  30.058  1.00  0.00     0.153 C 
HETATM   26  C   UNL     1      50.936  17.798  37.409  1.00  0.00     0.153 C 
HETATM   27  C   UNL     1      52.360  16.125  32.331  1.00  0.00     0.153 C 
ENDROOT
BRANCH  17  28
HETATM   28  C   UNL     1      47.811  18.712  36.553  1.00  0.00     0.016 C 
HETATM   29  C   UNL     1      46.431  19.038  35.984  1.00  0.00     0.012 C 
HETATM   30  C   UNL     1      47.692  17.722  37.711  1.00  0.00     0.012 C 
ENDBRANCH  17  28
BRANCH  13  31
HETATM   31  C   UNL     1      46.622  17.045  31.483  1.00  0.00     0.014 C 
HETATM   32  C   UNL     1      45.995  16.409  32.726  1.00  0.00     0.012 C 
BRANCH  31  33
HETATM   33  C   UNL     1      45.592  17.816  30.640  1.00  0.00     0.002 C 
HETATM   34  C   UNL     1      45.349  19.240  31.121  1.00  0.00     0.005 C 
ENDBRANCH  31  33
ENDBRANCH  13  31
BRANCH  14  35
HETATM   35  C   UNL     1      52.707  20.101  37.669  1.00  0.00     0.010 C 
HETATM   36  C   UNL     1      54.005  19.366  37.994  1.00  0.00     0.012 C 
HETATM   37  C   UNL     1      52.919  21.614  37.733  1.00  0.00     0.012 C 
ENDBRANCH  14  35
BRANCH  16  38
HETATM   38  C   UNL     1      51.329  20.833  29.906  1.00  0.00     0.016 C 
HETATM   39  C   UNL     1      51.676  21.170  28.457  1.00  0.00     0.012 C 
HETATM   40  C   UNL     1      52.543  21.044  30.810  1.00  0.00     0.012 C 
ENDBRANCH  16  38
BRANCH  18  41
HETATM   41  C   UNL     1      55.374  16.909  35.305  1.00  0.00     0.016 C 
HETATM   42  C   UNL     1      56.456  16.152  34.538  1.00  0.00     0.012 C 
HETATM   43  C   UNL     1      55.095  16.234  36.645  1.00  0.00     0.012 C 
ENDBRANCH  18  41
BRANCH  15  44
HETATM   44  C   UNL     1      54.119  15.938  29.895  1.00  0.00     0.010 C 
HETATM   45  C   UNL     1      55.435  16.036  29.128  1.00  0.00     0.012 C 
HETATM   46  C   UNL     1      52.972  15.582  28.954  1.00  0.00     0.012 C 
ENDBRANCH  15  44
TORSDOF 7
ENDMDL
MODEL 2
REMARK VINA RESULT:    -5.039      2.852      5.732
REMARK INTER + INTRA:          -6.244
REMARK INTER:                  -7.125
REMARK INTRA:                   0.881
REMARK UNBOUND:                 0.856
REMARK  7 active torsions:
REMARK  status: ('A' for Active; 'I' for Inactive)
REMARK    1  A    between atoms: C_13  and  C_14 
REMARK    2  A    between atoms: C_14  and  C_19 
REMARK    3  A    between atoms: C_15  and  C_20 
REMARK    4  A    between atoms: C_16  and  C_21 
REMARK    5  A    between atoms: C_17  and  C_23 
REMARK    6  A    between atoms: C_18  and  C_26 
REMARK    7  A    between atoms: C_22  and  C_28 
ROOT
HETATM    1  O   UNL     1      52.580  21.340  35.194  1.00  0.00    -0.304 OA
HETATM    2  O   UNL     1      51.473  18.360  31.048  1.00  0.00    -0.304 OA
HETATM    3  O   UNL     1      55.326  21.089  30.815  1.00  0.00    -0.304 OA
HETATM    4  O   UNL     1      50.069  20.498  32.961  1.00  0.00    -0.270 OA
HETATM    5  O   UNL     1      53.606  19.352  34.637  1.00  0.00    -0.263 OA
HETATM    6  O   UNL     1      52.465  22.199  32.751  1.00  0.00    -0.270 OA
HETATM    7  O   UNL     1      54.315  19.359  28.266  1.00  0.00    -0.270 OA
HETATM    8  O   UNL     1      50.795  16.496  29.889  1.00  0.00    -0.263 OA
HETATM    9  O   UNL     1      54.475  22.226  29.003  1.00  0.00    -0.263 OA
HETATM   10  N   UNL     1      50.935  18.615  34.004  1.00  0.00    -0.340 N 
HETATM   11  N   UNL     1      54.656  22.920  32.580  1.00  0.00    -0.340 N 
HETATM   12  N   UNL     1      54.031  18.198  30.262  1.00  0.00    -0.340 N 
HETATM   13  C   UNL     1      51.244  19.397  35.219  1.00  0.00     0.190 C 
HETATM   14  C   UNL     1      54.442  23.294  31.165  1.00  0.00     0.190 C 
HETATM   15  C   UNL     1      53.084  17.236  29.662  1.00  0.00     0.190 C 
HETATM   16  C   UNL     1      50.159  18.521  31.619  1.00  0.00     0.227 C 
HETATM   17  C   UNL     1      53.733  22.105  34.778  1.00  0.00     0.227 C 
HETATM   18  C   UNL     1      55.799  19.963  30.055  1.00  0.00     0.227 C 
HETATM   19  C   UNL     1      50.376  19.302  32.912  1.00  0.00     0.250 C 
HETATM   20  C   UNL     1      52.623  19.991  34.989  1.00  0.00     0.283 C 
HETATM   21  C   UNL     1      53.560  22.405  33.286  1.00  0.00     0.250 C 
HETATM   22  C   UNL     1      54.644  19.159  29.440  1.00  0.00     0.250 C 
HETATM   23  C   UNL     1      51.662  17.302  30.212  1.00  0.00     0.283 C 
HETATM   24  C   UNL     1      54.729  22.146  30.200  1.00  0.00     0.283 C 
HETATM   25  C   UNL     1      51.265  17.186  34.007  1.00  0.00     0.153 C 
HETATM   26  C   UNL     1      56.003  23.077  33.133  1.00  0.00     0.153 C 
HETATM   27  C   UNL     1      54.421  17.984  31.657  1.00  0.00     0.153 C 
ENDROOT
BRANCH  17  28
HETATM   28  C   UNL     1      53.723  23.392  35.590  1.00  0.00     0.016 C 
HETATM   29  C   UNL     1      52.515  24.253  35.222  1.00  0.00     0.012 C 
HETATM   30  C   UNL     1      53.727  23.086  37.087  1.00  0.00     0.012 C 
ENDBRANCH  17  28
BRANCH  13  31
HETATM   31  C   UNL     1      51.215  18.627  36.535  1.00  0.00     0.014 C 
HETATM   32  C   UNL     1      52.004  19.390  37.600  1.00  0.00     0.012 C 
BRANCH  31  33
HETATM   33  C   UNL     1      49.758  18.369  36.960  1.00  0.00     0.002 C 
HETATM   34  C   UNL     1      49.476  16.919  37.329  1.00  0.00     0.005 C 
ENDBRANCH  31  33
ENDBRANCH  13  31
BRANCH  14  35
HETATM   35  C   UNL     1      55.220  24.537  30.733  1.00  0.00     0.010 C 
HETATM   36  C   UNL     1      56.328  24.166  29.750  1.00  0.00     0.012 C 
HETATM   37  C   UNL     1      54.282  25.573  30.115  1.00  0.00     0.012 C 
ENDBRANCH  14  35
BRANCH  16  38
HETATM   38  C   UNL     1      49.289  19.294  30.632  1.00  0.00     0.016 C 
HETATM   39  C   UNL     1      48.146  18.418  30.121  1.00  0.00     0.012 C 
HETATM   40  C   UNL     1      50.127  19.814  29.465  1.00  0.00     0.012 C 
ENDBRANCH  16  38
BRANCH  18  41
HETATM   41  C   UNL     1      56.848  20.375  29.022  1.00  0.00     0.016 C 
HETATM   42  C   UNL     1      57.283  19.171  28.190  1.00  0.00     0.012 C 
HETATM   43  C   UNL     1      58.052  21.017  29.707  1.00  0.00     0.012 C 
ENDBRANCH  18  41
BRANCH  15  44
HETATM   44  C   UNL     1      53.622  15.806  29.738  1.00  0.00     0.010 C 
HETATM   45  C   UNL     1      55.145  15.813  29.845  1.00  0.00     0.012 C 
HETATM   46  C   UNL     1      53.171  15.001  28.523  1.00  0.00     0.012 C 
ENDBRANCH  15  44
TORSDOF 7
ENDMDL
MODEL 3
REMARK VINA RESULT:    -4.908     22.271     27.025
REMARK INTER + INTRA:          -6.060
REMARK INTER:                  -7.144
REMARK INTRA:                   1.084
REMARK UNBOUND:                 0.856
REMARK  7 active torsions:
REMARK  status: ('A' for Active; 'I' for Inactive)
REMARK    1  A    between atoms: C_13  and  C_14 
REMARK    2  A    between atoms: C_14  and  C_19 
REMARK    3  A    between atoms: C_15  and  C_20 
REMARK    4  A    between atoms: C_16  and  C_21 
REMARK    5  A    between atoms: C_17  and  C_23 
REMARK    6  A    between atoms: C_18  and  C_26 
REMARK    7  A    between atoms: C_22  and  C_28 
ROOT
HETATM    1  O   UNL     1      62.942  35.761  13.623  1.00  0.00    -0.304 OA
HETATM    2  O   UNL     1      60.343  31.815  11.393  1.00  0.00    -0.304 OA
HETATM    3  O   UNL     1      61.828  31.221  15.842  1.00  0.00    -0.304 OA
HETATM    4  O   UNL     1      62.830  33.735  10.815  1.00  0.00    -0.270 OA
HETATM    5  O   UNL     1      60.731  35.213  13.985  1.00  0.00    -0.263 OA
HETATM    6  O   UNL     1      63.755  33.301  13.578  1.00  0.00    -0.270 OA
HETATM    7  O   UNL     1      60.424  28.814  14.185  1.00  0.00    -0.270 OA
HETATM    8  O   UNL     1      58.738  30.776  10.120  1.00  0.00    -0.263 OA
HETATM    9  O   UNL     1      63.132  29.428  15.223  1.00  0.00    -0.263 OA
HETATM   10  N   UNL     1      60.793  34.789  11.175  1.00  0.00    -0.340 N 
HETATM   11  N   UNL     1      63.804  32.956  15.865  1.00  0.00    -0.340 N 
HETATM   12  N   UNL     1      59.430  30.867  13.729  1.00  0.00    -0.340 N 
HETATM   13  C   UNL     1      61.472  35.950  11.787  1.00  0.00     0.190 C 
HETATM   14  C   UNL     1      64.200  31.545  15.662  1.00  0.00     0.190 C 
HETATM   15  C   UNL     1      58.775  30.368  12.502  1.00  0.00     0.190 C 
HETATM   16  C   UNL     1      60.889  32.466  10.229  1.00  0.00     0.227 C 
HETATM   17  C   UNL     1      63.331  35.240  14.913  1.00  0.00     0.227 C 
HETATM   18  C   UNL     1      60.600  30.474  15.911  1.00  0.00     0.227 C 
HETATM   19  C   UNL     1      61.595  33.711  10.759  1.00  0.00     0.250 C 
HETATM   20  C   UNL     1      61.635  35.605  13.258  1.00  0.00     0.283 C 
HETATM   21  C   UNL     1      63.643  33.753  14.722  1.00  0.00     0.250 C 
HETATM   22  C   UNL     1      60.157  29.969  14.530  1.00  0.00     0.250 C 
HETATM   23  C   UNL     1      59.261  31.010  11.205  1.00  0.00     0.283 C 
HETATM   24  C   UNL     1      63.002  30.608  15.532  1.00  0.00     0.283 C 
HETATM   25  C   UNL     1      59.331  34.824  11.078  1.00  0.00     0.153 C 
HETATM   26  C   UNL     1      63.571  33.412  17.237  1.00  0.00     0.153 C 
HETATM   27  C   UNL     1      59.136  32.239  14.143  1.00  0.00     0.153 C 
ENDROOT
BRANCH  17  28
HETATM   28  C   UNL     1      64.578  36.001  15.337  1.00  0.00     0.016 C 
HETATM   29  C   UNL     1      65.237  36.671  14.132  1.00  0.00     0.012 C 
HETATM   30  C   UNL     1      64.240  37.038  16.407  1.00  0.00     0.012 C 
ENDBRANCH  17  28
BRANCH  13  31
HETATM   31  C   UNL     1      60.767  37.293  11.636  1.00  0.00     0.014 C 
HETATM   32  C   UNL     1      61.269  38.267  12.703  1.00  0.00     0.012 C 
BRANCH  31  33
HETATM   33  C   UNL     1      60.969  37.834  10.209  1.00  0.00     0.002 C 
HETATM   34  C   UNL     1      59.676  38.255   9.525  1.00  0.00     0.005 C 
ENDBRANCH  31  33
ENDBRANCH  13  31
BRANCH  14  35
HETATM   35  C   UNL     1      65.155  31.015  16.732  1.00  0.00     0.010 C 
HETATM   36  C   UNL     1      64.435  30.043  17.664  1.00  0.00     0.012 C 
HETATM   37  C   UNL     1      66.366  30.341  16.088  1.00  0.00     0.012 C 
ENDBRANCH  14  35
BRANCH  16  38
HETATM   38  C   UNL     1      61.865  31.511   9.547  1.00  0.00     0.016 C 
HETATM   39  C   UNL     1      61.313  31.047   8.200  1.00  0.00     0.012 C 
HETATM   40  C   UNL     1      62.162  30.311  10.446  1.00  0.00     0.012 C 
ENDBRANCH  16  38
BRANCH  18  41
HETATM   41  C   UNL     1      60.671  29.359  16.953  1.00  0.00     0.016 C 
HETATM   42  C   UNL     1      59.384  28.538  16.949  1.00  0.00     0.012 C 
HETATM   43  C   UNL     1      60.934  29.938  18.341  1.00  0.00     0.012 C 
ENDBRANCH  18  41
BRANCH  15  44
HETATM   44  C   UNL     1      57.252  30.462  12.608  1.00  0.00     0.010 C 
HETATM   45  C   UNL     1      56.749  31.744  11.951  1.00  0.00     0.012 C 
HETATM   46  C   UNL     1      56.813  30.396  14.067  1.00  0.00     0.012 C 
ENDBRANCH  15  44
TORSDOF 7
ENDMDL
MODEL 4
REMARK VINA RESULT:    -4.853     22.643     26.333
REMARK INTER + INTRA:          -5.983
REMARK INTER:                  -6.840
REMARK INTRA:                   0.857
REMARK UNBOUND:                 0.856
REMARK  7 active torsions:
REMARK  status: ('A' for Active; 'I' for Inactive)
REMARK    1  A    between atoms: C_13  and  C_14 
REMARK    2  A    between atoms: C_14  and  C_19 
REMARK    3  A    between atoms: C_15  and  C_20 
REMARK    4  A    between atoms: C_16  and  C_21 
REMARK    5  A    between atoms: C_17  and  C_23 
REMARK    6  A    between atoms: C_18  and  C_26 
REMARK    7  A    between atoms: C_22  and  C_28 
ROOT
HETATM    1  O   UNL     1      62.004  35.360  14.346  1.00  0.00    -0.304 OA
HETATM    2  O   UNL     1      63.792  31.403  17.250  1.00  0.00    -0.304 OA
HETATM    3  O   UNL     1      61.391  30.325  13.323  1.00  0.00    -0.304 OA
HETATM    4  O   UNL     1      62.083  34.083  17.564  1.00  0.00    -0.270 OA
HETATM    5  O   UNL     1      63.870  34.081  13.898  1.00  0.00    -0.263 OA
HETATM    6  O   UNL     1      60.570  33.354  15.144  1.00  0.00    -0.270 OA
HETATM    7  O   UNL     1      62.366  28.033  15.399  1.00  0.00    -0.270 OA
HETATM    8  O   UNL     1      65.260  30.225  18.568  1.00  0.00    -0.263 OA
HETATM    9  O   UNL     1      59.786  29.217  14.546  1.00  0.00    -0.263 OA
HETATM   10  N   UNL     1      64.224  34.337  16.707  1.00  0.00    -0.340 N 
HETATM   11  N   UNL     1      60.000  32.539  13.055  1.00  0.00    -0.340 N 
HETATM   12  N   UNL     1      63.953  29.719  15.170  1.00  0.00    -0.340 N 
HETATM   13  C   UNL     1      63.787  35.484  15.885  1.00  0.00     0.190 C 
HETATM   14  C   UNL     1      59.277  31.407  13.674  1.00  0.00     0.190 C 
HETATM   15  C   UNL     1      64.665  29.328  16.404  1.00  0.00     0.190 C 
HETATM   16  C   UNL     1      63.675  32.434  18.249  1.00  0.00     0.227 C 
HETATM   17  C   UNL     1      61.252  34.713  13.296  1.00  0.00     0.227 C 
HETATM   18  C   UNL     1      62.331  29.235  13.320  1.00  0.00     0.227 C 
HETATM   19  C   UNL     1      63.251  33.686  17.486  1.00  0.00     0.250 C 
HETATM   20  C   UNL     1      63.262  34.888  14.589  1.00  0.00     0.283 C 
HETATM   21  C   UNL     1      60.585  33.481  13.914  1.00  0.00     0.250 C 
HETATM   22  C   UNL     1      62.870  28.939  14.728  1.00  0.00     0.250 C 
HETATM   23  C   UNL     1      64.626  30.362  17.526  1.00  0.00     0.283 C 
HETATM   24  C   UNL     1      60.174  30.195  13.917  1.00  0.00     0.283 C 
HETATM   25  C   UNL     1      65.632  33.933  16.626  1.00  0.00     0.153 C 
HETATM   26  C   UNL     1      60.086  32.581  11.594  1.00  0.00     0.153 C 
HETATM   27  C   UNL     1      64.529  30.801  14.370  1.00  0.00     0.153 C 
ENDROOT
BRANCH  17  28
HETATM   28  C   UNL     1      60.204  35.711  12.825  1.00  0.00     0.016 C 
HETATM   29  C   UNL     1      60.419  37.071  13.488  1.00  0.00     0.012 C 
HETATM   30  C   UNL     1      60.234  35.847  11.304  1.00  0.00     0.012 C 
ENDBRANCH  17  28
BRANCH  13  31
HETATM   31  C   UNL     1      64.850  36.537  15.588  1.00  0.00     0.014 C 
HETATM   32  C   UNL     1      64.550  37.214  14.250  1.00  0.00     0.012 C 
BRANCH  31  33
HETATM   33  C   UNL     1      64.928  37.545  16.748  1.00  0.00     0.002 C 
HETATM   34  C   UNL     1      63.589  37.807  17.423  1.00  0.00     0.005 C 
ENDBRANCH  31  33
ENDBRANCH  13  31
BRANCH  14  35
HETATM   35  C   UNL     1      58.030  30.978  12.901  1.00  0.00     0.010 C 
HETATM   36  C   UNL     1      58.335  29.780  12.005  1.00  0.00     0.012 C 
HETATM   37  C   UNL     1      56.887  30.649  13.861  1.00  0.00     0.012 C 
ENDBRANCH  14  35
BRANCH  16  38
HETATM   38  C   UNL     1      62.621  32.011  19.269  1.00  0.00     0.016 C 
HETATM   39  C   UNL     1      63.266  31.716  20.622  1.00  0.00     0.012 C 
HETATM   40  C   UNL     1      61.846  30.792  18.769  1.00  0.00     0.012 C 
ENDBRANCH  16  38
BRANCH  18  41
HETATM   41  C   UNL     1      61.762  27.995  12.633  1.00  0.00     0.016 C 
HETATM   42  C   UNL     1      62.780  26.857  12.650  1.00  0.00     0.012 C 
HETATM   43  C   UNL     1      61.345  28.320  11.200  1.00  0.00     0.012 C 
ENDBRANCH  18  41
BRANCH  15  44
HETATM   44  C   UNL     1      66.107  28.914  16.106  1.00  0.00     0.010 C 
HETATM   45  C   UNL     1      66.442  27.602  16.810  1.00  0.00     0.012 C 
HETATM   46  C   UNL     1      67.076  30.015  16.528  1.00  0.00     0.012 C 
ENDBRANCH  15  44
TORSDOF 7
ENDMDL
MODEL 5
REMARK VINA RESULT:    -4.808     24.070     28.695
REMARK INTER + INTRA:          -5.919
REMARK INTER:                  -6.747
REMARK INTRA:                   0.828
REMARK UNBOUND:                 0.856
REMARK  7 active torsions:
REMARK  status: ('A' for Active; 'I' for Inactive)
REMARK    1  A    between atoms: C_13  and  C_14 
REMARK    2  A    between atoms: C_14  and  C_19 
REMARK    3  A    between atoms: C_15  and  C_20 
REMARK    4  A    between atoms: C_16  and  C_21 
REMARK    5  A    between atoms: C_17  and  C_23 
REMARK    6  A    between atoms: C_18  and  C_26 
REMARK    7  A    between atoms: C_22  and  C_28 
ROOT
HETATM    1  O   UNL     1      63.491  38.258  14.878  1.00  0.00    -0.304 OA
HETATM    2  O   UNL     1      61.898  34.992  11.126  1.00  0.00    -0.304 OA
HETATM    3  O   UNL     1      61.890  33.387  15.572  1.00  0.00    -0.304 OA
HETATM    4  O   UNL     1      64.365  36.900  11.815  1.00  0.00    -0.270 OA
HETATM    5  O   UNL     1      61.304  37.725  14.380  1.00  0.00    -0.263 OA
HETATM    6  O   UNL     1      64.366  35.839  14.563  1.00  0.00    -0.270 OA
HETATM    7  O   UNL     1      61.185  31.452  13.068  1.00  0.00    -0.270 OA
HETATM    8  O   UNL     1      60.829  34.314   9.208  1.00  0.00    -0.263 OA
HETATM    9  O   UNL     1      63.390  31.726  15.031  1.00  0.00    -0.263 OA
HETATM   10  N   UNL     1      62.284  37.923  11.719  1.00  0.00    -0.340 N 
HETATM   11  N   UNL     1      63.687  35.001  16.609  1.00  0.00    -0.340 N 
HETATM   12  N   UNL     1      60.316  33.589  12.775  1.00  0.00    -0.340 N 
HETATM   13  C   UNL     1      62.686  38.896  12.755  1.00  0.00     0.190 C 
HETATM   14  C   UNL     1      64.179  33.656  16.243  1.00  0.00     0.190 C 
HETATM   15  C   UNL     1      60.111  33.395  11.325  1.00  0.00     0.190 C 
HETATM   16  C   UNL     1      62.765  35.860  10.371  1.00  0.00     0.227 C 
HETATM   17  C   UNL     1      63.462  37.455  16.078  1.00  0.00     0.227 C 
HETATM   18  C   UNL     1      60.733  32.688  15.077  1.00  0.00     0.227 C 
HETATM   19  C   UNL     1      63.216  36.933  11.359  1.00  0.00     0.250 C 
HETATM   20  C   UNL     1      62.378  38.233  14.087  1.00  0.00     0.283 C 
HETATM   21  C   UNL     1      63.874  36.035  15.679  1.00  0.00     0.250 C 
HETATM   22  C   UNL     1      60.778  32.513  13.552  1.00  0.00     0.250 C 
HETATM   23  C   UNL     1      60.965  34.286  10.428  1.00  0.00     0.283 C 
HETATM   24  C   UNL     1      63.123  32.813  15.532  1.00  0.00     0.283 C 
HETATM   25  C   UNL     1      60.931  38.031  11.165  1.00  0.00     0.153 C 
HETATM   26  C   UNL     1      63.008  35.155  17.898  1.00  0.00     0.153 C 
HETATM   27  C   UNL     1      59.854  34.848  13.362  1.00  0.00     0.153 C 
ENDROOT
BRANCH  17  28
HETATM   28  C   UNL     1      64.478  38.059  17.038  1.00  0.00     0.016 C 
HETATM   29  C   UNL     1      65.473  38.940  16.285  1.00  0.00     0.012 C 
HETATM   30  C   UNL     1      63.775  38.860  18.133  1.00  0.00     0.012 C 
ENDBRANCH  17  28
BRANCH  13  31
HETATM   31  C   UNL     1      62.018  40.265  12.681  1.00  0.00     0.014 C 
HETATM   32  C   UNL     1      62.127  40.970  14.034  1.00  0.00     0.012 C 
BRANCH  31  33
HETATM   33  C   UNL     1      62.638  41.091  11.540  1.00  0.00     0.002 C 
HETATM   34  C   UNL     1      62.351  42.582  11.639  1.00  0.00     0.005 C 
ENDBRANCH  31  33
ENDBRANCH  13  31
BRANCH  14  35
HETATM   35  C   UNL     1      64.757  32.871  17.420  1.00  0.00     0.010 C 
HETATM   36  C   UNL     1      63.855  31.692  17.778  1.00  0.00     0.012 C 
HETATM   37  C   UNL     1      66.171  32.384  17.103  1.00  0.00     0.012 C 
ENDBRANCH  14  35
BRANCH  16  38
HETATM   38  C   UNL     1      63.944  35.042   9.850  1.00  0.00     0.016 C 
HETATM   39  C   UNL     1      63.877  34.909   8.329  1.00  0.00     0.012 C 
HETATM   40  C   UNL     1      63.976  33.663  10.507  1.00  0.00     0.012 C 
ENDBRANCH  16  38
BRANCH  18  41
HETATM   41  C   UNL     1      60.506  31.370  15.816  1.00  0.00     0.016 C 
HETATM   42  C   UNL     1      59.213  30.707  15.347  1.00  0.00     0.012 C 
HETATM   43  C   UNL     1      60.474  31.600  17.325  1.00  0.00     0.012 C 
ENDBRANCH  18  41
BRANCH  15  44
HETATM   44  C   UNL     1      58.633  33.519  10.952  1.00  0.00     0.010 C 
HETATM   45  C   UNL     1      58.141  34.945  11.184  1.00  0.00     0.012 C 
HETATM   46  C   UNL     1      57.796  32.523  11.749  1.00  0.00     0.012 C 
ENDBRANCH  15  44
TORSDOF 7
ENDMDL
MODEL 6
REMARK VINA RESULT:    -4.701      3.078      6.810
REMARK INTER + INTRA:          -5.768
REMARK INTER:                  -6.420
REMARK INTRA:                   0.652
REMARK UNBOUND:                 0.856
REMARK  7 active torsions:
REMARK  status: ('A' for Active; 'I' for Inactive)
REMARK    1  A    between atoms: C_13  and  C_14 
REMARK    2  A    between atoms: C_14  and  C_19 
REMARK    3  A    between atoms: C_15  and  C_20 
REMARK    4  A    between atoms: C_16  and  C_21 
REMARK    5  A    between atoms: C_17  and  C_23 
REMARK    6  A    between atoms: C_18  and  C_26 
REMARK    7  A    between atoms: C_22  and  C_28 
ROOT
HETATM    1  O   UNL     1      55.620  22.131  30.449  1.00  0.00    -0.304 OA
HETATM    2  O   UNL     1      52.813  17.729  30.631  1.00  0.00    -0.304 OA
HETATM    3  O   UNL     1      56.125  18.350  33.946  1.00  0.00    -0.304 OA
HETATM    4  O   UNL     1      54.558  19.427  28.563  1.00  0.00    -0.270 OA
HETATM    5  O   UNL     1      53.864  21.698  31.880  1.00  0.00    -0.263 OA
HETATM    6  O   UNL     1      56.626  19.750  30.636  1.00  0.00    -0.270 OA
HETATM    7  O   UNL     1      54.448  15.585  33.720  1.00  0.00    -0.270 OA
HETATM    8  O   UNL     1      50.955  16.384  30.498  1.00  0.00    -0.263 OA
HETATM    9  O   UNL     1      57.243  16.459  33.259  1.00  0.00    -0.263 OA
HETATM   10  N   UNL     1      52.763  20.536  29.530  1.00  0.00    -0.340 N 
HETATM   11  N   UNL     1      57.694  20.030  32.669  1.00  0.00    -0.340 N 
HETATM   12  N   UNL     1      53.114  17.440  33.279  1.00  0.00    -0.340 N 
HETATM   13  C   UNL     1      53.494  21.819  29.477  1.00  0.00     0.190 C 
HETATM   14  C   UNL     1      58.131  18.618  32.655  1.00  0.00     0.190 C 
HETATM   15  C   UNL     1      52.061  16.630  32.633  1.00  0.00     0.190 C 
HETATM   16  C   UNL     1      52.722  18.044  29.228  1.00  0.00     0.227 C 
HETATM   17  C   UNL     1      56.585  21.976  31.512  1.00  0.00     0.227 C 
HETATM   18  C   UNL     1      55.146  17.648  34.733  1.00  0.00     0.227 C 
HETATM   19  C   UNL     1      53.432  19.387  29.072  1.00  0.00     0.250 C 
HETATM   20  C   UNL     1      54.313  21.882  30.756  1.00  0.00     0.283 C 
HETATM   21  C   UNL     1      56.963  20.493  31.565  1.00  0.00     0.250 C 
HETATM   22  C   UNL     1      54.217  16.790  33.861  1.00  0.00     0.250 C 
HETATM   23  C   UNL     1      51.862  16.901  31.144  1.00  0.00     0.283 C 
HETATM   24  C   UNL     1      57.117  17.678  33.302  1.00  0.00     0.283 C 
HETATM   25  C   UNL     1      51.408  20.542  30.091  1.00  0.00     0.153 C 
HETATM   26  C   UNL     1      58.020  20.837  33.847  1.00  0.00     0.153 C 
HETATM   27  C   UNL     1      52.863  18.873  33.440  1.00  0.00     0.153 C 
ENDROOT
BRANCH  17  28
HETATM   28  C   UNL     1      57.792  22.824  31.139  1.00  0.00     0.016 C 
HETATM   29  C   UNL     1      57.814  23.100  29.636  1.00  0.00     0.012 C 
HETATM   30  C   UNL     1      57.794  24.136  31.924  1.00  0.00     0.012 C 
ENDBRANCH  17  28
BRANCH  13  31
HETATM   31  C   UNL     1      52.635  23.072  29.340  1.00  0.00     0.014 C 
HETATM   32  C   UNL     1      53.392  24.283  29.888  1.00  0.00     0.012 C 
BRANCH  31  33
HETATM   33  C   UNL     1      52.214  23.262  27.872  1.00  0.00     0.002 C 
HETATM   34  C   UNL     1      51.825  24.692  27.527  1.00  0.00     0.005 C 
ENDBRANCH  31  33
ENDBRANCH  13  31
BRANCH  14  35
HETATM   35  C   UNL     1      59.510  18.395  33.278  1.00  0.00     0.010 C 
HETATM   36  C   UNL     1      59.390  17.632  34.595  1.00  0.00     0.012 C 
HETATM   37  C   UNL     1      60.426  17.648  32.309  1.00  0.00     0.012 C 
ENDBRANCH  14  35
BRANCH  16  38
HETATM   38  C   UNL     1      53.418  16.943  28.433  1.00  0.00     0.016 C 
HETATM   39  C   UNL     1      52.395  16.083  27.693  1.00  0.00     0.012 C 
HETATM   40  C   UNL     1      54.280  16.078  29.351  1.00  0.00     0.012 C 
ENDBRANCH  16  38
BRANCH  18  41
HETATM   41  C   UNL     1      55.792  16.853  35.866  1.00  0.00     0.016 C 
HETATM   42  C   UNL     1      54.734  16.080  36.650  1.00  0.00     0.012 C 
HETATM   43  C   UNL     1      56.576  17.780  36.793  1.00  0.00     0.012 C 
ENDBRANCH  18  41
BRANCH  15  44
HETATM   44  C   UNL     1      50.732  16.747  33.381  1.00  0.00     0.010 C 
HETATM   45  C   UNL     1      50.127  15.365  33.616  1.00  0.00     0.012 C 
HETATM   46  C   UNL     1      49.762  17.636  32.610  1.00  0.00     0.012 C 
ENDBRANCH  15  44
TORSDOF 7
ENDMDL
MODEL 7
REMARK VINA RESULT:    -4.698     21.650     26.544
REMARK INTER + INTRA:          -5.764
REMARK INTER:                  -6.851
REMARK INTRA:                   1.087
REMARK UNBOUND:                 0.856
REMARK  7 active torsions:
REMARK  status: ('A' for Active; 'I' for Inactive)
REMARK    1  A    between atoms: C_13  and  C_14 
REMARK    2  A    between atoms: C_14  and  C_19 
REMARK    3  A    between atoms: C_15  and  C_20 
REMARK    4  A    between atoms: C_16  and  C_21 
REMARK    5  A    between atoms: C_17  and  C_23 
REMARK    6  A    between atoms: C_18  and  C_26 
REMARK    7  A    between atoms: C_22  and  C_28 
ROOT
HETATM    1  O   UNL     1      62.267  35.331  14.535  1.00  0.00    -0.304 OA
HETATM    2  O   UNL     1      62.423  30.496  16.508  1.00  0.00    -0.304 OA
HETATM    3  O   UNL     1      60.890  30.997  12.065  1.00  0.00    -0.304 OA
HETATM    4  O   UNL     1      61.284  33.392  17.232  1.00  0.00    -0.270 OA
HETATM    5  O   UNL     1      63.877  33.738  14.103  1.00  0.00    -0.263 OA
HETATM    6  O   UNL     1      60.296  33.649  14.469  1.00  0.00    -0.270 OA
HETATM    7  O   UNL     1      60.827  28.126  13.568  1.00  0.00    -0.270 OA
HETATM    8  O   UNL     1      63.244  28.709  17.695  1.00  0.00    -0.263 OA
HETATM    9  O   UNL     1      58.840  30.108  12.616  1.00  0.00    -0.263 OA
HETATM   10  N   UNL     1      63.576  33.256  16.888  1.00  0.00    -0.340 N 
HETATM   11  N   UNL     1      60.099  33.503  12.169  1.00  0.00    -0.340 N 
HETATM   12  N   UNL     1      62.736  29.339  14.110  1.00  0.00    -0.340 N 
HETATM   13  C   UNL     1      63.602  34.632  16.349  1.00  0.00     0.190 C 
HETATM   14  C   UNL     1      59.028  32.493  12.306  1.00  0.00     0.190 C 
HETATM   15  C   UNL     1      63.026  28.508  15.297  1.00  0.00     0.190 C 
HETATM   16  C   UNL     1      62.281  31.271  17.715  1.00  0.00     0.227 C 
HETATM   17  C   UNL     1      61.677  35.157  13.228  1.00  0.00     0.227 C 
HETATM   18  C   UNL     1      61.555  29.727  11.934  1.00  0.00     0.227 C 
HETATM   19  C   UNL     1      62.327  32.728  17.263  1.00  0.00     0.250 C 
HETATM   20  C   UNL     1      63.300  34.501  14.866  1.00  0.00     0.283 C 
HETATM   21  C   UNL     1      60.638  34.039  13.347  1.00  0.00     0.250 C 
HETATM   22  C   UNL     1      61.658  28.992  13.278  1.00  0.00     0.250 C 
HETATM   23  C   UNL     1      62.928  29.238  16.634  1.00  0.00     0.283 C 
HETATM   24  C   UNL     1      59.565  31.065  12.365  1.00  0.00     0.283 C 
HETATM   25  C   UNL     1      64.844  32.524  16.959  1.00  0.00     0.153 C 
HETATM   26  C   UNL     1      60.548  33.846  10.818  1.00  0.00     0.153 C 
HETATM   27  C   UNL     1      63.703  30.381  13.761  1.00  0.00     0.153 C 
ENDROOT
BRANCH  17  28
HETATM   28  C   UNL     1      61.009  36.476  12.867  1.00  0.00     0.016 C 
HETATM   29  C   UNL     1      61.201  37.501  13.984  1.00  0.00     0.012 C 
HETATM   30  C   UNL     1      61.555  37.014  11.546  1.00  0.00     0.012 C 
ENDBRANCH  17  28
BRANCH  13  31
HETATM   31  C   UNL     1      64.900  35.405  16.556  1.00  0.00     0.014 C 
HETATM   32  C   UNL     1      65.105  36.392  15.406  1.00  0.00     0.012 C 
BRANCH  31  33
HETATM   33  C   UNL     1      64.882  36.103  17.928  1.00  0.00     0.002 C 
HETATM   34  C   UNL     1      63.499  36.569  18.360  1.00  0.00     0.005 C 
ENDBRANCH  31  33
ENDBRANCH  13  31
BRANCH  14  35
HETATM   35  C   UNL     1      57.947  32.592  11.229  1.00  0.00     0.010 C 
HETATM   36  C   UNL     1      56.726  31.758  11.611  1.00  0.00     0.012 C 
HETATM   37  C   UNL     1      57.548  34.049  10.997  1.00  0.00     0.012 C 
ENDBRANCH  14  35
BRANCH  16  38
HETATM   38  C   UNL     1      60.944  30.924  18.365  1.00  0.00     0.016 C 
HETATM   39  C   UNL     1      61.161  30.285  19.736  1.00  0.00     0.012 C 
HETATM   40  C   UNL     1      60.132  29.996  17.465  1.00  0.00     0.012 C 
ENDBRANCH  16  38
BRANCH  18  41
HETATM   41  C   UNL     1      60.927  28.868  10.837  1.00  0.00     0.016 C 
HETATM   42  C   UNL     1      61.813  27.665  10.524  1.00  0.00     0.012 C 
HETATM   43  C   UNL     1      60.684  29.698   9.578  1.00  0.00     0.012 C 
ENDBRANCH  18  41
BRANCH  15  44
HETATM   44  C   UNL     1      64.378  27.806  15.167  1.00  0.00     0.010 C 
HETATM   45  C   UNL     1      64.251  26.330  15.536  1.00  0.00     0.012 C 
HETATM   46  C   UNL     1      65.422  28.493  16.042  1.00  0.00     0.012 C 
ENDBRANCH  15  44
TORSDOF 7
ENDMDL
MODEL 8
REMARK VINA RESULT:    -4.663      1.661      2.031
REMARK INTER + INTRA:          -5.715
REMARK INTER:                  -6.569
REMARK INTRA:                   0.855
REMARK UNBOUND:                 0.856
REMARK  7 active torsions:
REMARK  status: ('A' for Active; 'I' for Inactive)
REMARK    1  A    between atoms: C_13  and  C_14 
REMARK    2  A    between atoms: C_14  and  C_19 
REMARK    3  A    between atoms: C_15  and  C_20 
REMARK    4  A    between atoms: C_16  and  C_21 
REMARK    5  A    between atoms: C_17  and  C_23 
REMARK    6  A    between atoms: C_18  and  C_26 
REMARK    7  A    between atoms: C_22  and  C_28 
ROOT
HETATM    1  O   UNL     1      49.561  17.894  33.380  1.00  0.00    -0.304 OA
HETATM    2  O   UNL     1      53.489  19.423  30.293  1.00  0.00    -0.304 OA
HETATM    3  O   UNL     1      54.606  17.303  34.368  1.00  0.00    -0.304 OA
HETATM    4  O   UNL     1      50.834  20.596  31.627  1.00  0.00    -0.270 OA
HETATM    5  O   UNL     1      50.813  16.535  32.000  1.00  0.00    -0.263 OA
HETATM    6  O   UNL     1      51.587  19.306  34.165  1.00  0.00    -0.270 OA
HETATM    7  O   UNL     1      56.881  18.556  32.428  1.00  0.00    -0.270 OA
HETATM    8  O   UNL     1      54.644  19.780  28.339  1.00  0.00    -0.263 OA
HETATM    9  O   UNL     1      55.737  19.173  35.092  1.00  0.00    -0.263 OA
HETATM   10  N   UNL     1      50.549  18.754  30.244  1.00  0.00    -0.340 N 
HETATM   11  N   UNL     1      52.412  17.811  35.726  1.00  0.00    -0.340 N 
HETATM   12  N   UNL     1      55.172  17.549  31.213  1.00  0.00    -0.340 N 
HETATM   13  C   UNL     1      49.409  18.286  31.059  1.00  0.00     0.190 C 
HETATM   14  C   UNL     1      53.555  18.706  36.008  1.00  0.00     0.190 C 
HETATM   15  C   UNL     1      55.552  18.233  29.958  1.00  0.00     0.190 C 
HETATM   16  C   UNL     1      52.458  20.345  29.888  1.00  0.00     0.227 C 
HETATM   17  C   UNL     1      50.221  17.382  34.559  1.00  0.00     0.227 C 
HETATM   18  C   UNL     1      55.682  16.805  33.551  1.00  0.00     0.227 C 
HETATM   19  C   UNL     1      51.214  19.921  30.663  1.00  0.00     0.250 C 
HETATM   20  C   UNL     1      50.014  17.446  32.171  1.00  0.00     0.283 C 
HETATM   21  C   UNL     1      51.462  18.248  34.792  1.00  0.00     0.250 C 
HETATM   22  C   UNL     1      55.969  17.727  32.357  1.00  0.00     0.250 C 
HETATM   23  C   UNL     1      54.517  19.219  29.423  1.00  0.00     0.283 C 
HETATM   24  C   UNL     1      54.753  18.441  35.099  1.00  0.00     0.283 C 
HETATM   25  C   UNL     1      50.932  17.953  29.077  1.00  0.00     0.153 C 
HETATM   26  C   UNL     1      52.371  16.516  36.410  1.00  0.00     0.153 C 
HETATM   27  C   UNL     1      54.083  16.574  31.149  1.00  0.00     0.153 C 
ENDROOT
BRANCH  17  28
HETATM   28  C   UNL     1      49.238  17.530  35.712  1.00  0.00     0.016 C 
HETATM   29  C   UNL     1      48.483  18.854  35.611  1.00  0.00     0.012 C 
HETATM   30  C   UNL     1      48.259  16.357  35.740  1.00  0.00     0.012 C 
ENDBRANCH  17  28
BRANCH  13  31
HETATM   31  C   UNL     1      48.342  17.489  30.318  1.00  0.00     0.014 C 
HETATM   32  C   UNL     1      47.681  16.493  31.273  1.00  0.00     0.012 C 
BRANCH  31  33
HETATM   33  C   UNL     1      47.322  18.446  29.676  1.00  0.00     0.002 C 
HETATM   34  C   UNL     1      47.401  19.871  30.207  1.00  0.00     0.005 C 
ENDBRANCH  31  33
ENDBRANCH  13  31
BRANCH  14  35
HETATM   35  C   UNL     1      54.003  18.690  37.469  1.00  0.00     0.010 C 
HETATM   36  C   UNL     1      55.288  17.880  37.631  1.00  0.00     0.012 C 
HETATM   37  C   UNL     1      54.200  20.113  37.990  1.00  0.00     0.012 C 
ENDBRANCH  14  35
BRANCH  16  38
HETATM   38  C   UNL     1      52.897  21.760  30.255  1.00  0.00     0.016 C 
HETATM   39  C   UNL     1      53.134  22.595  28.998  1.00  0.00     0.012 C 
HETATM   40  C   UNL     1      54.155  21.728  31.121  1.00  0.00     0.012 C 
ENDBRANCH  16  38
BRANCH  18  41
HETATM   41  C   UNL     1      56.931  16.504  34.379  1.00  0.00     0.016 C 
HETATM   42  C   UNL     1      58.100  16.134  33.469  1.00  0.00     0.012 C 
HETATM   43  C   UNL     1      56.654  15.385  35.380  1.00  0.00     0.012 C 
ENDBRANCH  18  41
BRANCH  15  44
HETATM   44  C   UNL     1      55.945  17.228  28.875  1.00  0.00     0.010 C 
HETATM   45  C   UNL     1      54.740  16.383  28.467  1.00  0.00     0.012 C 
HETATM   46  C   UNL     1      57.087  16.340  29.359  1.00  0.00     0.012 C 
ENDBRANCH  15  44
TORSDOF 7
ENDMDL
MODEL 9
REMARK VINA RESULT:    -4.614     22.040     26.589
REMARK INTER + INTRA:          -5.646
REMARK INTER:                  -6.318
REMARK INTRA:                   0.672
REMARK UNBOUND:                 0.856
REMARK  7 active torsions:
REMARK  status: ('A' for Active; 'I' for Inactive)
REMARK    1  A    between atoms: C_13  and  C_14 
REMARK    2  A    between atoms: C_14  and  C_19 
REMARK    3  A    between atoms: C_15  and  C_20 
REMARK    4  A    between atoms: C_16  and  C_21 
REMARK    5  A    between atoms: C_17  and  C_23 
REMARK    6  A    between atoms: C_18  and  C_26 
REMARK    7  A    between atoms: C_22  and  C_28 
ROOT
HETATM    1  O   UNL     1      61.345  35.457  12.667  1.00  0.00    -0.304 OA
HETATM    2  O   UNL     1      62.072  30.594  14.433  1.00  0.00    -0.304 OA
HETATM    3  O   UNL     1      63.658  34.154  17.108  1.00  0.00    -0.304 OA
HETATM    4  O   UNL     1      62.579  32.338  11.805  1.00  0.00    -0.270 OA
HETATM    5  O   UNL     1      60.103  34.405  14.301  1.00  0.00    -0.263 OA
HETATM    6  O   UNL     1      63.612  34.516  13.498  1.00  0.00    -0.270 OA
HETATM    7  O   UNL     1      64.229  31.060  17.889  1.00  0.00    -0.270 OA
HETATM    8  O   UNL     1      61.574  28.396  14.877  1.00  0.00    -0.263 OA
HETATM    9  O   UNL     1      65.820  33.378  16.951  1.00  0.00    -0.263 OA
HETATM   10  N   UNL     1      60.377  32.202  12.526  1.00  0.00    -0.340 N 
HETATM   11  N   UNL     1      63.930  35.993  15.249  1.00  0.00    -0.340 N 
HETATM   12  N   UNL     1      62.096  31.346  17.007  1.00  0.00    -0.340 N 
HETATM   13  C   UNL     1      60.100  33.561  12.018  1.00  0.00     0.190 C 
HETATM   14  C   UNL     1      65.174  35.295  15.637  1.00  0.00     0.190 C 
HETATM   15  C   UNL     1      61.928  29.903  16.732  1.00  0.00     0.190 C 
HETATM   16  C   UNL     1      62.006  30.354  13.014  1.00  0.00     0.227 C 
HETATM   17  C   UNL     1      62.011  36.288  13.643  1.00  0.00     0.227 C 
HETATM   18  C   UNL     1      63.266  33.244  18.152  1.00  0.00     0.227 C 
HETATM   19  C   UNL     1      61.689  31.712  12.392  1.00  0.00     0.250 C 
HETATM   20  C   UNL     1      60.484  34.509  13.142  1.00  0.00     0.283 C 
HETATM   21  C   UNL     1      63.246  35.519  14.121  1.00  0.00     0.250 C 
HETATM   22  C   UNL     1      63.255  31.786  17.668  1.00  0.00     0.250 C 
HETATM   23  C   UNL     1      61.822  29.537  15.254  1.00  0.00     0.283 C 
HETATM   24  C   UNL     1      64.930  34.156  16.625  1.00  0.00     0.283 C 
HETATM   25  C   UNL     1      59.278  31.472  13.166  1.00  0.00     0.153 C 
HETATM   26  C   UNL     1      63.478  37.106  16.089  1.00  0.00     0.153 C 
HETATM   27  C   UNL     1      60.956  32.223  16.736  1.00  0.00     0.153 C 
ENDROOT
BRANCH  17  28
HETATM   28  C   UNL     1      62.418  37.567  12.927  1.00  0.00     0.016 C 
HETATM   29  C   UNL     1      62.264  37.412  11.415  1.00  0.00     0.012 C 
HETATM   30  C   UNL     1      61.595  38.752  13.430  1.00  0.00     0.012 C 
ENDBRANCH  17  28
BRANCH  13  31
HETATM   31  C   UNL     1      58.667  33.828  11.571  1.00  0.00     0.014 C 
HETATM   32  C   UNL     1      58.394  35.333  11.572  1.00  0.00     0.012 C 
BRANCH  31  33
HETATM   33  C   UNL     1      58.420  33.191  10.192  1.00  0.00     0.002 C 
HETATM   34  C   UNL     1      58.543  34.170   9.034  1.00  0.00     0.005 C 
ENDBRANCH  31  33
ENDBRANCH  13  31
BRANCH  14  35
HETATM   35  C   UNL     1      66.257  36.225  16.183  1.00  0.00     0.010 C 
HETATM   36  C   UNL     1      66.443  36.016  17.684  1.00  0.00     0.012 C 
HETATM   37  C   UNL     1      67.579  36.007  15.446  1.00  0.00     0.012 C 
ENDBRANCH  14  35
BRANCH  16  38
HETATM   38  C   UNL     1      63.356  29.820  12.544  1.00  0.00     0.016 C 
HETATM   39  C   UNL     1      63.237  28.360  12.110  1.00  0.00     0.012 C 
HETATM   40  C   UNL     1      64.406  29.967  13.644  1.00  0.00     0.012 C 
ENDBRANCH  16  38
BRANCH  18  41
HETATM   41  C   UNL     1      64.098  33.439  19.419  1.00  0.00     0.016 C 
HETATM   42  C   UNL     1      63.680  32.439  20.494  1.00  0.00     0.012 C 
HETATM   43  C   UNL     1      63.963  34.870  19.934  1.00  0.00     0.012 C 
ENDBRANCH  18  41
BRANCH  15  44
HETATM   44  C   UNL     1      60.749  29.322  17.514  1.00  0.00     0.010 C 
HETATM   45  C   UNL     1      61.178  28.071  18.275  1.00  0.00     0.012 C 
HETATM   46  C   UNL     1      59.587  29.011  16.575  1.00  0.00     0.012 C 
ENDBRANCH  15  44
TORSDOF 7
ENDMDL
MODEL 10
REMARK VINA RESULT:    -4.574      6.584      9.764
REMARK INTER + INTRA:          -5.589
REMARK INTER:                  -6.288
REMARK INTRA:                   0.699
REMARK UNBOUND:                 0.856
REMARK  7 active torsions:
REMARK  status: ('A' for Active; 'I' for Inactive)
REMARK    1  A    between atoms: C_13  and  C_14 
REMARK    2  A    between atoms: C_14  and  C_19 
REMARK    3  A    between atoms: C_15  and  C_20 
REMARK    4  A    between atoms: C_16  and  C_21 
REMARK    5  A    between atoms: C_17  and  C_23 
REMARK    6  A    between atoms: C_18  and  C_26 
REMARK    7  A    between atoms: C_22  and  C_28 
ROOT
HETATM    1  O   UNL     1      53.177  23.921  30.860  1.00  0.00    -0.304 OA
HETATM    2  O   UNL     1      53.026  28.359  33.612  1.00  0.00    -0.304 OA
HETATM    3  O   UNL     1      55.564  24.780  35.370  1.00  0.00    -0.304 OA
HETATM    4  O   UNL     1      51.038  26.276  32.230  1.00  0.00    -0.270 OA
HETATM    5  O   UNL     1      54.837  25.519  30.953  1.00  0.00    -0.263 OA
HETATM    6  O   UNL     1      52.611  24.069  33.385  1.00  0.00    -0.270 OA
HETATM    7  O   UNL     1      55.127  27.527  37.034  1.00  0.00    -0.270 OA
HETATM    8  O   UNL     1      53.026  30.624  33.998  1.00  0.00    -0.263 OA
HETATM    9  O   UNL     1      54.249  24.705  37.258  1.00  0.00    -0.263 OA
HETATM   10  N   UNL     1      52.601  27.270  30.832  1.00  0.00    -0.340 N 
HETATM   11  N   UNL     1      54.363  22.775  34.165  1.00  0.00    -0.340 N 
HETATM   12  N   UNL     1      55.411  27.933  34.761  1.00  0.00    -0.340 N 
HETATM   13  C   UNL     1      52.665  26.055  29.995  1.00  0.00     0.190 C 
HETATM   14  C   UNL     1      53.944  23.018  35.562  1.00  0.00     0.190 C 
HETATM   15  C   UNL     1      54.858  29.300  34.853  1.00  0.00     0.190 C 
HETATM   16  C   UNL     1      51.782  28.451  32.891  1.00  0.00     0.227 C 
HETATM   17  C   UNL     1      53.936  23.018  31.693  1.00  0.00     0.227 C 
HETATM   18  C   UNL     1      56.379  25.877  35.819  1.00  0.00     0.227 C 
HETATM   19  C   UNL     1      51.765  27.239  31.963  1.00  0.00     0.250 C 
HETATM   20  C   UNL     1      53.708  25.160  30.644  1.00  0.00     0.283 C 
HETATM   21  C   UNL     1      53.579  23.338  33.147  1.00  0.00     0.250 C 
HETATM   22  C   UNL     1      55.574  27.180  35.936  1.00  0.00     0.250 C 
HETATM   23  C   UNL     1      53.548  29.518  34.101  1.00  0.00     0.283 C 
HETATM   24  C   UNL     1      54.583  24.269  36.162  1.00  0.00     0.283 C 
HETATM   25  C   UNL     1      53.439  28.411  30.449  1.00  0.00     0.153 C 
HETATM   26  C   UNL     1      55.583  21.997  33.940  1.00  0.00     0.153 C 
HETATM   27  C   UNL     1      55.931  27.499  33.463  1.00  0.00     0.153 C 
ENDROOT
BRANCH  17  28
HETATM   28  C   UNL     1      53.494  21.607  31.330  1.00  0.00     0.016 C 
HETATM   29  C   UNL     1      52.227  21.642  30.477  1.00  0.00     0.012 C 
HETATM   30  C   UNL     1      54.611  20.863  30.600  1.00  0.00     0.012 C 
ENDBRANCH  17  28
BRANCH  13  31
HETATM   31  C   UNL     1      53.000  26.274  28.524  1.00  0.00     0.014 C 
HETATM   32  C   UNL     1      53.401  24.946  27.879  1.00  0.00     0.012 C 
BRANCH  31  33
HETATM   33  C   UNL     1      51.809  26.935  27.807  1.00  0.00     0.002 C 
HETATM   34  C   UNL     1      50.466  26.295  28.133  1.00  0.00     0.005 C 
ENDBRANCH  31  33
ENDBRANCH  13  31
BRANCH  14  35
HETATM   35  C   UNL     1      54.177  21.825  36.490  1.00  0.00     0.010 C 
HETATM   36  C   UNL     1      55.314  22.116  37.468  1.00  0.00     0.012 C 
HETATM   37  C   UNL     1      52.897  21.472  37.247  1.00  0.00     0.012 C 
ENDBRANCH  14  35
BRANCH  16  38
HETATM   38  C   UNL     1      50.631  28.411  33.893  1.00  0.00     0.016 C 
HETATM   39  C   UNL     1      49.981  29.787  34.024  1.00  0.00     0.012 C 
HETATM   40  C   UNL     1      51.118  27.917  35.254  1.00  0.00     0.012 C 
ENDBRANCH  16  38
BRANCH  18  41
HETATM   41  C   UNL     1      57.138  25.535  37.101  1.00  0.00     0.016 C 
HETATM   42  C   UNL     1      57.965  26.730  37.570  1.00  0.00     0.012 C 
HETATM   43  C   UNL     1      58.031  24.315  36.886  1.00  0.00     0.012 C 
ENDBRANCH  18  41
BRANCH  15  44
HETATM   44  C   UNL     1      55.893  30.347  34.439  1.00  0.00     0.010 C 
HETATM   45  C   UNL     1      57.276  29.966  34.960  1.00  0.00     0.012 C 
HETATM   46  C   UNL     1      55.488  31.728  34.947  1.00  0.00     0.012 C 
ENDBRANCH  15  44
TORSDOF 7
ENDMDL
MODEL 11
REMARK VINA RESULT:    -4.480      4.689      7.734
REMARK INTER + INTRA:          -5.458
REMARK INTER:                  -6.242
REMARK INTRA:                   0.784
REMARK UNBOUND:                 0.856
REMARK  7 active torsions:
REMARK  status: ('A' for Active; 'I' for Inactive)
REMARK    1  A    between atoms: C_13  and  C_14 
REMARK    2  A    between atoms: C_14  and  C_19 
REMARK    3  A    between atoms: C_15  and  C_20 
REMARK    4  A    between atoms: C_16  and  C_21 
REMARK    5  A    between atoms: C_17  and  C_23 
REMARK    6  A    between atoms: C_18  and  C_26 
REMARK    7  A    between atoms: C_22  and  C_28 
ROOT
HETATM    1  O   UNL     1      53.254  18.883  29.480  1.00  0.00    -0.304 OA
HETATM    2  O   UNL     1      58.464  19.271  29.522  1.00  0.00    -0.304 OA
HETATM    3  O   UNL     1      55.995  22.742  31.572  1.00  0.00    -0.304 OA
HETATM    4  O   UNL     1      56.070  18.777  27.466  1.00  0.00    -0.270 OA
HETATM    5  O   UNL     1      54.637  18.423  31.268  1.00  0.00    -0.263 OA
HETATM    6  O   UNL     1      54.581  20.980  28.732  1.00  0.00    -0.270 OA
HETATM    7  O   UNL     1      59.217  22.908  31.260  1.00  0.00    -0.270 OA
HETATM    8  O   UNL     1      60.647  18.578  29.701  1.00  0.00    -0.263 OA
HETATM    9  O   UNL     1      56.863  24.294  30.110  1.00  0.00    -0.263 OA
HETATM   10  N   UNL     1      56.232  17.266  29.220  1.00  0.00    -0.340 N 
HETATM   11  N   UNL     1      53.717  22.456  30.290  1.00  0.00    -0.340 N 
HETATM   12  N   UNL     1      58.510  20.748  31.759  1.00  0.00    -0.340 N 
HETATM   13  C   UNL     1      54.766  17.088  29.237  1.00  0.00     0.190 C 
HETATM   14  C   UNL     1      54.598  23.532  29.786  1.00  0.00     0.190 C 
HETATM   15  C   UNL     1      59.788  20.144  31.329  1.00  0.00     0.190 C 
HETATM   16  C   UNL     1      58.268  18.452  28.353  1.00  0.00     0.227 C 
HETATM   17  C   UNL     1      52.806  20.116  30.084  1.00  0.00     0.227 C 
HETATM   18  C   UNL     1      57.137  22.729  32.447  1.00  0.00     0.227 C 
HETATM   19  C   UNL     1      56.766  18.184  28.298  1.00  0.00     0.250 C 
HETATM   20  C   UNL     1      54.227  18.186  30.139  1.00  0.00     0.283 C 
HETATM   21  C   UNL     1      53.779  21.213  29.644  1.00  0.00     0.250 C 
HETATM   22  C   UNL     1      58.381  22.148  31.758  1.00  0.00     0.250 C 
HETATM   23  C   UNL     1      59.692  19.233  30.108  1.00  0.00     0.283 C 
HETATM   24  C   UNL     1      55.954  23.563  30.488  1.00  0.00     0.283 C 
HETATM   25  C   UNL     1      57.026  16.502  30.188  1.00  0.00     0.153 C 
HETATM   26  C   UNL     1      52.869  22.751  31.447  1.00  0.00     0.153 C 
HETATM   27  C   UNL     1      57.502  19.859  32.338  1.00  0.00     0.153 C 
ENDROOT
BRANCH  17  28
HETATM   28  C   UNL     1      51.409  20.389  29.544  1.00  0.00     0.016 C 
HETATM   29  C   UNL     1      51.192  19.659  28.219  1.00  0.00     0.012 C 
HETATM   30  C   UNL     1      50.347  19.978  30.562  1.00  0.00     0.012 C 
ENDBRANCH  17  28
BRANCH  13  31
HETATM   31  C   UNL     1      54.263  15.728  29.707  1.00  0.00     0.014 C 
HETATM   32  C   UNL     1      53.352  15.902  30.923  1.00  0.00     0.012 C 
BRANCH  31  33
HETATM   33  C   UNL     1      53.557  15.000  28.548  1.00  0.00     0.002 C 
HETATM   34  C   UNL     1      52.309  15.714  28.047  1.00  0.00     0.005 C 
ENDBRANCH  31  33
ENDBRANCH  13  31
BRANCH  14  35
HETATM   35  C   UNL     1      53.961  24.921  29.834  1.00  0.00     0.010 C 
HETATM   36  C   UNL     1      54.636  25.788  30.894  1.00  0.00     0.012 C 
HETATM   37  C   UNL     1      54.036  25.597  28.464  1.00  0.00     0.012 C 
ENDBRANCH  14  35
BRANCH  16  38
HETATM   38  C   UNL     1      58.748  19.225  27.127  1.00  0.00     0.016 C 
HETATM   39  C   UNL     1      60.006  18.583  26.544  1.00  0.00     0.012 C 
HETATM   40  C   UNL     1      59.009  20.688  27.481  1.00  0.00     0.012 C 
ENDBRANCH  16  38
BRANCH  18  41
HETATM   41  C   UNL     1      57.393  24.103  33.066  1.00  0.00     0.016 C 
HETATM   42  C   UNL     1      58.626  24.064  33.966  1.00  0.00     0.012 C 
HETATM   43  C   UNL     1      56.171  24.573  33.851  1.00  0.00     0.012 C 
ENDBRANCH  18  41
BRANCH  15  44
HETATM   44  C   UNL     1      60.476  19.418  32.486  1.00  0.00     0.010 C 
HETATM   45  C   UNL     1      61.956  19.788  32.546  1.00  0.00     0.012 C 
HETATM   46  C   UNL     1      60.303  17.908  32.348  1.00  0.00     0.012 C 
ENDBRANCH  15  44
TORSDOF 7
ENDMDL
MODEL 12
REMARK VINA RESULT:    -4.477      4.396      7.617
REMARK INTER + INTRA:          -5.453
REMARK INTER:                  -6.413
REMARK INTRA:                   0.960
REMARK UNBOUND:                 0.856
REMARK  7 active torsions:
REMARK  status: ('A' for Active; 'I' for Inactive)
REMARK    1  A    between atoms: C_13  and  C_14 
REMARK    2  A    between atoms: C_14  and  C_19 
REMARK    3  A    between atoms: C_15  and  C_20 
REMARK    4  A    between atoms: C_16  and  C_21 
REMARK    5  A    between atoms: C_17  and  C_23 
REMARK    6  A    between atoms: C_18  and  C_26 
REMARK    7  A    between atoms: C_22  and  C_28 
ROOT
HETATM    1  O   UNL     1      52.384  21.591  29.545  1.00  0.00    -0.304 OA
HETATM    2  O   UNL     1      55.780  23.821  32.830  1.00  0.00    -0.304 OA
HETATM    3  O   UNL     1      56.561  19.325  31.595  1.00  0.00    -0.304 OA
HETATM    4  O   UNL     1      52.634  23.367  32.508  1.00  0.00    -0.270 OA
HETATM    5  O   UNL     1      54.472  22.403  28.997  1.00  0.00    -0.263 OA
HETATM    6  O   UNL     1      53.153  20.557  31.794  1.00  0.00    -0.270 OA
HETATM    7  O   UNL     1      58.393  20.818  33.813  1.00  0.00    -0.270 OA
HETATM    8  O   UNL     1      57.122  25.465  33.709  1.00  0.00    -0.263 OA
HETATM    9  O   UNL     1      56.385  18.638  33.785  1.00  0.00    -0.263 OA
HETATM   10  N   UNL     1      53.684  24.484  30.765  1.00  0.00    -0.340 N 
HETATM   11  N   UNL     1      54.111  18.636  30.932  1.00  0.00    -0.340 N 
HETATM   12  N   UNL     1      57.814  22.247  32.072  1.00  0.00    -0.340 N 
HETATM   13  C   UNL     1      52.734  23.911  29.791  1.00  0.00     0.190 C 
HETATM   14  C   UNL     1      54.543  18.222  32.285  1.00  0.00     0.190 C 
HETATM   15  C   UNL     1      58.157  23.459  32.845  1.00  0.00     0.190 C 
HETATM   16  C   UNL     1      54.597  24.599  33.101  1.00  0.00     0.227 C 
HETATM   17  C   UNL     1      52.839  20.224  29.445  1.00  0.00     0.227 C 
HETATM   18  C   UNL     1      57.925  19.770  31.704  1.00  0.00     0.227 C 
HETATM   19  C   UNL     1      53.551  24.096  32.111  1.00  0.00     0.250 C 
HETATM   20  C   UNL     1      53.321  22.570  29.380  1.00  0.00     0.283 C 
HETATM   21  C   UNL     1      53.381  19.828  30.822  1.00  0.00     0.250 C 
HETATM   22  C   UNL     1      58.059  20.984  32.636  1.00  0.00     0.250 C 
HETATM   23  C   UNL     1      56.978  24.373  33.168  1.00  0.00     0.283 C 
HETATM   24  C   UNL     1      55.923  18.761  32.655  1.00  0.00     0.283 C 
HETATM   25  C   UNL     1      54.723  25.388  30.260  1.00  0.00     0.153 C 
HETATM   26  C   UNL     1      54.506  17.795  29.800  1.00  0.00     0.153 C 
HETATM   27  C   UNL     1      57.402  22.427  30.679  1.00  0.00     0.153 C 
ENDROOT
BRANCH  17  28
HETATM   28  C   UNL     1      51.625  19.381  29.084  1.00  0.00     0.016 C 
HETATM   29  C   UNL     1      50.343  20.032  29.600  1.00  0.00     0.012 C 
HETATM   30  C   UNL     1      51.546  19.168  27.573  1.00  0.00     0.012 C 
ENDBRANCH  17  28
BRANCH  13  31
HETATM   31  C   UNL     1      52.448  24.760  28.557  1.00  0.00     0.014 C 
HETATM   32  C   UNL     1      51.918  23.875  27.428  1.00  0.00     0.012 C 
BRANCH  31  33
HETATM   33  C   UNL     1      51.472  25.895  28.916  1.00  0.00     0.002 C 
HETATM   34  C   UNL     1      50.478  26.220  27.810  1.00  0.00     0.005 C 
ENDBRANCH  31  33
ENDBRANCH  13  31
BRANCH  14  35
HETATM   35  C   UNL     1      54.503  16.710  32.507  1.00  0.00     0.010 C 
HETATM   36  C   UNL     1      55.410  16.312  33.670  1.00  0.00     0.012 C 
HETATM   37  C   UNL     1      53.071  16.239  32.760  1.00  0.00     0.012 C 
ENDBRANCH  14  35
BRANCH  16  38
HETATM   38  C   UNL     1      54.171  24.354  34.546  1.00  0.00     0.016 C 
HETATM   39  C   UNL     1      54.371  25.613  35.388  1.00  0.00     0.012 C 
HETATM   40  C   UNL     1      54.946  23.181  35.145  1.00  0.00     0.012 C 
ENDBRANCH  16  38
BRANCH  18  41
HETATM   41  C   UNL     1      58.867  18.628  32.082  1.00  0.00     0.016 C 
HETATM   42  C   UNL     1      60.317  19.012  31.797  1.00  0.00     0.012 C 
HETATM   43  C   UNL     1      58.491  17.353  31.331  1.00  0.00     0.012 C 
ENDBRANCH  18  41
BRANCH  15  44
HETATM   44  C   UNL     1      59.278  24.250  32.169  1.00  0.00     0.010 C 
HETATM   45  C   UNL     1      60.336  24.658  33.191  1.00  0.00     0.012 C 
HETATM   46  C   UNL     1      58.713  25.477  31.459  1.00  0.00     0.012 C 
ENDBRANCH  15  44
TORSDOF 7
ENDMDL
MODEL 13
REMARK VINA RESULT:    -4.440      4.838      9.206
REMARK INTER + INTRA:          -5.400
REMARK INTER:                  -6.085
REMARK INTRA:                   0.684
REMARK UNBOUND:                 0.856
REMARK  7 active torsions:
REMARK  status: ('A' for Active; 'I' for Inactive)
REMARK    1  A    between atoms: C_13  and  C_14 
REMARK    2  A    between atoms: C_14  and  C_19 
REMARK    3  A    between atoms: C_15  and  C_20 
REMARK    4  A    between atoms: C_16  and  C_21 
REMARK    5  A    between atoms: C_17  and  C_23 
REMARK    6  A    between atoms: C_18  and  C_26 
REMARK    7  A    between atoms: C_22  and  C_28 
ROOT
HETATM    1  O   UNL     1      56.919  20.821  28.488  1.00  0.00    -0.304 OA
HETATM    2  O   UNL     1      54.527  24.778  30.920  1.00  0.00    -0.304 OA
HETATM    3  O   UNL     1      53.688  20.406  32.509  1.00  0.00    -0.304 OA
HETATM    4  O   UNL     1      54.957  23.628  27.971  1.00  0.00    -0.270 OA
HETATM    5  O   UNL     1      57.534  21.744  30.510  1.00  0.00    -0.263 OA
HETATM    6  O   UNL     1      54.377  20.924  28.984  1.00  0.00    -0.270 OA
HETATM    7  O   UNL     1      52.115  22.976  33.703  1.00  0.00    -0.270 OA
HETATM    8  O   UNL     1      54.278  26.863  31.851  1.00  0.00    -0.263 OA
HETATM    9  O   UNL     1      51.442  20.612  32.047  1.00  0.00    -0.263 OA
HETATM   10  N   UNL     1      56.886  24.154  29.149  1.00  0.00    -0.340 N 
HETATM   11  N   UNL     1      54.254  19.046  30.330  1.00  0.00    -0.340 N 
HETATM   12  N   UNL     1      54.344  23.465  33.250  1.00  0.00    -0.340 N 
HETATM   13  C   UNL     1      57.627  23.070  28.471  1.00  0.00     0.190 C 
HETATM   14  C   UNL     1      52.816  19.289  30.570  1.00  0.00     0.190 C 
HETATM   15  C   UNL     1      54.115  24.924  33.285  1.00  0.00     0.190 C 
HETATM   16  C   UNL     1      54.730  25.352  29.614  1.00  0.00     0.227 C 
HETATM   17  C   UNL     1      56.391  19.642  29.135  1.00  0.00     0.227 C 
HETATM   18  C   UNL     1      53.632  21.116  33.759  1.00  0.00     0.227 C 
HETATM   19  C   UNL     1      55.524  24.307  28.835  1.00  0.00     0.250 C 
HETATM   20  C   UNL     1      57.378  21.820  29.298  1.00  0.00     0.283 C 
HETATM   21  C   UNL     1      54.927  19.932  29.476  1.00  0.00     0.250 C 
HETATM   22  C   UNL     1      53.282  22.598  33.562  1.00  0.00     0.250 C 
HETATM   23  C   UNL     1      54.327  25.641  31.954  1.00  0.00     0.283 C 
HETATM   24  C   UNL     1      52.561  20.189  31.778  1.00  0.00     0.283 C 
HETATM   25  C   UNL     1      57.611  24.972  30.127  1.00  0.00     0.153 C 
HETATM   26  C   UNL     1      54.885  17.924  31.028  1.00  0.00     0.153 C 
HETATM   27  C   UNL     1      55.719  22.999  33.068  1.00  0.00     0.153 C 
ENDROOT
BRANCH  17  28
HETATM   28  C   UNL     1      56.494  18.504  28.129  1.00  0.00     0.016 C 
HETATM   29  C   UNL     1      57.120  18.994  26.824  1.00  0.00     0.012 C 
HETATM   30  C   UNL     1      57.301  17.343  28.707  1.00  0.00     0.012 C 
ENDBRANCH  17  28
BRANCH  13  31
HETATM   31  C   UNL     1      59.125  23.294  28.293  1.00  0.00     0.014 C 
HETATM   32  C   UNL     1      59.847  21.948  28.228  1.00  0.00     0.012 C 
BRANCH  31  33
HETATM   33  C   UNL     1      59.382  24.156  27.044  1.00  0.00     0.002 C 
HETATM   34  C   UNL     1      58.395  23.903  25.912  1.00  0.00     0.005 C 
ENDBRANCH  31  33
ENDBRANCH  13  31
BRANCH  14  35
HETATM   35  C   UNL     1      51.989  18.010  30.698  1.00  0.00     0.010 C 
HETATM   36  C   UNL     1      51.555  17.790  32.145  1.00  0.00     0.012 C 
HETATM   37  C   UNL     1      50.770  18.060  29.777  1.00  0.00     0.012 C 
ENDBRANCH  14  35
BRANCH  16  38
HETATM   38  C   UNL     1      53.367  25.615  28.978  1.00  0.00     0.016 C 
HETATM   39  C   UNL     1      53.107  27.115  28.861  1.00  0.00     0.012 C 
HETATM   40  C   UNL     1      52.258  24.940  29.782  1.00  0.00     0.012 C 
ENDBRANCH  16  38
BRANCH  18  41
HETATM   41  C   UNL     1      52.716  20.421  34.767  1.00  0.00     0.016 C 
HETATM   42  C   UNL     1      52.642  21.222  36.065  1.00  0.00     0.012 C 
HETATM   43  C   UNL     1      53.200  18.999  35.040  1.00  0.00     0.012 C 
ENDBRANCH  18  41
BRANCH  15  44
HETATM   44  C   UNL     1      54.937  25.590  34.388  1.00  0.00     0.010 C 
HETATM   45  C   UNL     1      54.069  26.547  35.199  1.00  0.00     0.012 C 
HETATM   46  C   UNL     1      56.136  26.322  33.793  1.00  0.00     0.012 C 
ENDBRANCH  15  44
TORSDOF 7
ENDMDL
MODEL 14
REMARK VINA RESULT:    -4.383      3.168      7.555
REMARK INTER + INTRA:          -5.321
REMARK INTER:                  -5.911
REMARK INTRA:                   0.590
REMARK UNBOUND:                 0.856
REMARK  7 active torsions:
REMARK  status: ('A' for Active; 'I' for Inactive)
REMARK    1  A    between atoms: C_13  and  C_14 
REMARK    2  A    between atoms: C_14  and  C_19 
REMARK    3  A    between atoms: C_15  and  C_20 
REMARK    4  A    between atoms: C_16  and  C_21 
REMARK    5  A    between atoms: C_17  and  C_23 
REMARK    6  A    between atoms: C_18  and  C_26 
REMARK    7  A    between atoms: C_22  and  C_28 
ROOT
HETATM    1  O   UNL     1      54.479  17.947  29.088  1.00  0.00    -0.304 OA
HETATM    2  O   UNL     1      55.162  22.304  31.889  1.00  0.00    -0.304 OA
HETATM    3  O   UNL     1      52.148  19.074  33.569  1.00  0.00    -0.304 OA
HETATM    4  O   UNL     1      54.467  21.406  28.903  1.00  0.00    -0.270 OA
HETATM    5  O   UNL     1      55.766  18.152  30.991  1.00  0.00    -0.263 OA
HETATM    6  O   UNL     1      52.558  19.440  29.982  1.00  0.00    -0.270 OA
HETATM    7  O   UNL     1      52.528  21.952  35.011  1.00  0.00    -0.270 OA
HETATM    8  O   UNL     1      56.292  24.054  32.858  1.00  0.00    -0.263 OA
HETATM    9  O   UNL     1      50.404  20.573  33.471  1.00  0.00    -0.263 OA
HETATM   10  N   UNL     1      56.473  20.616  29.762  1.00  0.00    -0.340 N 
HETATM   11  N   UNL     1      51.539  17.853  31.322  1.00  0.00    -0.340 N 
HETATM   12  N   UNL     1      54.547  21.116  34.212  1.00  0.00    -0.340 N 
HETATM   13  C   UNL     1      56.353  19.374  28.970  1.00  0.00     0.190 C 
HETATM   14  C   UNL     1      50.553  18.852  31.788  1.00  0.00     0.190 C 
HETATM   15  C   UNL     1      55.215  22.432  34.290  1.00  0.00     0.190 C 
HETATM   16  C   UNL     1      55.494  22.781  30.570  1.00  0.00     0.227 C 
HETATM   17  C   UNL     1      53.452  17.228  29.805  1.00  0.00     0.227 C 
HETATM   18  C   UNL     1      52.674  19.563  34.816  1.00  0.00     0.227 C 
HETATM   19  C   UNL     1      55.427  21.551  29.670  1.00  0.00     0.250 C 
HETATM   20  C   UNL     1      55.531  18.419  29.820  1.00  0.00     0.283 C 
HETATM   21  C   UNL     1      52.486  18.270  30.375  1.00  0.00     0.250 C 
HETATM   22  C   UNL     1      53.229  20.989  34.684  1.00  0.00     0.250 C 
HETATM   23  C   UNL     1      55.634  23.022  32.946  1.00  0.00     0.283 C 
HETATM   24  C   UNL     1      51.024  19.613  33.025  1.00  0.00     0.283 C 
HETATM   25  C   UNL     1      57.654  20.771  30.617  1.00  0.00     0.153 C 
HETATM   26  C   UNL     1      51.482  16.510  31.905  1.00  0.00     0.153 C 
HETATM   27  C   UNL     1      55.359  19.967  33.811  1.00  0.00     0.153 C 
ENDROOT
BRANCH  17  28
HETATM   28  C   UNL     1      52.746  16.341  28.789  1.00  0.00     0.016 C 
HETATM   29  C   UNL     1      52.652  17.040  27.434  1.00  0.00     0.012 C 
HETATM   30  C   UNL     1      53.466  15.000  28.651  1.00  0.00     0.012 C 
ENDBRANCH  17  28
BRANCH  13  31
HETATM   31  C   UNL     1      57.665  18.716  28.557  1.00  0.00     0.014 C 
HETATM   32  C   UNL     1      57.441  17.224  28.307  1.00  0.00     0.012 C 
BRANCH  31  33
HETATM   33  C   UNL     1      58.248  19.433  27.327  1.00  0.00     0.002 C 
HETATM   34  C   UNL     1      59.663  19.954  27.535  1.00  0.00     0.005 C 
ENDBRANCH  31  33
ENDBRANCH  13  31
BRANCH  14  35
HETATM   35  C   UNL     1      49.161  18.272  32.039  1.00  0.00     0.010 C 
HETATM   36  C   UNL     1      48.818  18.318  33.526  1.00  0.00     0.012 C 
HETATM   37  C   UNL     1      48.109  19.023  31.224  1.00  0.00     0.012 C 
ENDBRANCH  14  35
BRANCH  16  38
HETATM   38  C   UNL     1      54.470  23.837  30.160  1.00  0.00     0.016 C 
HETATM   39  C   UNL     1      55.119  25.218  30.090  1.00  0.00     0.012 C 
HETATM   40  C   UNL     1      53.290  23.849  31.129  1.00  0.00     0.012 C 
ENDBRANCH  16  38
BRANCH  18  41
HETATM   41  C   UNL     1      51.662  19.426  35.953  1.00  0.00     0.016 C 
HETATM   42  C   UNL     1      52.258  19.927  37.266  1.00  0.00     0.012 C 
HETATM   43  C   UNL     1      51.203  17.976  36.090  1.00  0.00     0.012 C 
ENDBRANCH  18  41
BRANCH  15  44
HETATM   44  C   UNL     1      56.403  22.396  35.252  1.00  0.00     0.010 C 
HETATM   45  C   UNL     1      56.373  23.605  36.183  1.00  0.00     0.012 C 
HETATM   46  C   UNL     1      57.716  22.344  34.477  1.00  0.00     0.012 C 
ENDBRANCH  15  44
TORSDOF 7
ENDMDL
MODEL 15
REMARK VINA RESULT:    -4.306      2.412      6.208
REMARK INTER + INTRA:          -5.213
REMARK INTER:                  -6.476
REMARK INTRA:                   1.263
REMARK UNBOUND:                 0.856
REMARK  7 active torsions:
REMARK  status: ('A' for Active; 'I' for Inactive)
REMARK    1  A    between atoms: C_13  and  C_14 
REMARK    2  A    between atoms: C_14  and  C_19 
REMARK    3  A    between atoms: C_15  and  C_20 
REMARK    4  A    between atoms: C_16  and  C_21 
REMARK    5  A    between atoms: C_17  and  C_23 
REMARK    6  A    between atoms: C_18  and  C_26 
REMARK    7  A    between atoms: C_22  and  C_28 
ROOT
HETATM    1  O   UNL     1      54.923  21.073  31.577  1.00  0.00    -0.304 OA
HETATM    2  O   UNL     1      51.245  17.424  30.914  1.00  0.00    -0.304 OA
HETATM    3  O   UNL     1      53.652  17.390  34.982  1.00  0.00    -0.304 OA
HETATM    4  O   UNL     1      53.797  18.618  29.409  1.00  0.00    -0.270 OA
HETATM    5  O   UNL     1      52.809  21.092  32.497  1.00  0.00    -0.263 OA
HETATM    6  O   UNL     1      55.284  18.534  31.950  1.00  0.00    -0.270 OA
HETATM    7  O   UNL     1      51.509  15.068  34.260  1.00  0.00    -0.270 OA
HETATM    8  O   UNL     1      49.229  16.527  30.273  1.00  0.00    -0.263 OA
HETATM    9  O   UNL     1      54.451  15.275  34.553  1.00  0.00    -0.263 OA
HETATM   10  N   UNL     1      52.112  20.133  29.914  1.00  0.00    -0.340 N 
HETATM   11  N   UNL     1      55.832  18.633  34.195  1.00  0.00    -0.340 N 
HETATM   12  N   UNL     1      50.786  17.159  33.542  1.00  0.00    -0.340 N 
HETATM   13  C   UNL     1      53.102  21.216  30.085  1.00  0.00     0.190 C 
HETATM   14  C   UNL     1      55.928  17.158  34.256  1.00  0.00     0.190 C 
HETATM   15  C   UNL     1      49.778  16.586  32.626  1.00  0.00     0.190 C 
HETATM   16  C   UNL     1      51.589  17.706  29.543  1.00  0.00     0.227 C 
HETATM   17  C   UNL     1      55.524  20.739  32.847  1.00  0.00     0.227 C 
HETATM   18  C   UNL     1      52.372  16.952  35.473  1.00  0.00     0.227 C 
HETATM   19  C   UNL     1      52.599  18.848  29.611  1.00  0.00     0.250 C 
HETATM   20  C   UNL     1      53.560  21.134  31.531  1.00  0.00     0.283 C 
HETATM   21  C   UNL     1      55.531  19.212  32.954  1.00  0.00     0.250 C 
HETATM   22  C   UNL     1      51.528  16.298  34.369  1.00  0.00     0.250 C 
HETATM   23  C   UNL     1      50.032  16.847  31.144  1.00  0.00     0.283 C 
HETATM   24  C   UNL     1      54.597  16.492  34.595  1.00  0.00     0.283 C 
HETATM   25  C   UNL     1      50.697  20.461  30.109  1.00  0.00     0.153 C 
HETATM   26  C   UNL     1      56.020  19.383  35.439  1.00  0.00     0.153 C 
HETATM   27  C   UNL     1      50.833  18.617  33.672  1.00  0.00     0.153 C 
ENDROOT
BRANCH  17  28
HETATM   28  C   UNL     1      56.946  21.282  32.819  1.00  0.00     0.016 C 
HETATM   29  C   UNL     1      57.540  21.164  31.416  1.00  0.00     0.012 C 
HETATM   30  C   UNL     1      56.978  22.734  33.294  1.00  0.00     0.012 C 
ENDBRANCH  17  28
BRANCH  13  31
HETATM   31  C   UNL     1      52.612  22.625  29.766  1.00  0.00     0.014 C 
HETATM   32  C   UNL     1      53.440  23.650  30.543  1.00  0.00     0.012 C 
BRANCH  31  33
HETATM   33  C   UNL     1      52.660  22.866  28.247  1.00  0.00     0.002 C 
HETATM   34  C   UNL     1      51.970  24.150  27.810  1.00  0.00     0.005 C 
ENDBRANCH  31  33
ENDBRANCH  13  31
BRANCH  14  35
HETATM   35  C   UNL     1      57.014  16.651  35.204  1.00  0.00     0.010 C 
HETATM   36  C   UNL     1      56.397  15.885  36.372  1.00  0.00     0.012 C 
HETATM   37  C   UNL     1      58.016  15.771  34.457  1.00  0.00     0.012 C 
ENDBRANCH  14  35
BRANCH  16  38
HETATM   38  C   UNL     1      52.198  16.451  28.923  1.00  0.00     0.016 C 
HETATM   39  C   UNL     1      53.324  15.907  29.801  1.00  0.00     0.012 C 
HETATM   40  C   UNL     1      52.711  16.740  27.514  1.00  0.00     0.012 C 
ENDBRANCH  16  38
BRANCH  18  41
HETATM   41  C   UNL     1      52.510  16.069  36.712  1.00  0.00     0.016 C 
HETATM   42  C   UNL     1      51.137  15.623  37.210  1.00  0.00     0.012 C 
HETATM   43  C   UNL     1      53.268  16.806  37.814  1.00  0.00     0.012 C 
ENDBRANCH  18  41
BRANCH  15  44
HETATM   44  C   UNL     1      48.364  17.023  33.012  1.00  0.00     0.010 C 
HETATM   45  C   UNL     1      48.180  16.960  34.526  1.00  0.00     0.012 C 
HETATM   46  C   UNL     1      47.326  16.156  32.306  1.00  0.00     0.012 C 
ENDBRANCH  15  44
TORSDOF 7
ENDMDL
MODEL 16
REMARK VINA RESULT:    -4.266      4.322      7.439
REMARK INTER + INTRA:          -5.156
REMARK INTER:                  -6.170
REMARK INTRA:                   1.014
REMARK UNBOUND:                 0.856
REMARK  7 active torsions:
REMARK  status: ('A' for Active; 'I' for Inactive)
REMARK    1  A    between atoms: C_13  and  C_14 
REMARK    2  A    between atoms: C_14  and  C_19 
REMARK    3  A    between atoms: C_15  and  C_20 
REMARK    4  A    between atoms: C_16  and  C_21 
REMARK    5  A    between atoms: C_17  and  C_23 
REMARK    6  A    between atoms: C_18  and  C_26 
REMARK    7  A    between atoms: C_22  and  C_28 
ROOT
HETATM    1  O   UNL     1      52.958  21.905  29.521  1.00  0.00    -0.304 OA
HETATM    2  O   UNL     1      56.358  18.077  30.559  1.00  0.00    -0.304 OA
HETATM    3  O   UNL     1      57.675  22.505  31.562  1.00  0.00    -0.304 OA
HETATM    4  O   UNL     1      54.556  19.154  28.151  1.00  0.00    -0.270 OA
HETATM    5  O   UNL     1      53.394  21.001  31.597  1.00  0.00    -0.263 OA
HETATM    6  O   UNL     1      55.439  21.896  28.771  1.00  0.00    -0.270 OA
HETATM    7  O   UNL     1      59.721  20.012  31.887  1.00  0.00    -0.270 OA
HETATM    8  O   UNL     1      57.093  16.020  31.269  1.00  0.00    -0.263 OA
HETATM    9  O   UNL     1      59.450  22.364  30.104  1.00  0.00    -0.263 OA
HETATM   10  N   UNL     1      53.423  18.588  30.095  1.00  0.00    -0.340 N 
HETATM   11  N   UNL     1      56.104  23.802  29.900  1.00  0.00    -0.340 N 
HETATM   12  N   UNL     1      57.559  19.441  32.530  1.00  0.00    -0.340 N 
HETATM   13  C   UNL     1      52.410  19.633  29.841  1.00  0.00     0.190 C 
HETATM   14  C   UNL     1      57.496  23.611  29.439  1.00  0.00     0.190 C 
HETATM   15  C   UNL     1      57.833  17.991  32.456  1.00  0.00     0.190 C 
HETATM   16  C   UNL     1      55.591  17.471  29.500  1.00  0.00     0.227 C 
HETATM   17  C   UNL     1      53.681  23.113  29.844  1.00  0.00     0.227 C 
HETATM   18  C   UNL     1      58.335  21.822  32.643  1.00  0.00     0.227 C 
HETATM   19  C   UNL     1      54.486  18.474  29.181  1.00  0.00     0.250 C 
HETATM   20  C   UNL     1      52.969  20.907  30.453  1.00  0.00     0.283 C 
HETATM   21  C   UNL     1      55.144  22.878  29.460  1.00  0.00     0.250 C 
HETATM   22  C   UNL     1      58.609  20.348  32.308  1.00  0.00     0.250 C 
HETATM   23  C   UNL     1      57.052  17.241  31.380  1.00  0.00     0.283 C 
HETATM   24  C   UNL     1      58.320  22.744  30.389  1.00  0.00     0.283 C 
HETATM   25  C   UNL     1      53.271  17.766  31.301  1.00  0.00     0.153 C 
HETATM   26  C   UNL     1      55.830  24.917  30.810  1.00  0.00     0.153 C 
HETATM   27  C   UNL     1      56.241  19.857  33.012  1.00  0.00     0.153 C 
ENDROOT
BRANCH  17  28
HETATM   28  C   UNL     1      53.077  24.227  29.000  1.00  0.00     0.016 C 
HETATM   29  C   UNL     1      52.251  23.646  27.852  1.00  0.00     0.012 C 
HETATM   30  C   UNL     1      52.219  25.152  29.862  1.00  0.00     0.012 C 
ENDBRANCH  17  28
BRANCH  13  31
HETATM   31  C   UNL     1      51.013  19.356  30.384  1.00  0.00     0.014 C 
HETATM   32  C   UNL     1      50.697  20.327  31.523  1.00  0.00     0.012 C 
BRANCH  31  33
HETATM   33  C   UNL     1      49.981  19.437  29.245  1.00  0.00     0.002 C 
HETATM   34  C   UNL     1      48.539  19.485  29.728  1.00  0.00     0.005 C 
ENDBRANCH  31  33
ENDBRANCH  13  31
BRANCH  14  35
HETATM   35  C   UNL     1      58.237  24.920  29.163  1.00  0.00     0.010 C 
HETATM   36  C   UNL     1      59.311  25.166  30.221  1.00  0.00     0.012 C 
HETATM   37  C   UNL     1      58.857  24.905  27.766  1.00  0.00     0.012 C 
ENDBRANCH  14  35
BRANCH  16  38
HETATM   38  C   UNL     1      56.507  17.241  28.301  1.00  0.00     0.016 C 
HETATM   39  C   UNL     1      56.740  15.748  28.079  1.00  0.00     0.012 C 
HETATM   40  C   UNL     1      57.838  17.968  28.492  1.00  0.00     0.012 C 
ENDBRANCH  16  38
BRANCH  18  41
HETATM   41  C   UNL     1      59.588  22.565  33.104  1.00  0.00     0.016 C 
HETATM   42  C   UNL     1      60.286  21.798  34.224  1.00  0.00     0.012 C 
HETATM   43  C   UNL     1      59.236  23.979  33.560  1.00  0.00     0.012 C 
ENDBRANCH  18  41
BRANCH  15  44
HETATM   44  C   UNL     1      57.648  17.320  33.818  1.00  0.00     0.010 C 
HETATM   45  C   UNL     1      58.812  16.378  34.113  1.00  0.00     0.012 C 
HETATM   46  C   UNL     1      56.321  16.569  33.867  1.00  0.00     0.012 C 
ENDBRANCH  15  44
TORSDOF 7
ENDMDL
MODEL 17
REMARK VINA RESULT:    -4.225      3.500      7.321
REMARK INTER + INTRA:          -5.097
REMARK INTER:                  -5.861
REMARK INTRA:                   0.764
REMARK UNBOUND:                 0.856
REMARK  7 active torsions:
REMARK  status: ('A' for Active; 'I' for Inactive)
REMARK    1  A    between atoms: C_13  and  C_14 
REMARK    2  A    between atoms: C_14  and  C_19 
REMARK    3  A    between atoms: C_15  and  C_20 
REMARK    4  A    between atoms: C_16  and  C_21 
REMARK    5  A    between atoms: C_17  and  C_23 
REMARK    6  A    between atoms: C_18  and  C_26 
REMARK    7  A    between atoms: C_22  and  C_28 
ROOT
HETATM    1  O   UNL     1      52.322  21.772  30.782  1.00  0.00    -0.304 OA
HETATM    2  O   UNL     1      54.779  22.841  35.267  1.00  0.00    -0.304 OA
HETATM    3  O   UNL     1      55.467  18.571  33.360  1.00  0.00    -0.304 OA
HETATM    4  O   UNL     1      51.844  22.934  34.010  1.00  0.00    -0.270 OA
HETATM    5  O   UNL     1      54.545  22.343  31.012  1.00  0.00    -0.263 OA
HETATM    6  O   UNL     1      52.286  20.250  32.880  1.00  0.00    -0.270 OA
HETATM    7  O   UNL     1      56.687  19.350  36.260  1.00  0.00    -0.270 OA
HETATM    8  O   UNL     1      55.946  24.080  36.810  1.00  0.00    -0.263 OA
HETATM    9  O   UNL     1      54.583  17.540  35.219  1.00  0.00    -0.263 OA
HETATM   10  N   UNL     1      53.465  24.171  32.901  1.00  0.00    -0.340 N 
HETATM   11  N   UNL     1      53.273  18.390  31.922  1.00  0.00    -0.340 N 
HETATM   12  N   UNL     1      56.789  21.137  34.775  1.00  0.00    -0.340 N 
HETATM   13  C   UNL     1      52.799  23.931  31.605  1.00  0.00     0.190 C 
HETATM   14  C   UNL     1      53.241  17.682  33.220  1.00  0.00     0.190 C 
HETATM   15  C   UNL     1      56.999  22.126  35.853  1.00  0.00     0.190 C 
HETATM   16  C   UNL     1      53.647  23.729  35.365  1.00  0.00     0.227 C 
HETATM   17  C   UNL     1      52.656  20.391  30.520  1.00  0.00     0.227 C 
HETATM   18  C   UNL     1      56.772  18.778  33.930  1.00  0.00     0.227 C 
HETATM   19  C   UNL     1      52.901  23.575  34.043  1.00  0.00     0.250 C 
HETATM   20  C   UNL     1      53.353  22.612  31.093  1.00  0.00     0.283 C 
HETATM   21  C   UNL     1      52.723  19.680  31.875  1.00  0.00     0.250 C 
HETATM   22  C   UNL     1      56.736  19.771  35.101  1.00  0.00     0.250 C 
HETATM   23  C   UNL     1      55.868  23.136  36.030  1.00  0.00     0.283 C 
HETATM   24  C   UNL     1      54.492  17.930  34.060  1.00  0.00     0.283 C 
HETATM   25  C   UNL     1      54.687  24.982  32.904  1.00  0.00     0.153 C 
HETATM   26  C   UNL     1      53.906  17.714  30.788  1.00  0.00     0.153 C 
HETATM   27  C   UNL     1      56.829  21.622  33.394  1.00  0.00     0.153 C 
ENDROOT
BRANCH  17  28
HETATM   28  C   UNL     1      51.531  19.820  29.669  1.00  0.00     0.016 C 
HETATM   29  C   UNL     1      50.185  19.982  30.375  1.00  0.00     0.012 C 
HETATM   30  C   UNL     1      51.499  20.491  28.296  1.00  0.00     0.012 C 
ENDBRANCH  17  28
BRANCH  13  31
HETATM   31  C   UNL     1      52.974  25.020  30.552  1.00  0.00     0.014 C 
HETATM   32  C   UNL     1      52.673  24.453  29.163  1.00  0.00     0.012 C 
BRANCH  31  33
HETATM   33  C   UNL     1      52.086  26.229  30.894  1.00  0.00     0.002 C 
HETATM   34  C   UNL     1      51.225  26.704  29.732  1.00  0.00     0.005 C 
ENDBRANCH  31  33
ENDBRANCH  13  31
BRANCH  14  35
HETATM   35  C   UNL     1      52.995  16.178  33.094  1.00  0.00     0.010 C 
HETATM   36  C   UNL     1      54.196  15.390  33.614  1.00  0.00     0.012 C 
HETATM   37  C   UNL     1      51.726  15.774  33.843  1.00  0.00     0.012 C 
ENDBRANCH  14  35
BRANCH  16  38
HETATM   38  C   UNL     1      52.789  23.298  36.552  1.00  0.00     0.016 C 
HETATM   39  C   UNL     1      52.842  24.344  37.664  1.00  0.00     0.012 C 
HETATM   40  C   UNL     1      53.239  21.936  37.077  1.00  0.00     0.012 C 
ENDBRANCH  16  38
BRANCH  18  41
HETATM   41  C   UNL     1      57.447  17.457  34.297  1.00  0.00     0.016 C 
HETATM   42  C   UNL     1      58.823  17.709  34.909  1.00  0.00     0.012 C 
HETATM   43  C   UNL     1      57.562  16.554  33.071  1.00  0.00     0.012 C 
ENDBRANCH  18  41
BRANCH  15  44
HETATM   44  C   UNL     1      58.339  22.846  35.694  1.00  0.00     0.010 C 
HETATM   45  C   UNL     1      59.073  22.909  37.031  1.00  0.00     0.012 C 
HETATM   46  C   UNL     1      58.129  24.247  35.128  1.00  0.00     0.012 C 
ENDBRANCH  15  44
TORSDOF 7
ENDMDL
MODEL 18
REMARK VINA RESULT:    -4.210      2.093      7.449
REMARK INTER + INTRA:          -5.076
REMARK INTER:                  -6.163
REMARK INTRA:                   1.087
REMARK UNBOUND:                 0.856
REMARK  7 active torsions:
REMARK  status: ('A' for Active; 'I' for Inactive)
REMARK    1  A    between atoms: C_13  and  C_14 
REMARK    2  A    between atoms: C_14  and  C_19 
REMARK    3  A    between atoms: C_15  and  C_20 
REMARK    4  A    between atoms: C_16  and  C_21 
REMARK    5  A    between atoms: C_17  and  C_23 
REMARK    6  A    between atoms: C_18  and  C_26 
REMARK    7  A    between atoms: C_22  and  C_28 
ROOT
HETATM    1  O   UNL     1      53.312  18.609  29.859  1.00  0.00    -0.304 OA
HETATM    2  O   UNL     1      53.333  19.361  35.028  1.00  0.00    -0.304 OA
HETATM    3  O   UNL     1      49.574  17.199  33.147  1.00  0.00    -0.304 OA
HETATM    4  O   UNL     1      53.747  21.005  32.321  1.00  0.00    -0.270 OA
HETATM    5  O   UNL     1      53.782  17.019  31.461  1.00  0.00    -0.263 OA
HETATM    6  O   UNL     1      51.369  19.678  31.199  1.00  0.00    -0.270 OA
HETATM    7  O   UNL     1      49.679  17.993  36.289  1.00  0.00    -0.270 OA
HETATM    8  O   UNL     1      54.185  19.462  37.159  1.00  0.00    -0.263 OA
HETATM    9  O   UNL     1      48.175  18.870  33.890  1.00  0.00    -0.263 OA
HETATM   10  N   UNL     1      55.170  19.200  32.642  1.00  0.00    -0.340 N 
HETATM   11  N   UNL     1      49.748  18.110  30.687  1.00  0.00    -0.340 N 
HETATM   12  N   UNL     1      51.747  17.256  35.517  1.00  0.00    -0.340 N 
HETATM   13  C   UNL     1      55.230  18.955  31.186  1.00  0.00     0.190 C 
HETATM   14  C   UNL     1      48.773  18.806  31.554  1.00  0.00     0.190 C 
HETATM   15  C   UNL     1      52.472  17.829  36.670  1.00  0.00     0.190 C 
HETATM   16  C   UNL     1      54.196  20.433  34.600  1.00  0.00     0.227 C 
HETATM   17  C   UNL     1      52.017  18.027  29.594  1.00  0.00     0.227 C 
HETATM   18  C   UNL     1      49.630  16.503  34.406  1.00  0.00     0.227 C 
HETATM   19  C   UNL     1      54.347  20.248  33.093  1.00  0.00     0.250 C 
HETATM   20  C   UNL     1      54.047  18.057  30.869  1.00  0.00     0.283 C 
HETATM   21  C   UNL     1      51.025  18.675  30.564  1.00  0.00     0.250 C 
HETATM   22  C   UNL     1      50.343  17.328  35.487  1.00  0.00     0.250 C 
HETATM   23  C   UNL     1      53.436  18.961  36.326  1.00  0.00     0.283 C 
HETATM   24  C   UNL     1      48.811  18.315  33.000  1.00  0.00     0.283 C 
HETATM   25  C   UNL     1      55.941  18.313  33.519  1.00  0.00     0.153 C 
HETATM   26  C   UNL     1      49.326  16.861  30.047  1.00  0.00     0.153 C 
HETATM   27  C   UNL     1      52.521  16.478  34.549  1.00  0.00     0.153 C 
ENDROOT
BRANCH  17  28
HETATM   28  C   UNL     1      51.664  18.371  28.155  1.00  0.00     0.016 C 
HETATM   29  C   UNL     1      51.574  19.885  27.969  1.00  0.00     0.012 C 
HETATM   30  C   UNL     1      52.688  17.775  27.190  1.00  0.00     0.012 C 
ENDBRANCH  17  28
BRANCH  13  31
HETATM   31  C   UNL     1      56.520  18.330  30.667  1.00  0.00     0.014 C 
HETATM   32  C   UNL     1      56.257  17.630  29.333  1.00  0.00     0.012 C 
BRANCH  31  33
HETATM   33  C   UNL     1      57.617  19.404  30.557  1.00  0.00     0.002 C 
HETATM   34  C   UNL     1      58.689  19.081  29.526  1.00  0.00     0.005 C 
ENDBRANCH  31  33
ENDBRANCH  13  31
BRANCH  14  35
HETATM   35  C   UNL     1      47.338  18.755  31.031  1.00  0.00     0.010 C 
HETATM   36  C   UNL     1      46.359  18.464  32.166  1.00  0.00     0.012 C 
HETATM   37  C   UNL     1      46.971  20.064  30.331  1.00  0.00     0.012 C 
ENDBRANCH  14  35
BRANCH  16  38
HETATM   38  C   UNL     1      53.530  21.763  34.942  1.00  0.00     0.016 C 
HETATM   39  C   UNL     1      54.287  22.474  36.062  1.00  0.00     0.012 C 
HETATM   40  C   UNL     1      52.069  21.550  35.335  1.00  0.00     0.012 C 
ENDBRANCH  16  38
BRANCH  18  41
HETATM   41  C   UNL     1      48.250  16.018  34.848  1.00  0.00     0.016 C 
HETATM   42  C   UNL     1      48.364  15.132  36.087  1.00  0.00     0.012 C 
HETATM   43  C   UNL     1      47.556  15.267  33.714  1.00  0.00     0.012 C 
ENDBRANCH  18  41
BRANCH  15  44
HETATM   44  C   UNL     1      53.187  16.742  37.473  1.00  0.00     0.010 C 
HETATM   45  C   UNL     1      54.376  16.193  36.690  1.00  0.00     0.012 C 
HETATM   46  C   UNL     1      52.216  15.622  37.836  1.00  0.00     0.012 C 
ENDBRANCH  15  44
TORSDOF 7
ENDMDL
MODEL 19
REMARK VINA RESULT:    -4.190     23.188     27.046
REMARK INTER + INTRA:          -5.048
REMARK INTER:                  -6.380
REMARK INTRA:                   1.332
REMARK UNBOUND:                 0.856
REMARK  7 active torsions:
REMARK  status: ('A' for Active; 'I' for Inactive)
REMARK    1  A    between atoms: C_13  and  C_14 
REMARK    2  A    between atoms: C_14  and  C_19 
REMARK    3  A    between atoms: C_15  and  C_20 
REMARK    4  A    between atoms: C_16  and  C_21 
REMARK    5  A    between atoms: C_17  and  C_23 
REMARK    6  A    between atoms: C_18  and  C_26 
REMARK    7  A    between atoms: C_22  and  C_28 
ROOT
HETATM    1  O   UNL     1      60.639  33.484  13.226  1.00  0.00    -0.304 OA
HETATM    2  O   UNL     1      64.299  32.235  16.738  1.00  0.00    -0.304 OA
HETATM    3  O   UNL     1      63.228  36.811  16.227  1.00  0.00    -0.304 OA
HETATM    4  O   UNL     1      63.588  31.721  13.667  1.00  0.00    -0.270 OA
HETATM    5  O   UNL     1      60.349  33.378  15.511  1.00  0.00    -0.263 OA
HETATM    6  O   UNL     1      62.979  34.588  13.370  1.00  0.00    -0.270 OA
HETATM    7  O   UNL     1      65.642  35.839  18.160  1.00  0.00    -0.270 OA
HETATM    8  O   UNL     1      65.320  31.037  18.412  1.00  0.00    -0.263 OA
HETATM    9  O   UNL     1      65.387  37.299  15.594  1.00  0.00    -0.263 OA
HETATM   10  N   UNL     1      61.978  31.069  15.206  1.00  0.00    -0.340 N 
HETATM   11  N   UNL     1      62.270  36.751  13.779  1.00  0.00    -0.340 N 
HETATM   12  N   UNL     1      63.824  34.391  18.259  1.00  0.00    -0.340 N 
HETATM   13  C   UNL     1      60.898  31.373  14.245  1.00  0.00     0.190 C 
HETATM   14  C   UNL     1      63.671  37.208  13.901  1.00  0.00     0.190 C 
HETATM   15  C   UNL     1      64.619  33.304  18.868  1.00  0.00     0.190 C 
HETATM   16  C   UNL     1      64.409  31.120  15.831  1.00  0.00     0.227 C 
HETATM   17  C   UNL     1      60.615  34.928  13.243  1.00  0.00     0.227 C 
HETATM   18  C   UNL     1      63.503  36.799  17.639  1.00  0.00     0.227 C 
HETATM   19  C   UNL     1      63.300  31.328  14.803  1.00  0.00     0.250 C 
HETATM   20  C   UNL     1      60.581  32.848  14.432  1.00  0.00     0.283 C 
HETATM   21  C   UNL     1      62.053  35.400  13.472  1.00  0.00     0.250 C 
HETATM   22  C   UNL     1      64.430  35.639  18.034  1.00  0.00     0.250 C 
HETATM   23  C   UNL     1      64.779  32.059  18.000  1.00  0.00     0.283 C 
HETATM   24  C   UNL     1      64.206  37.099  15.327  1.00  0.00     0.283 C 
HETATM   25  C   UNL     1      61.597  30.552  16.525  1.00  0.00     0.153 C 
HETATM   26  C   UNL     1      61.207  37.729  14.023  1.00  0.00     0.153 C 
HETATM   27  C   UNL     1      62.388  34.165  18.088  1.00  0.00     0.153 C 
ENDROOT
BRANCH  17  28
HETATM   28  C   UNL     1      60.113  35.377  11.878  1.00  0.00     0.016 C 
HETATM   29  C   UNL     1      60.447  34.335  10.812  1.00  0.00     0.012 C 
HETATM   30  C   UNL     1      58.608  35.640  11.916  1.00  0.00     0.012 C 
ENDBRANCH  17  28
BRANCH  13  31
HETATM   31  C   UNL     1      59.628  30.540  14.382  1.00  0.00     0.014 C 
HETATM   32  C   UNL     1      58.635  31.255  15.300  1.00  0.00     0.012 C 
BRANCH  31  33
HETATM   33  C   UNL     1      59.035  30.255  12.990  1.00  0.00     0.002 C 
HETATM   34  C   UNL     1      57.675  30.897  12.761  1.00  0.00     0.005 C 
ENDBRANCH  31  33
ENDBRANCH  13  31
BRANCH  14  35
HETATM   35  C   UNL     1      63.906  38.622  13.370  1.00  0.00     0.010 C 
HETATM   36  C   UNL     1      64.184  39.591  14.517  1.00  0.00     0.012 C 
HETATM   37  C   UNL     1      65.058  38.637  12.365  1.00  0.00     0.012 C 
ENDBRANCH  14  35
BRANCH  16  38
HETATM   38  C   UNL     1      65.791  31.149  15.185  1.00  0.00     0.016 C 
HETATM   39  C   UNL     1      66.636  29.971  15.665  1.00  0.00     0.012 C 
HETATM   40  C   UNL     1      66.498  32.471  15.483  1.00  0.00     0.012 C 
ENDBRANCH  16  38
BRANCH  18  41
HETATM   41  C   UNL     1      64.012  38.154  18.131  1.00  0.00     0.016 C 
HETATM   42  C   UNL     1      64.279  38.114  19.633  1.00  0.00     0.012 C 
HETATM   43  C   UNL     1      63.011  39.256  17.792  1.00  0.00     0.012 C 
ENDBRANCH  18  41
BRANCH  15  44
HETATM   44  C   UNL     1      64.080  32.929  20.249  1.00  0.00     0.010 C 
HETATM   45  C   UNL     1      62.734  32.222  20.124  1.00  0.00     0.012 C 
HETATM   46  C   UNL     1      63.958  34.169  21.130  1.00  0.00     0.012 C 
ENDBRANCH  15  44
TORSDOF 7
ENDMDL
MODEL 20
REMARK VINA RESULT:    -4.077     21.266     25.962
REMARK INTER + INTRA:          -4.890
REMARK INTER:                  -5.480
REMARK INTRA:                   0.590
REMARK UNBOUND:                 0.856
REMARK  7 active torsions:
REMARK  status: ('A' for Active; 'I' for Inactive)
REMARK    1  A    between atoms: C_13  and  C_14 
REMARK    2  A    between atoms: C_14  and  C_19 
REMARK    3  A    between atoms: C_15  and  C_20 
REMARK    4  A    between atoms: C_16  and  C_21 
REMARK    5  A    between atoms: C_17  and  C_23 
REMARK    6  A    between atoms: C_18  and  C_26 
REMARK    7  A    between atoms: C_22  and  C_28 
ROOT
HETATM    1  O   UNL     1      60.771  33.128  12.667  1.00  0.00    -0.304 OA
HETATM    2  O   UNL     1      62.622  30.397  16.718  1.00  0.00    -0.304 OA
HETATM    3  O   UNL     1      63.174  35.091  16.809  1.00  0.00    -0.304 OA
HETATM    4  O   UNL     1      62.775  30.437  13.527  1.00  0.00    -0.270 OA
HETATM    5  O   UNL     1      59.773  32.919  14.735  1.00  0.00    -0.263 OA
HETATM    6  O   UNL     1      63.170  33.354  13.623  1.00  0.00    -0.270 OA
HETATM    7  O   UNL     1      64.469  33.185  19.089  1.00  0.00    -0.270 OA
HETATM    8  O   UNL     1      62.672  28.777  18.346  1.00  0.00    -0.263 OA
HETATM    9  O   UNL     1      65.465  34.873  16.866  1.00  0.00    -0.263 OA
HETATM   10  N   UNL     1      60.652  30.232  14.441  1.00  0.00    -0.340 N 
HETATM   11  N   UNL     1      63.046  35.583  14.229  1.00  0.00    -0.340 N 
HETATM   12  N   UNL     1      62.365  32.438  18.436  1.00  0.00    -0.340 N 
HETATM   13  C   UNL     1      60.063  30.971  13.306  1.00  0.00     0.190 C 
HETATM   14  C   UNL     1      64.410  35.524  14.797  1.00  0.00     0.190 C 
HETATM   15  C   UNL     1      62.572  31.096  19.018  1.00  0.00     0.190 C 
HETATM   16  C   UNL     1      62.670  29.398  15.680  1.00  0.00     0.227 C 
HETATM   17  C   UNL     1      61.174  34.487  12.947  1.00  0.00     0.227 C 
HETATM   18  C   UNL     1      62.983  34.857  18.216  1.00  0.00     0.227 C 
HETATM   19  C   UNL     1      62.048  30.063  14.455  1.00  0.00     0.250 C 
HETATM   20  C   UNL     1      60.157  32.442  13.676  1.00  0.00     0.283 C 
HETATM   21  C   UNL     1      62.543  34.419  13.629  1.00  0.00     0.250 C 
HETATM   22  C   UNL     1      63.354  33.421  18.615  1.00  0.00     0.250 C 
HETATM   23  C   UNL     1      62.614  29.954  18.005  1.00  0.00     0.283 C 
HETATM   24  C   UNL     1      64.421  35.110  16.267  1.00  0.00     0.283 C 
HETATM   25  C   UNL     1      59.746  29.758  15.493  1.00  0.00     0.153 C 
HETATM   26  C   UNL     1      62.301  36.837  14.364  1.00  0.00     0.153 C 
HETATM   27  C   UNL     1      61.053  32.729  17.856  1.00  0.00     0.153 C 
ENDROOT
BRANCH  17  28
HETATM   28  C   UNL     1      61.275  35.201  11.607  1.00  0.00     0.016 C 
HETATM   29  C   UNL     1      61.360  34.192  10.463  1.00  0.00     0.012 C 
HETATM   30  C   UNL     1      60.086  36.140  11.405  1.00  0.00     0.012 C 
ENDBRANCH  17  28
BRANCH  13  31
HETATM   31  C   UNL     1      58.626  30.610  12.947  1.00  0.00     0.014 C 
HETATM   32  C   UNL     1      57.897  31.845  12.415  1.00  0.00     0.012 C 
BRANCH  31  33
HETATM   33  C   UNL     1      58.612  29.446  11.940  1.00  0.00     0.002 C 
HETATM   34  C   UNL     1      59.859  29.375  11.070  1.00  0.00     0.005 C 
ENDBRANCH  31  33
ENDBRANCH  13  31
BRANCH  14  35
HETATM   35  C   UNL     1      65.207  36.816  14.619  1.00  0.00     0.010 C 
HETATM   36  C   UNL     1      65.325  37.564  15.946  1.00  0.00     0.012 C 
HETATM   37  C   UNL     1      66.593  36.522  14.046  1.00  0.00     0.012 C 
ENDBRANCH  14  35
BRANCH  16  38
HETATM   38  C   UNL     1      64.127  29.015  15.435  1.00  0.00     0.016 C 
HETATM   39  C   UNL     1      64.390  27.579  15.885  1.00  0.00     0.012 C 
HETATM   40  C   UNL     1      65.066  29.982  16.154  1.00  0.00     0.012 C 
ENDBRANCH  16  38
BRANCH  18  41
HETATM   41  C   UNL     1      63.694  35.909  19.067  1.00  0.00     0.016 C 
HETATM   42  C   UNL     1      63.489  35.624  20.553  1.00  0.00     0.012 C 
HETATM   43  C   UNL     1      63.196  37.309  18.716  1.00  0.00     0.012 C 
ENDBRANCH  18  41
BRANCH  15  44
HETATM   44  C   UNL     1      61.548  30.801  20.115  1.00  0.00     0.010 C 
HETATM   45  C   UNL     1      62.249  30.363  21.397  1.00  0.00     0.012 C 
HETATM   46  C   UNL     1      60.559  29.736  19.650  1.00  0.00     0.012 C 
ENDBRANCH  15  44
TORSDOF 7
ENDMDL
