MODEL 1
REMARK VINA RESULT:    -5.140      0.000      0.000
REMARK INTER + INTRA:          -6.187
REMARK INTER:                  -7.243
REMARK INTRA:                   1.056
REMARK UNBOUND:                 1.056
REMARK  7 active torsions:
REMARK  status: ('A' for Active; 'I' for Inactive)
REMARK    1  A    between atoms: C_13  and  C_14 
REMARK    2  A    between atoms: C_14  and  C_19 
REMARK    3  A    between atoms: C_15  and  C_20 
REMARK    4  A    between atoms: C_16  and  C_21 
REMARK    5  A    between atoms: C_17  and  C_23 
REMARK    6  A    between atoms: C_18  and  C_26 
REMARK    7  A    between atoms: C_22  and  C_28 
ROOT
HETATM    1  O   UNL     1      46.323  38.239   1.643  1.00  0.00    -0.304 OA
HETATM    2  O   UNL     1      45.497  33.256   2.976  1.00  0.00    -0.304 OA
HETATM    3  O   UNL     1      49.969  34.785   2.889  1.00  0.00    -0.304 OA
HETATM    4  O   UNL     1      44.741  35.319   0.658  1.00  0.00    -0.270 OA
HETATM    5  O   UNL     1      46.357  37.381   3.784  1.00  0.00    -0.263 OA
HETATM    6  O   UNL     1      47.548  36.212   0.593  1.00  0.00    -0.270 OA
HETATM    7  O   UNL     1      49.250  31.672   3.438  1.00  0.00    -0.270 OA
HETATM    8  O   UNL     1      44.467  31.466   3.983  1.00  0.00    -0.263 OA
HETATM    9  O   UNL     1      50.520  33.244   1.269  1.00  0.00    -0.263 OA
HETATM   10  N   UNL     1      44.116  35.931   2.807  1.00  0.00    -0.340 N 
HETATM   11  N   UNL     1      49.696  36.798   1.219  1.00  0.00    -0.340 N 
HETATM   12  N   UNL     1      47.725  33.101   4.459  1.00  0.00    -0.340 N 
HETATM   13  C   UNL     1      44.301  37.361   2.482  1.00  0.00     0.190 C 
HETATM   14  C   UNL     1      50.229  35.551   0.628  1.00  0.00     0.190 C 
HETATM   15  C   UNL     1      46.722  32.030   4.643  1.00  0.00     0.190 C 
HETATM   16  C   UNL     1      44.330  33.513   2.170  1.00  0.00     0.227 C 
HETATM   17  C   UNL     1      47.762  38.362   1.620  1.00  0.00     0.227 C 
HETATM   18  C   UNL     1      50.066  33.862   3.989  1.00  0.00     0.227 C 
HETATM   19  C   UNL     1      44.413  34.992   1.804  1.00  0.00     0.250 C 
HETATM   20  C   UNL     1      45.767  37.659   2.748  1.00  0.00     0.283 C 
HETATM   21  C   UNL     1      48.318  37.032   1.103  1.00  0.00     0.250 C 
HETATM   22  C   UNL     1      48.983  32.775   3.924  1.00  0.00     0.250 C 
HETATM   23  C   UNL     1      45.431  32.215   3.851  1.00  0.00     0.283 C 
HETATM   24  C   UNL     1      50.243  34.387   1.617  1.00  0.00     0.283 C 
HETATM   25  C   UNL     1      43.672  35.589   4.162  1.00  0.00     0.153 C 
HETATM   26  C   UNL     1      50.635  37.682   1.914  1.00  0.00     0.153 C 
HETATM   27  C   UNL     1      47.417  34.419   5.015  1.00  0.00     0.153 C 
ENDROOT
BRANCH  17  28
HETATM   28  C   UNL     1      48.091  39.493   0.656  1.00  0.00     0.016 C 
HETATM   29  C   UNL     1      46.815  40.187   0.182  1.00  0.00     0.012 C 
HETATM   30  C   UNL     1      49.037  40.499   1.309  1.00  0.00     0.012 C 
ENDBRANCH  17  28
BRANCH  13  31
HETATM   31  C   UNL     1      43.418  38.339   3.248  1.00  0.00     0.014 C 
HETATM   32  C   UNL     1      44.166  39.656   3.462  1.00  0.00     0.012 C 
BRANCH  31  33
HETATM   33  C   UNL     1      42.086  38.539   2.503  1.00  0.00     0.002 C 
HETATM   34  C   UNL     1      41.299  39.755   2.970  1.00  0.00     0.005 C 
ENDBRANCH  31  33
ENDBRANCH  13  31
BRANCH  14  35
HETATM   35  C   UNL     1      51.613  35.710   0.000  1.00  0.00     0.010 C 
HETATM   36  C   UNL     1      52.675  35.017   0.851  1.00  0.00     0.012 C 
HETATM   37  C   UNL     1      51.627  35.158  -1.425  1.00  0.00     0.012 C 
ENDBRANCH  14  35
BRANCH  16  38
HETATM   38  C   UNL     1      44.383  32.620   0.933  1.00  0.00     0.016 C 
HETATM   39  C   UNL     1      43.269  31.576   0.972  1.00  0.00     0.012 C 
HETATM   40  C   UNL     1      45.748  31.943   0.815  1.00  0.00     0.012 C 
ENDBRANCH  16  38
BRANCH  18  41
HETATM   41  C   UNL     1      51.475  33.285   4.123  1.00  0.00     0.016 C 
HETATM   42  C   UNL     1      51.527  32.254   5.248  1.00  0.00     0.012 C 
HETATM   43  C   UNL     1      52.490  34.399   4.368  1.00  0.00     0.012 C 
ENDBRANCH  18  41
BRANCH  15  44
HETATM   44  C   UNL     1      46.415  31.805   6.124  1.00  0.00     0.010 C 
HETATM   45  C   UNL     1      47.690  31.910   6.956  1.00  0.00     0.012 C 
HETATM   46  C   UNL     1      45.747  30.449   6.330  1.00  0.00     0.012 C 
ENDBRANCH  15  44
TORSDOF 7
ENDMDL
MODEL 2
REMARK VINA RESULT:    -5.050      1.760      8.160
REMARK INTER + INTRA:          -6.061
REMARK INTER:                  -6.891
REMARK INTRA:                   0.830
REMARK UNBOUND:                 1.056
REMARK  7 active torsions:
REMARK  status: ('A' for Active; 'I' for Inactive)
REMARK    1  A    between atoms: C_13  and  C_14 
REMARK    2  A    between atoms: C_14  and  C_19 
REMARK    3  A    between atoms: C_15  and  C_20 
REMARK    4  A    between atoms: C_16  and  C_21 
REMARK    5  A    between atoms: C_17  and  C_23 
REMARK    6  A    between atoms: C_18  and  C_26 
REMARK    7  A    between atoms: C_22  and  C_28 
ROOT
HETATM    1  O   UNL     1      47.380  32.587   4.656  1.00  0.00    -0.304 OA
HETATM    2  O   UNL     1      48.796  35.862   0.840  1.00  0.00    -0.304 OA
HETATM    3  O   UNL     1      44.387  36.221   2.506  1.00  0.00    -0.304 OA
HETATM    4  O   UNL     1      48.795  32.737   1.498  1.00  0.00    -0.270 OA
HETATM    5  O   UNL     1      47.963  34.804   4.914  1.00  0.00    -0.263 OA
HETATM    6  O   UNL     1      46.029  32.985   2.480  1.00  0.00    -0.270 OA
HETATM    7  O   UNL     1      45.392  37.976  -0.027  1.00  0.00    -0.270 OA
HETATM    8  O   UNL     1      50.151  37.293  -0.341  1.00  0.00    -0.263 OA
HETATM    9  O   UNL     1      43.508  35.734   0.435  1.00  0.00    -0.263 OA
HETATM   10  N   UNL     1      49.937  34.091   2.997  1.00  0.00    -0.340 N 
HETATM   11  N   UNL     1      44.097  33.790   3.465  1.00  0.00    -0.340 N 
HETATM   12  N   UNL     1      47.055  37.760   1.584  1.00  0.00    -0.340 N 
HETATM   13  C   UNL     1      49.596  33.187   4.114  1.00  0.00     0.190 C 
HETATM   14  C   UNL     1      43.494  34.024   2.135  1.00  0.00     0.190 C 
HETATM   15  C   UNL     1      48.126  38.164   0.649  1.00  0.00     0.190 C 
HETATM   16  C   UNL     1      49.691  34.760   0.590  1.00  0.00     0.227 C 
HETATM   17  C   UNL     1      45.982  32.882   4.870  1.00  0.00     0.227 C 
HETATM   18  C   UNL     1      44.636  37.610   2.222  1.00  0.00     0.227 C 
HETATM   19  C   UNL     1      49.434  33.771   1.723  1.00  0.00     0.250 C 
HETATM   20  C   UNL     1      48.240  33.648   4.621  1.00  0.00     0.283 C 
HETATM   21  C   UNL     1      45.380  33.224   3.504  1.00  0.00     0.250 C 
HETATM   22  C   UNL     1      45.719  37.791   1.149  1.00  0.00     0.250 C 
HETATM   23  C   UNL     1      49.149  37.076   0.332  1.00  0.00     0.283 C 
HETATM   24  C   UNL     1      43.806  35.412   1.580  1.00  0.00     0.283 C 
HETATM   25  C   UNL     1      50.743  35.278   3.298  1.00  0.00     0.153 C 
HETATM   26  C   UNL     1      43.332  34.197   4.646  1.00  0.00     0.153 C 
HETATM   27  C   UNL     1      47.429  37.522   2.979  1.00  0.00     0.153 C 
ENDROOT
BRANCH  17  28
HETATM   28  C   UNL     1      45.347  31.620   5.435  1.00  0.00     0.016 C 
HETATM   29  C   UNL     1      45.032  30.627   4.317  1.00  0.00     0.012 C 
HETATM   30  C   UNL     1      46.260  30.978   6.479  1.00  0.00     0.012 C 
ENDBRANCH  17  28
BRANCH  13  31
HETATM   31  C   UNL     1      50.598  33.136   5.263  1.00  0.00     0.014 C 
HETATM   32  C   UNL     1      49.922  32.582   6.518  1.00  0.00     0.012 C 
BRANCH  31  33
HETATM   33  C   UNL     1      51.829  32.311   4.850  1.00  0.00     0.002 C 
HETATM   34  C   UNL     1      51.484  30.971   4.215  1.00  0.00     0.005 C 
ENDBRANCH  31  33
ENDBRANCH  13  31
BRANCH  14  35
HETATM   35  C   UNL     1      41.986  33.779   2.092  1.00  0.00     0.010 C 
HETATM   36  C   UNL     1      41.225  35.102   2.043  1.00  0.00     0.012 C 
HETATM   37  C   UNL     1      41.615  32.904   0.895  1.00  0.00     0.012 C 
ENDBRANCH  14  35
BRANCH  16  38
HETATM   38  C   UNL     1      49.357  34.158  -0.772  1.00  0.00     0.016 C 
HETATM   39  C   UNL     1      50.488  34.415  -1.767  1.00  0.00     0.012 C 
HETATM   40  C   UNL     1      48.040  34.720  -1.302  1.00  0.00     0.012 C 
ENDBRANCH  16  38
BRANCH  18  41
HETATM   41  C   UNL     1      43.347  38.362   1.893  1.00  0.00     0.016 C 
HETATM   42  C   UNL     1      43.662  39.753   1.349  1.00  0.00     0.012 C 
HETATM   43  C   UNL     1      42.452  38.458   3.127  1.00  0.00     0.012 C 
ENDBRANCH  18  41
BRANCH  15  44
HETATM   44  C   UNL     1      48.828  39.437   1.124  1.00  0.00     0.010 C 
HETATM   45  C   UNL     1      48.967  40.431  -0.025  1.00  0.00     0.012 C 
HETATM   46  C   UNL     1      50.194  39.104   1.716  1.00  0.00     0.012 C 
ENDBRANCH  15  44
TORSDOF 7
ENDMDL
MODEL 3
REMARK VINA RESULT:    -4.836      2.026      4.394
REMARK INTER + INTRA:          -5.760
REMARK INTER:                  -6.367
REMARK INTRA:                   0.607
REMARK UNBOUND:                 1.056
REMARK  7 active torsions:
REMARK  status: ('A' for Active; 'I' for Inactive)
REMARK    1  A    between atoms: C_13  and  C_14 
REMARK    2  A    between atoms: C_14  and  C_19 
REMARK    3  A    between atoms: C_15  and  C_20 
REMARK    4  A    between atoms: C_16  and  C_21 
REMARK    5  A    between atoms: C_17  and  C_23 
REMARK    6  A    between atoms: C_18  and  C_26 
REMARK    7  A    between atoms: C_22  and  C_28 
ROOT
HETATM    1  O   UNL     1      50.828  37.878   1.285  1.00  0.00    -0.304 OA
HETATM    2  O   UNL     1      46.202  35.452   1.339  1.00  0.00    -0.304 OA
HETATM    3  O   UNL     1      49.556  33.831   4.249  1.00  0.00    -0.304 OA
HETATM    4  O   UNL     1      48.445  36.383  -0.736  1.00  0.00    -0.270 OA
HETATM    5  O   UNL     1      49.176  38.138   2.873  1.00  0.00    -0.263 OA
HETATM    6  O   UNL     1      50.507  35.315   1.077  1.00  0.00    -0.270 OA
HETATM    7  O   UNL     1      46.705  32.319   3.936  1.00  0.00    -0.270 OA
HETATM    8  O   UNL     1      43.915  35.231   1.298  1.00  0.00    -0.263 OA
HETATM    9  O   UNL     1      49.529  31.773   3.219  1.00  0.00    -0.263 OA
HETATM   10  N   UNL     1      47.510  38.058   0.571  1.00  0.00    -0.340 N 
HETATM   11  N   UNL     1      51.683  34.707   2.974  1.00  0.00    -0.340 N 
HETATM   12  N   UNL     1      46.464  34.633   3.878  1.00  0.00    -0.340 N 
HETATM   13  C   UNL     1      48.783  38.808   0.566  1.00  0.00     0.190 C 
HETATM   14  C   UNL     1      51.348  33.284   2.748  1.00  0.00     0.190 C 
HETATM   15  C   UNL     1      45.112  34.558   3.287  1.00  0.00     0.190 C 
HETATM   16  C   UNL     1      46.204  35.991   0.002  1.00  0.00     0.227 C 
HETATM   17  C   UNL     1      51.642  37.102   2.192  1.00  0.00     0.227 C 
HETATM   18  C   UNL     1      48.402  33.583   5.072  1.00  0.00     0.227 C 
HETATM   19  C   UNL     1      47.482  36.819  -0.094  1.00  0.00     0.250 C 
HETATM   20  C   UNL     1      49.593  38.256   1.728  1.00  0.00     0.283 C 
HETATM   21  C   UNL     1      51.223  35.638   2.031  1.00  0.00     0.250 C 
HETATM   22  C   UNL     1      47.121  33.443   4.237  1.00  0.00     0.250 C 
HETATM   23  C   UNL     1      44.993  35.126   1.875  1.00  0.00     0.283 C 
HETATM   24  C   UNL     1      50.036  32.872   3.412  1.00  0.00     0.283 C 
HETATM   25  C   UNL     1      46.376  38.637   1.298  1.00  0.00     0.153 C 
HETATM   26  C   UNL     1      52.436  35.050   4.182  1.00  0.00     0.153 C 
HETATM   27  C   UNL     1      46.978  35.958   4.227  1.00  0.00     0.153 C 
ENDROOT
BRANCH  17  28
HETATM   28  C   UNL     1      53.089  37.297   1.763  1.00  0.00     0.016 C 
HETATM   29  C   UNL     1      53.171  37.605   0.268  1.00  0.00     0.012 C 
HETATM   30  C   UNL     1      53.747  38.411   2.576  1.00  0.00     0.012 C 
ENDBRANCH  17  28
BRANCH  13  31
HETATM   31  C   UNL     1      48.666  40.324   0.680  1.00  0.00     0.014 C 
HETATM   32  C   UNL     1      49.911  40.891   1.362  1.00  0.00     0.012 C 
BRANCH  31  33
HETATM   33  C   UNL     1      48.431  40.938  -0.712  1.00  0.00     0.002 C 
HETATM   34  C   UNL     1      47.067  41.595  -0.869  1.00  0.00     0.005 C 
ENDBRANCH  31  33
ENDBRANCH  13  31
BRANCH  14  35
HETATM   35  C   UNL     1      52.459  32.318   3.160  1.00  0.00     0.010 C 
HETATM   36  C   UNL     1      52.052  31.523   4.398  1.00  0.00     0.012 C 
HETATM   37  C   UNL     1      52.808  31.374   2.009  1.00  0.00     0.012 C 
ENDBRANCH  14  35
BRANCH  16  38
HETATM   38  C   UNL     1      46.205  34.833  -0.993  1.00  0.00     0.016 C 
HETATM   39  C   UNL     1      44.878  34.770  -1.748  1.00  0.00     0.012 C 
HETATM   40  C   UNL     1      46.477  33.510  -0.279  1.00  0.00     0.012 C 
ENDBRANCH  16  38
BRANCH  18  41
HETATM   41  C   UNL     1      48.623  32.404   6.018  1.00  0.00     0.016 C 
HETATM   42  C   UNL     1      47.411  32.211   6.927  1.00  0.00     0.012 C 
HETATM   43  C   UNL     1      49.888  32.610   6.848  1.00  0.00     0.012 C 
ENDBRANCH  18  41
BRANCH  15  44
HETATM   44  C   UNL     1      44.067  35.189   4.208  1.00  0.00     0.010 C 
HETATM   45  C   UNL     1      42.832  34.298   4.306  1.00  0.00     0.012 C 
HETATM   46  C   UNL     1      43.689  36.581   3.711  1.00  0.00     0.012 C 
ENDBRANCH  15  44
TORSDOF 7
ENDMDL
MODEL 4
REMARK VINA RESULT:    -4.794      2.104      6.513
REMARK INTER + INTRA:          -5.700
REMARK INTER:                  -6.669
REMARK INTRA:                   0.969
REMARK UNBOUND:                 1.056
REMARK  7 active torsions:
REMARK  status: ('A' for Active; 'I' for Inactive)
REMARK    1  A    between atoms: C_13  and  C_14 
REMARK    2  A    between atoms: C_14  and  C_19 
REMARK    3  A    between atoms: C_15  and  C_20 
REMARK    4  A    between atoms: C_16  and  C_21 
REMARK    5  A    between atoms: C_17  and  C_23 
REMARK    6  A    between atoms: C_18  and  C_26 
REMARK    7  A    between atoms: C_22  and  C_28 
ROOT
HETATM    1  O   UNL     1      45.237  36.117   3.049  1.00  0.00    -0.304 OA
HETATM    2  O   UNL     1      49.820  38.027   1.422  1.00  0.00    -0.304 OA
HETATM    3  O   UNL     1      49.690  33.495   2.762  1.00  0.00    -0.304 OA
HETATM    4  O   UNL     1      47.489  38.711   3.496  1.00  0.00    -0.270 OA
HETATM    5  O   UNL     1      46.194  35.774   0.979  1.00  0.00    -0.263 OA
HETATM    6  O   UNL     1      47.470  35.891   4.345  1.00  0.00    -0.270 OA
HETATM    7  O   UNL     1      52.475  34.949   1.963  1.00  0.00    -0.270 OA
HETATM    8  O   UNL     1      51.279  39.242   0.129  1.00  0.00    -0.263 OA
HETATM    9  O   UNL     1      51.223  33.890   4.432  1.00  0.00    -0.263 OA
HETATM   10  N   UNL     1      46.850  38.524   1.272  1.00  0.00    -0.340 N 
HETATM   11  N   UNL     1      47.590  33.580   4.342  1.00  0.00    -0.340 N 
HETATM   12  N   UNL     1      50.721  35.639   0.599  1.00  0.00    -0.340 N 
HETATM   13  C   UNL     1      45.523  38.009   1.670  1.00  0.00     0.190 C 
HETATM   14  C   UNL     1      48.900  33.628   5.025  1.00  0.00     0.190 C 
HETATM   15  C   UNL     1      51.453  36.831   0.123  1.00  0.00     0.190 C 
HETATM   16  C   UNL     1      49.179  39.231   1.885  1.00  0.00     0.227 C 
HETATM   17  C   UNL     1      45.548  34.770   3.467  1.00  0.00     0.227 C 
HETATM   18  C   UNL     1      50.664  33.392   1.708  1.00  0.00     0.227 C 
HETATM   19  C   UNL     1      47.772  38.805   2.296  1.00  0.00     0.250 C 
HETATM   20  C   UNL     1      45.692  36.506   1.821  1.00  0.00     0.283 C 
HETATM   21  C   UNL     1      46.949  34.801   4.083  1.00  0.00     0.250 C 
HETATM   22  C   UNL     1      51.373  34.730   1.449  1.00  0.00     0.250 C 
HETATM   23  C   UNL     1      50.845  38.169   0.537  1.00  0.00     0.283 C 
HETATM   24  C   UNL     1      50.073  33.704   4.050  1.00  0.00     0.283 C 
HETATM   25  C   UNL     1      47.126  38.673  -0.160  1.00  0.00     0.153 C 
HETATM   26  C   UNL     1      47.069  32.269   3.951  1.00  0.00     0.153 C 
HETATM   27  C   UNL     1      49.407  35.373   0.012  1.00  0.00     0.153 C 
ENDROOT
BRANCH  17  28
HETATM   28  C   UNL     1      44.510  34.383   4.511  1.00  0.00     0.016 C 
HETATM   29  C   UNL     1      43.849  35.627   5.101  1.00  0.00     0.012 C 
HETATM   30  C   UNL     1      43.459  33.452   3.908  1.00  0.00     0.012 C 
ENDBRANCH  17  28
BRANCH  13  31
HETATM   31  C   UNL     1      44.374  38.316   0.716  1.00  0.00     0.014 C 
HETATM   32  C   UNL     1      43.230  37.327   0.945  1.00  0.00     0.012 C 
BRANCH  31  33
HETATM   33  C   UNL     1      43.925  39.778   0.888  1.00  0.00     0.002 C 
HETATM   34  C   UNL     1      43.741  40.521  -0.427  1.00  0.00     0.005 C 
ENDBRANCH  31  33
ENDBRANCH  13  31
BRANCH  14  35
HETATM   35  C   UNL     1      49.123  32.481   6.011  1.00  0.00     0.010 C 
HETATM   36  C   UNL     1      50.479  32.617   6.700  1.00  0.00     0.012 C 
HETATM   37  C   UNL     1      47.999  32.433   7.046  1.00  0.00     0.012 C 
ENDBRANCH  14  35
BRANCH  16  38
HETATM   38  C   UNL     1      49.970  39.783   3.068  1.00  0.00     0.016 C 
HETATM   39  C   UNL     1      50.474  41.194   2.770  1.00  0.00     0.012 C 
HETATM   40  C   UNL     1      51.137  38.860   3.414  1.00  0.00     0.012 C 
ENDBRANCH  16  38
BRANCH  18  41
HETATM   41  C   UNL     1      51.642  32.243   1.949  1.00  0.00     0.016 C 
HETATM   42  C   UNL     1      52.473  31.973   0.697  1.00  0.00     0.012 C 
HETATM   43  C   UNL     1      50.893  30.983   2.378  1.00  0.00     0.012 C 
ENDBRANCH  18  41
BRANCH  15  44
HETATM   44  C   UNL     1      51.666  36.785  -1.390  1.00  0.00     0.010 C 
HETATM   45  C   UNL     1      53.111  37.131  -1.738  1.00  0.00     0.012 C 
HETATM   46  C   UNL     1      50.700  37.734  -2.094  1.00  0.00     0.012 C 
ENDBRANCH  15  44
TORSDOF 7
ENDMDL
MODEL 5
REMARK VINA RESULT:    -4.763      2.445      7.159
REMARK INTER + INTRA:          -5.656
REMARK INTER:                  -6.516
REMARK INTRA:                   0.860
REMARK UNBOUND:                 1.056
REMARK  7 active torsions:
REMARK  status: ('A' for Active; 'I' for Inactive)
REMARK    1  A    between atoms: C_13  and  C_14 
REMARK    2  A    between atoms: C_14  and  C_19 
REMARK    3  A    between atoms: C_15  and  C_20 
REMARK    4  A    between atoms: C_16  and  C_21 
REMARK    5  A    between atoms: C_17  and  C_23 
REMARK    6  A    between atoms: C_18  and  C_26 
REMARK    7  A    between atoms: C_22  and  C_28 
ROOT
HETATM    1  O   UNL     1      46.819  38.537   0.308  1.00  0.00    -0.304 OA
HETATM    2  O   UNL     1      45.866  34.231   3.107  1.00  0.00    -0.304 OA
HETATM    3  O   UNL     1      42.217  36.241   0.875  1.00  0.00    -0.304 OA
HETATM    4  O   UNL     1      47.253  37.091   3.425  1.00  0.00    -0.270 OA
HETATM    5  O   UNL     1      46.527  36.409  -0.530  1.00  0.00    -0.263 OA
HETATM    6  O   UNL     1      44.938  38.317   2.077  1.00  0.00    -0.270 OA
HETATM    7  O   UNL     1      41.805  33.717   2.867  1.00  0.00    -0.270 OA
HETATM    8  O   UNL     1      46.220  32.128   3.962  1.00  0.00    -0.263 OA
HETATM    9  O   UNL     1      41.127  36.603   2.870  1.00  0.00    -0.263 OA
HETATM   10  N   UNL     1      48.096  35.733   1.742  1.00  0.00    -0.340 N 
HETATM   11  N   UNL     1      43.146  38.691   0.663  1.00  0.00    -0.340 N 
HETATM   12  N   UNL     1      43.755  33.517   1.616  1.00  0.00    -0.340 N 
HETATM   13  C   UNL     1      48.419  36.914   0.915  1.00  0.00     0.190 C 
HETATM   14  C   UNL     1      42.198  38.467   1.775  1.00  0.00     0.190 C 
HETATM   15  C   UNL     1      44.321  32.487   2.512  1.00  0.00     0.190 C 
HETATM   16  C   UNL     1      47.032  34.736   3.786  1.00  0.00     0.227 C 
HETATM   17  C   UNL     1      45.515  38.949  -0.157  1.00  0.00     0.227 C 
HETATM   18  C   UNL     1      41.823  34.862   0.756  1.00  0.00     0.227 C 
HETATM   19  C   UNL     1      47.468  35.957   2.980  1.00  0.00     0.250 C 
HETATM   20  C   UNL     1      47.157  37.226   0.129  1.00  0.00     0.283 C 
HETATM   21  C   UNL     1      44.516  38.621   0.956  1.00  0.00     0.250 C 
HETATM   22  C   UNL     1      42.453  33.989   1.852  1.00  0.00     0.250 C 
HETATM   23  C   UNL     1      45.579  32.909   3.266  1.00  0.00     0.283 C 
HETATM   24  C   UNL     1      41.795  37.001   1.921  1.00  0.00     0.283 C 
HETATM   25  C   UNL     1      48.417  34.409   1.200  1.00  0.00     0.153 C 
HETATM   26  C   UNL     1      42.593  38.935  -0.671  1.00  0.00     0.153 C 
HETATM   27  C   UNL     1      44.518  33.862   0.415  1.00  0.00     0.153 C 
ENDROOT
BRANCH  17  28
HETATM   28  C   UNL     1      45.585  40.451  -0.391  1.00  0.00     0.016 C 
HETATM   29  C   UNL     1      46.990  40.977  -0.102  1.00  0.00     0.012 C 
HETATM   30  C   UNL     1      45.169  40.794  -1.821  1.00  0.00     0.012 C 
ENDBRANCH  17  28
BRANCH  13  31
HETATM   31  C   UNL     1      49.605  36.763  -0.031  1.00  0.00     0.014 C 
HETATM   32  C   UNL     1      49.521  37.812  -1.141  1.00  0.00     0.012 C 
BRANCH  31  33
HETATM   33  C   UNL     1      50.922  36.854   0.760  1.00  0.00     0.002 C 
HETATM   34  C   UNL     1      50.923  37.940   1.826  1.00  0.00     0.005 C 
ENDBRANCH  31  33
ENDBRANCH  13  31
BRANCH  14  35
HETATM   35  C   UNL     1      40.945  39.340   1.702  1.00  0.00     0.010 C 
HETATM   36  C   UNL     1      39.730  38.509   1.297  1.00  0.00     0.012 C 
HETATM   37  C   UNL     1      40.695  40.038   3.039  1.00  0.00     0.012 C 
ENDBRANCH  14  35
BRANCH  16  38
HETATM   38  C   UNL     1      46.644  35.111   5.214  1.00  0.00     0.016 C 
HETATM   39  C   UNL     1      47.172  34.077   6.206  1.00  0.00     0.012 C 
HETATM   40  C   UNL     1      45.128  35.249   5.341  1.00  0.00     0.012 C 
ENDBRANCH  16  38
BRANCH  18  41
HETATM   41  C   UNL     1      40.304  34.709   0.681  1.00  0.00     0.016 C 
HETATM   42  C   UNL     1      39.915  33.234   0.629  1.00  0.00     0.012 C 
HETATM   43  C   UNL     1      39.750  35.453  -0.532  1.00  0.00     0.012 C 
ENDBRANCH  18  41
BRANCH  15  44
HETATM   44  C   UNL     1      44.558  31.172   1.767  1.00  0.00     0.010 C 
HETATM   45  C   UNL     1      43.395  30.874   0.824  1.00  0.00     0.012 C 
HETATM   46  C   UNL     1      44.758  30.027   2.756  1.00  0.00     0.012 C 
ENDBRANCH  15  44
TORSDOF 7
ENDMDL
MODEL 6
REMARK VINA RESULT:    -4.622      3.918      8.633
REMARK INTER + INTRA:          -5.458
REMARK INTER:                  -6.479
REMARK INTRA:                   1.021
REMARK UNBOUND:                 1.056
REMARK  7 active torsions:
REMARK  status: ('A' for Active; 'I' for Inactive)
REMARK    1  A    between atoms: C_13  and  C_14 
REMARK    2  A    between atoms: C_14  and  C_19 
REMARK    3  A    between atoms: C_15  and  C_20 
REMARK    4  A    between atoms: C_16  and  C_21 
REMARK    5  A    between atoms: C_17  and  C_23 
REMARK    6  A    between atoms: C_18  and  C_26 
REMARK    7  A    between atoms: C_22  and  C_28 
ROOT
HETATM    1  O   UNL     1      42.417  33.869   1.862  1.00  0.00    -0.304 OA
HETATM    2  O   UNL     1      40.155  38.423   0.664  1.00  0.00    -0.304 OA
HETATM    3  O   UNL     1      44.820  38.056  -0.001  1.00  0.00    -0.304 OA
HETATM    4  O   UNL     1      40.333  36.349   3.087  1.00  0.00    -0.270 OA
HETATM    5  O   UNL     1      41.885  34.606  -0.257  1.00  0.00    -0.263 OA
HETATM    6  O   UNL     1      43.246  36.185   2.679  1.00  0.00    -0.270 OA
HETATM    7  O   UNL     1      43.260  40.864  -0.436  1.00  0.00    -0.270 OA
HETATM    8  O   UNL     1      38.557  39.852  -0.163  1.00  0.00    -0.263 OA
HETATM    9  O   UNL     1      45.221  39.760   1.493  1.00  0.00    -0.263 OA
HETATM   10  N   UNL     1      39.540  35.500   1.078  1.00  0.00    -0.340 N 
HETATM   11  N   UNL     1      45.341  36.120   1.701  1.00  0.00    -0.340 N 
HETATM   12  N   UNL     1      41.999  39.055  -1.177  1.00  0.00    -0.340 N 
HETATM   13  C   UNL     1      40.130  34.178   1.374  1.00  0.00     0.190 C 
HETATM   14  C   UNL     1      45.630  37.487   2.186  1.00  0.00     0.190 C 
HETATM   15  C   UNL     1      40.743  39.833  -1.193  1.00  0.00     0.190 C 
HETATM   16  C   UNL     1      39.238  37.924   1.657  1.00  0.00     0.227 C 
HETATM   17  C   UNL     1      43.825  34.108   1.642  1.00  0.00     0.227 C 
HETATM   18  C   UNL     1      44.501  38.921  -1.106  1.00  0.00     0.227 C 
HETATM   19  C   UNL     1      39.750  36.530   2.012  1.00  0.00     0.250 C 
HETATM   20  C   UNL     1      41.561  34.241   0.865  1.00  0.00     0.283 C 
HETATM   21  C   UNL     1      44.104  35.557   2.049  1.00  0.00     0.250 C 
HETATM   22  C   UNL     1      43.204  39.707  -0.864  1.00  0.00     0.250 C 
HETATM   23  C   UNL     1      39.687  39.373  -0.193  1.00  0.00     0.283 C 
HETATM   24  C   UNL     1      45.189  38.569   1.204  1.00  0.00     0.283 C 
HETATM   25  C   UNL     1      38.810  35.657  -0.184  1.00  0.00     0.153 C 
HETATM   26  C   UNL     1      46.345  35.464   0.861  1.00  0.00     0.153 C 
HETATM   27  C   UNL     1      41.948  37.676  -1.666  1.00  0.00     0.153 C 
ENDROOT
BRANCH  17  28
HETATM   28  C   UNL     1      44.582  33.142   2.541  1.00  0.00     0.016 C 
HETATM   29  C   UNL     1      44.036  33.193   3.968  1.00  0.00     0.012 C 
HETATM   30  C   UNL     1      44.505  31.719   1.990  1.00  0.00     0.012 C 
ENDBRANCH  17  28
BRANCH  13  31
HETATM   31  C   UNL     1      39.410  32.976   0.774  1.00  0.00     0.014 C 
HETATM   32  C   UNL     1      40.432  31.940   0.304  1.00  0.00     0.012 C 
BRANCH  31  33
HETATM   33  C   UNL     1      38.418  32.394   1.796  1.00  0.00     0.002 C 
HETATM   34  C   UNL     1      38.010  30.957   1.505  1.00  0.00     0.005 C 
ENDBRANCH  31  33
ENDBRANCH  13  31
BRANCH  14  35
HETATM   35  C   UNL     1      47.093  37.706   2.571  1.00  0.00     0.010 C 
HETATM   36  C   UNL     1      47.856  38.381   1.433  1.00  0.00     0.012 C 
HETATM   37  C   UNL     1      47.197  38.535   3.850  1.00  0.00     0.012 C 
ENDBRANCH  14  35
BRANCH  16  38
HETATM   38  C   UNL     1      39.266  38.859   2.863  1.00  0.00     0.016 C 
HETATM   39  C   UNL     1      38.000  39.714   2.912  1.00  0.00     0.012 C 
HETATM   40  C   UNL     1      40.509  39.746   2.829  1.00  0.00     0.012 C 
ENDBRANCH  16  38
BRANCH  18  41
HETATM   41  C   UNL     1      45.677  39.822  -1.481  1.00  0.00     0.016 C 
HETATM   42  C   UNL     1      45.284  40.779  -2.603  1.00  0.00     0.012 C 
HETATM   43  C   UNL     1      46.887  38.984  -1.889  1.00  0.00     0.012 C 
ENDBRANCH  18  41
BRANCH  15  44
HETATM   44  C   UNL     1      40.152  39.905  -2.602  1.00  0.00     0.010 C 
HETATM   45  C   UNL     1      41.264  39.961  -3.646  1.00  0.00     0.012 C 
HETATM   46  C   UNL     1      39.229  41.112  -2.732  1.00  0.00     0.012 C 
ENDBRANCH  15  44
TORSDOF 7
ENDMDL
MODEL 7
REMARK VINA RESULT:    -4.460      4.775      9.396
REMARK INTER + INTRA:          -5.229
REMARK INTER:                  -6.070
REMARK INTRA:                   0.841
REMARK UNBOUND:                 1.056
REMARK  7 active torsions:
REMARK  status: ('A' for Active; 'I' for Inactive)
REMARK    1  A    between atoms: C_13  and  C_14 
REMARK    2  A    between atoms: C_14  and  C_19 
REMARK    3  A    between atoms: C_15  and  C_20 
REMARK    4  A    between atoms: C_16  and  C_21 
REMARK    5  A    between atoms: C_17  and  C_23 
REMARK    6  A    between atoms: C_18  and  C_26 
REMARK    7  A    between atoms: C_22  and  C_28 
ROOT
HETATM    1  O   UNL     1      50.776  36.637   2.732  1.00  0.00    -0.304 OA
HETATM    2  O   UNL     1      51.586  41.769   2.190  1.00  0.00    -0.304 OA
HETATM    3  O   UNL     1      55.339  38.914   1.853  1.00  0.00    -0.304 OA
HETATM    4  O   UNL     1      50.201  39.717   4.208  1.00  0.00    -0.270 OA
HETATM    5  O   UNL     1      51.093  37.760   0.743  1.00  0.00    -0.263 OA
HETATM    6  O   UNL     1      52.577  37.987   4.016  1.00  0.00    -0.270 OA
HETATM    7  O   UNL     1      55.651  42.140   1.803  1.00  0.00    -0.270 OA
HETATM    8  O   UNL     1      51.185  43.925   1.506  1.00  0.00    -0.263 OA
HETATM    9  O   UNL     1      56.342  39.933   3.656  1.00  0.00    -0.263 OA
HETATM   10  N   UNL     1      49.425  39.673   2.022  1.00  0.00    -0.340 N 
HETATM   11  N   UNL     1      54.431  36.857   3.216  1.00  0.00    -0.340 N 
HETATM   12  N   UNL     1      53.756  41.441   0.650  1.00  0.00    -0.340 N 
HETATM   13  C   UNL     1      49.144  38.226   2.123  1.00  0.00     0.190 C 
HETATM   14  C   UNL     1      55.329  37.765   3.961  1.00  0.00     0.190 C 
HETATM   15  C   UNL     1      53.147  42.788   0.671  1.00  0.00     0.190 C 
HETATM   16  C   UNL     1      50.394  41.772   3.000  1.00  0.00     0.227 C 
HETATM   17  C   UNL     1      52.101  36.064   2.674  1.00  0.00     0.227 C 
HETATM   18  C   UNL     1      55.730  39.917   0.898  1.00  0.00     0.227 C 
HETATM   19  C   UNL     1      50.000  40.304   3.139  1.00  0.00     0.250 C 
HETATM   20  C   UNL     1      50.440  37.526   1.752  1.00  0.00     0.283 C 
HETATM   21  C   UNL     1      53.049  37.054   3.356  1.00  0.00     0.250 C 
HETATM   22  C   UNL     1      55.049  41.266   1.171  1.00  0.00     0.250 C 
HETATM   23  C   UNL     1      51.860  42.900   1.483  1.00  0.00     0.283 C 
HETATM   24  C   UNL     1      55.718  39.003   3.156  1.00  0.00     0.283 C 
HETATM   25  C   UNL     1      49.121  40.343   0.753  1.00  0.00     0.153 C 
HETATM   26  C   UNL     1      55.043  35.841   2.357  1.00  0.00     0.153 C 
HETATM   27  C   UNL     1      53.047  40.389  -0.082  1.00  0.00     0.153 C 
ENDROOT
BRANCH  17  28
HETATM   28  C   UNL     1      52.049  34.753   3.444  1.00  0.00     0.016 C 
HETATM   29  C   UNL     1      50.637  34.490   3.966  1.00  0.00     0.012 C 
HETATM   30  C   UNL     1      52.519  33.593   2.568  1.00  0.00     0.012 C 
ENDBRANCH  17  28
BRANCH  13  31
HETATM   31  C   UNL     1      47.999  37.707   1.260  1.00  0.00     0.014 C 
HETATM   32  C   UNL     1      48.170  36.206   1.019  1.00  0.00     0.012 C 
BRANCH  31  33
HETATM   33  C   UNL     1      46.650  38.041   1.921  1.00  0.00     0.002 C 
HETATM   34  C   UNL     1      46.667  37.930   3.439  1.00  0.00     0.005 C 
ENDBRANCH  31  33
ENDBRANCH  13  31
BRANCH  14  35
HETATM   35  C   UNL     1      56.588  37.083   4.496  1.00  0.00     0.010 C 
HETATM   36  C   UNL     1      57.836  37.645   3.821  1.00  0.00     0.012 C 
HETATM   37  C   UNL     1      56.684  37.241   6.014  1.00  0.00     0.012 C 
ENDBRANCH  14  35
BRANCH  16  38
HETATM   38  C   UNL     1      50.722  42.399   4.352  1.00  0.00     0.016 C 
HETATM   39  C   UNL     1      49.945  43.700   4.546  1.00  0.00     0.012 C 
HETATM   40  C   UNL     1      52.224  42.649   4.480  1.00  0.00     0.012 C 
ENDBRANCH  16  38
BRANCH  18  41
HETATM   41  C   UNL     1      57.250  40.035   0.789  1.00  0.00     0.016 C 
HETATM   42  C   UNL     1      57.634  41.087  -0.249  1.00  0.00     0.012 C 
HETATM   43  C   UNL     1      57.869  38.683   0.437  1.00  0.00     0.012 C 
ENDBRANCH  18  41
BRANCH  15  44
HETATM   44  C   UNL     1      52.936  43.324  -0.745  1.00  0.00     0.010 C 
HETATM   45  C   UNL     1      54.167  43.057  -1.608  1.00  0.00     0.012 C 
HETATM   46  C   UNL     1      52.617  44.816  -0.709  1.00  0.00     0.012 C 
ENDBRANCH  15  44
TORSDOF 7
ENDMDL
MODEL 8
REMARK VINA RESULT:    -4.400      2.529      7.044
REMARK INTER + INTRA:          -5.146
REMARK INTER:                  -6.449
REMARK INTRA:                   1.304
REMARK UNBOUND:                 1.056
REMARK  7 active torsions:
REMARK  status: ('A' for Active; 'I' for Inactive)
REMARK    1  A    between atoms: C_13  and  C_14 
REMARK    2  A    between atoms: C_14  and  C_19 
REMARK    3  A    between atoms: C_15  and  C_20 
REMARK    4  A    between atoms: C_16  and  C_21 
REMARK    5  A    between atoms: C_17  and  C_23 
REMARK    6  A    between atoms: C_18  and  C_26 
REMARK    7  A    between atoms: C_22  and  C_28 
ROOT
HETATM    1  O   UNL     1      43.675  32.930   2.345  1.00  0.00    -0.304 OA
HETATM    2  O   UNL     1      43.375  37.994   1.097  1.00  0.00    -0.304 OA
HETATM    3  O   UNL     1      47.628  35.939   0.896  1.00  0.00    -0.304 OA
HETATM    4  O   UNL     1      42.520  36.004   3.445  1.00  0.00    -0.270 OA
HETATM    5  O   UNL     1      43.682  33.806   0.212  1.00  0.00    -0.263 OA
HETATM    6  O   UNL     1      45.198  34.782   3.330  1.00  0.00    -0.270 OA
HETATM    7  O   UNL     1      47.257  39.123   0.412  1.00  0.00    -0.270 OA
HETATM    8  O   UNL     1      42.508  39.907   0.167  1.00  0.00    -0.263 OA
HETATM    9  O   UNL     1      48.458  37.381   2.488  1.00  0.00    -0.263 OA
HETATM   10  N   UNL     1      41.695  35.501   1.335  1.00  0.00    -0.340 N 
HETATM   11  N   UNL     1      47.218  33.951   2.567  1.00  0.00    -0.340 N 
HETATM   12  N   UNL     1      45.511  37.901  -0.521  1.00  0.00    -0.340 N 
HETATM   13  C   UNL     1      41.727  34.055   1.639  1.00  0.00     0.190 C 
HETATM   14  C   UNL     1      47.931  35.117   3.131  1.00  0.00     0.190 C 
HETATM   15  C   UNL     1      44.635  39.086  -0.635  1.00  0.00     0.190 C 
HETATM   16  C   UNL     1      42.237  37.867   1.972  1.00  0.00     0.227 C 
HETATM   17  C   UNL     1      45.088  32.635   2.278  1.00  0.00     0.227 C 
HETATM   18  C   UNL     1      47.768  36.859  -0.202  1.00  0.00     0.227 C 
HETATM   19  C   UNL     1      42.164  36.384   2.324  1.00  0.00     0.250 C 
HETATM   20  C   UNL     1      43.127  33.587   1.281  1.00  0.00     0.283 C 
HETATM   21  C   UNL     1      45.831  33.882   2.767  1.00  0.00     0.250 C 
HETATM   22  C   UNL     1      46.829  38.066  -0.063  1.00  0.00     0.250 C 
HETATM   23  C   UNL     1      43.381  39.047   0.234  1.00  0.00     0.283 C 
HETATM   24  C   UNL     1      48.025  36.284   2.151  1.00  0.00     0.283 C 
HETATM   25  C   UNL     1      41.214  35.912   0.012  1.00  0.00     0.153 C 
HETATM   26  C   UNL     1      47.999  32.971   1.810  1.00  0.00     0.153 C 
HETATM   27  C   UNL     1      45.013  36.637  -1.065  1.00  0.00     0.153 C 
ENDROOT
BRANCH  17  28
HETATM   28  C   UNL     1      45.338  31.460   3.213  1.00  0.00     0.016 C 
HETATM   29  C   UNL     1      44.708  31.716   4.581  1.00  0.00     0.012 C 
HETATM   30  C   UNL     1      44.796  30.166   2.608  1.00  0.00     0.012 C 
ENDBRANCH  17  28
BRANCH  13  31
HETATM   31  C   UNL     1      40.687  33.199   0.924  1.00  0.00     0.014 C 
HETATM   32  C   UNL     1      41.277  31.825   0.604  1.00  0.00     0.012 C 
BRANCH  31  33
HETATM   33  C   UNL     1      39.410  33.103   1.777  1.00  0.00     0.002 C 
HETATM   34  C   UNL     1      38.648  31.798   1.593  1.00  0.00     0.005 C 
ENDBRANCH  31  33
ENDBRANCH  13  31
BRANCH  14  35
HETATM   35  C   UNL     1      49.322  34.785   3.671  1.00  0.00     0.010 C 
HETATM   36  C   UNL     1      49.252  33.640   4.679  1.00  0.00     0.012 C 
HETATM   37  C   UNL     1      50.275  34.433   2.528  1.00  0.00     0.012 C 
ENDBRANCH  14  35
BRANCH  16  38
HETATM   38  C   UNL     1      42.473  38.730   3.210  1.00  0.00     0.016 C 
HETATM   39  C   UNL     1      41.501  39.908   3.239  1.00  0.00     0.012 C 
HETATM   40  C   UNL     1      43.917  39.227   3.253  1.00  0.00     0.012 C 
ENDBRANCH  16  38
BRANCH  18  41
HETATM   41  C   UNL     1      49.225  37.265  -0.420  1.00  0.00     0.016 C 
HETATM   42  C   UNL     1      49.342  38.233  -1.595  1.00  0.00     0.012 C 
HETATM   43  C   UNL     1      50.097  36.033  -0.651  1.00  0.00     0.012 C 
ENDBRANCH  18  41
BRANCH  15  44
HETATM   44  C   UNL     1      44.268  39.367  -2.093  1.00  0.00     0.010 C 
HETATM   45  C   UNL     1      44.480  40.841  -2.424  1.00  0.00     0.012 C 
HETATM   46  C   UNL     1      42.824  38.955  -2.368  1.00  0.00     0.012 C 
ENDBRANCH  15  44
TORSDOF 7
ENDMDL
MODEL 9
REMARK VINA RESULT:    -4.397      7.490     12.216
REMARK INTER + INTRA:          -5.141
REMARK INTER:                  -5.937
REMARK INTRA:                   0.796
REMARK UNBOUND:                 1.056
REMARK  7 active torsions:
REMARK  status: ('A' for Active; 'I' for Inactive)
REMARK    1  A    between atoms: C_13  and  C_14 
REMARK    2  A    between atoms: C_14  and  C_19 
REMARK    3  A    between atoms: C_15  and  C_20 
REMARK    4  A    between atoms: C_16  and  C_21 
REMARK    5  A    between atoms: C_17  and  C_23 
REMARK    6  A    between atoms: C_18  and  C_26 
REMARK    7  A    between atoms: C_22  and  C_28 
ROOT
HETATM    1  O   UNL     1      50.370  41.923   1.976  1.00  0.00    -0.304 OA
HETATM    2  O   UNL     1      52.605  45.248  -1.377  1.00  0.00    -0.304 OA
HETATM    3  O   UNL     1      55.304  43.478   2.075  1.00  0.00    -0.304 OA
HETATM    4  O   UNL     1      50.042  45.048   0.518  1.00  0.00    -0.270 OA
HETATM    5  O   UNL     1      51.750  41.357   0.217  1.00  0.00    -0.263 OA
HETATM    6  O   UNL     1      51.762  43.998   2.666  1.00  0.00    -0.270 OA
HETATM    7  O   UNL     1      56.418  45.747   0.046  1.00  0.00    -0.270 OA
HETATM    8  O   UNL     1      53.082  46.231  -3.398  1.00  0.00    -0.263 OA
HETATM    9  O   UNL     1      55.701  45.584   2.917  1.00  0.00    -0.263 OA
HETATM   10  N   UNL     1      50.249  43.387  -1.089  1.00  0.00    -0.340 N 
HETATM   11  N   UNL     1      53.427  42.876   3.815  1.00  0.00    -0.340 N 
HETATM   12  N   UNL     1      55.054  44.210  -1.045  1.00  0.00    -0.340 N 
HETATM   13  C   UNL     1      49.594  42.407  -0.199  1.00  0.00     0.190 C 
HETATM   14  C   UNL     1      54.138  44.149   4.064  1.00  0.00     0.190 C 
HETATM   15  C   UNL     1      54.854  45.094  -2.213  1.00  0.00     0.190 C 
HETATM   16  C   UNL     1      51.229  45.668  -1.464  1.00  0.00     0.227 C 
HETATM   17  C   UNL     1      51.409  41.647   2.940  1.00  0.00     0.227 C 
HETATM   18  C   UNL     1      56.294  43.562   1.034  1.00  0.00     0.227 C 
HETATM   19  C   UNL     1      50.454  44.686  -0.589  1.00  0.00     0.250 C 
HETATM   20  C   UNL     1      50.704  41.818   0.656  1.00  0.00     0.283 C 
HETATM   21  C   UNL     1      52.210  42.940   3.122  1.00  0.00     0.250 C 
HETATM   22  C   UNL     1      55.928  44.616  -0.022  1.00  0.00     0.250 C 
HETATM   23  C   UNL     1      53.422  45.581  -2.415  1.00  0.00     0.283 C 
HETATM   24  C   UNL     1      55.124  44.502   2.953  1.00  0.00     0.283 C 
HETATM   25  C   UNL     1      50.674  42.931  -2.416  1.00  0.00     0.153 C 
HETATM   26  C   UNL     1      54.058  41.637   4.276  1.00  0.00     0.153 C 
HETATM   27  C   UNL     1      54.467  42.870  -1.102  1.00  0.00     0.153 C 
ENDROOT
BRANCH  17  28
HETATM   28  C   UNL     1      50.713  41.260   4.238  1.00  0.00     0.016 C 
HETATM   29  C   UNL     1      50.004  42.467   4.850  1.00  0.00     0.012 C 
HETATM   30  C   UNL     1      49.723  40.121   4.000  1.00  0.00     0.012 C 
ENDBRANCH  17  28
BRANCH  13  31
HETATM   31  C   UNL     1      48.814  41.294  -0.889  1.00  0.00     0.014 C 
HETATM   32  C   UNL     1      48.840  40.030  -0.028  1.00  0.00     0.012 C 
BRANCH  31  33
HETATM   33  C   UNL     1      47.381  41.766  -1.191  1.00  0.00     0.002 C 
HETATM   34  C   UNL     1      46.303  40.866  -0.602  1.00  0.00     0.005 C 
ENDBRANCH  31  33
ENDBRANCH  13  31
BRANCH  14  35
HETATM   35  C   UNL     1      54.847  44.203   5.418  1.00  0.00     0.010 C 
HETATM   36  C   UNL     1      56.358  44.074   5.241  1.00  0.00     0.012 C 
HETATM   37  C   UNL     1      54.503  45.497   6.156  1.00  0.00     0.012 C 
ENDBRANCH  14  35
BRANCH  16  38
HETATM   38  C   UNL     1      51.120  47.098  -0.940  1.00  0.00     0.016 C 
HETATM   39  C   UNL     1      50.768  48.062  -2.072  1.00  0.00     0.012 C 
HETATM   40  C   UNL     1      52.420  47.523  -0.259  1.00  0.00     0.012 C 
ENDBRANCH  16  38
BRANCH  18  41
HETATM   41  C   UNL     1      57.700  43.759   1.601  1.00  0.00     0.016 C 
HETATM   42  C   UNL     1      58.719  43.896   0.473  1.00  0.00     0.012 C 
HETATM   43  C   UNL     1      58.072  42.601   2.524  1.00  0.00     0.012 C 
ENDBRANCH  18  41
BRANCH  15  44
HETATM   44  C   UNL     1      55.387  44.451  -3.494  1.00  0.00     0.010 C 
HETATM   45  C   UNL     1      56.222  45.453  -4.287  1.00  0.00     0.012 C 
HETATM   46  C   UNL     1      54.237  43.917  -4.342  1.00  0.00     0.012 C 
ENDBRANCH  15  44
TORSDOF 7
ENDMDL
MODEL 10
REMARK VINA RESULT:    -4.388      2.998      7.030
REMARK INTER + INTRA:          -5.128
REMARK INTER:                  -5.868
REMARK INTRA:                   0.739
REMARK UNBOUND:                 1.056
REMARK  7 active torsions:
REMARK  status: ('A' for Active; 'I' for Inactive)
REMARK    1  A    between atoms: C_13  and  C_14 
REMARK    2  A    between atoms: C_14  and  C_19 
REMARK    3  A    between atoms: C_15  and  C_20 
REMARK    4  A    between atoms: C_16  and  C_21 
REMARK    5  A    between atoms: C_17  and  C_23 
REMARK    6  A    between atoms: C_18  and  C_26 
REMARK    7  A    between atoms: C_22  and  C_28 
ROOT
HETATM    1  O   UNL     1      45.421  35.412   3.260  1.00  0.00    -0.304 OA
HETATM    2  O   UNL     1      43.923  38.500  -0.679  1.00  0.00    -0.304 OA
HETATM    3  O   UNL     1      48.563  38.046   0.103  1.00  0.00    -0.304 OA
HETATM    4  O   UNL     1      43.352  38.065   2.433  1.00  0.00    -0.270 OA
HETATM    5  O   UNL     1      45.455  34.869   1.019  1.00  0.00    -0.263 OA
HETATM    6  O   UNL     1      46.253  37.839   2.893  1.00  0.00    -0.270 OA
HETATM    7  O   UNL     1      47.411  40.105  -2.119  1.00  0.00    -0.270 OA
HETATM    8  O   UNL     1      42.695  39.186  -2.496  1.00  0.00    -0.263 OA
HETATM    9  O   UNL     1      48.770  40.302   0.508  1.00  0.00    -0.263 OA
HETATM   10  N   UNL     1      42.962  36.233   1.062  1.00  0.00    -0.340 N 
HETATM   11  N   UNL     1      48.500  37.354   2.639  1.00  0.00    -0.340 N 
HETATM   12  N   UNL     1      46.189  38.127  -2.064  1.00  0.00    -0.340 N 
HETATM   13  C   UNL     1      43.344  35.306   2.147  1.00  0.00     0.190 C 
HETATM   14  C   UNL     1      48.797  38.779   2.377  1.00  0.00     0.190 C 
HETATM   15  C   UNL     1      45.047  38.716  -2.794  1.00  0.00     0.190 C 
HETATM   16  C   UNL     1      42.762  38.572   0.171  1.00  0.00     0.227 C 
HETATM   17  C   UNL     1      46.857  35.559   3.294  1.00  0.00     0.227 C 
HETATM   18  C   UNL     1      48.586  38.165  -1.331  1.00  0.00     0.227 C 
HETATM   19  C   UNL     1      43.048  37.613   1.323  1.00  0.00     0.250 C 
HETATM   20  C   UNL     1      44.852  35.150   2.046  1.00  0.00     0.283 C 
HETATM   21  C   UNL     1      47.170  37.011   2.922  1.00  0.00     0.250 C 
HETATM   22  C   UNL     1      47.346  38.899  -1.865  1.00  0.00     0.250 C 
HETATM   23  C   UNL     1      43.752  38.818  -1.992  1.00  0.00     0.283 C 
HETATM   24  C   UNL     1      48.694  39.142   0.897  1.00  0.00     0.283 C 
HETATM   25  C   UNL     1      42.555  35.654  -0.223  1.00  0.00     0.153 C 
HETATM   26  C   UNL     1      49.604  36.396   2.548  1.00  0.00     0.153 C 
HETATM   27  C   UNL     1      46.122  36.701  -1.741  1.00  0.00     0.153 C 
ENDROOT
BRANCH  17  28
HETATM   28  C   UNL     1      47.296  35.264   4.721  1.00  0.00     0.016 C 
HETATM   29  C   UNL     1      46.096  35.265   5.666  1.00  0.00     0.012 C 
HETATM   30  C   UNL     1      48.032  33.926   4.793  1.00  0.00     0.012 C 
ENDBRANCH  17  28
BRANCH  13  31
HETATM   31  C   UNL     1      42.670  33.939   2.125  1.00  0.00     0.014 C 
HETATM   32  C   UNL     1      43.520  32.929   2.898  1.00  0.00     0.012 C 
BRANCH  31  33
HETATM   33  C   UNL     1      41.241  34.048   2.684  1.00  0.00     0.002 C 
HETATM   34  C   UNL     1      40.177  33.466   1.764  1.00  0.00     0.005 C 
ENDBRANCH  31  33
ENDBRANCH  13  31
BRANCH  14  35
HETATM   35  C   UNL     1      50.148  39.236   2.926  1.00  0.00     0.010 C 
HETATM   36  C   UNL     1      51.094  39.614   1.788  1.00  0.00     0.012 C 
HETATM   37  C   UNL     1      49.971  40.413   3.886  1.00  0.00     0.012 C 
ENDBRANCH  14  35
BRANCH  16  38
HETATM   38  C   UNL     1      42.602  40.009   0.660  1.00  0.00     0.016 C 
HETATM   39  C   UNL     1      41.324  40.630   0.099  1.00  0.00     0.012 C 
HETATM   40  C   UNL     1      43.819  40.849   0.275  1.00  0.00     0.012 C 
ENDBRANCH  16  38
BRANCH  18  41
HETATM   41  C   UNL     1      49.894  38.776  -1.830  1.00  0.00     0.016 C 
HETATM   42  C   UNL     1      49.887  38.891  -3.352  1.00  0.00     0.012 C 
HETATM   43  C   UNL     1      51.087  37.947  -1.360  1.00  0.00     0.012 C 
ENDBRANCH  18  41
BRANCH  15  44
HETATM   44  C   UNL     1      44.802  37.992  -4.118  1.00  0.00     0.010 C 
HETATM   45  C   UNL     1      44.245  36.594  -3.868  1.00  0.00     0.012 C 
HETATM   46  C   UNL     1      46.088  37.923  -4.935  1.00  0.00     0.012 C 
ENDBRANCH  15  44
TORSDOF 7
ENDMDL
MODEL 11
REMARK VINA RESULT:    -4.313      3.667      8.531
REMARK INTER + INTRA:          -5.023
REMARK INTER:                  -6.055
REMARK INTRA:                   1.032
REMARK UNBOUND:                 1.056
REMARK  7 active torsions:
REMARK  status: ('A' for Active; 'I' for Inactive)
REMARK    1  A    between atoms: C_13  and  C_14 
REMARK    2  A    between atoms: C_14  and  C_19 
REMARK    3  A    between atoms: C_15  and  C_20 
REMARK    4  A    between atoms: C_16  and  C_21 
REMARK    5  A    between atoms: C_17  and  C_23 
REMARK    6  A    between atoms: C_18  and  C_26 
REMARK    7  A    between atoms: C_22  and  C_28 
ROOT
HETATM    1  O   UNL     1      48.708  41.886  -2.321  1.00  0.00    -0.304 OA
HETATM    2  O   UNL     1      50.786  39.809   1.999  1.00  0.00    -0.304 OA
HETATM    3  O   UNL     1      46.689  38.020   0.464  1.00  0.00    -0.304 OA
HETATM    4  O   UNL     1      49.995  42.662   0.800  1.00  0.00    -0.270 OA
HETATM    5  O   UNL     1      49.858  39.892  -2.190  1.00  0.00    -0.263 OA
HETATM    6  O   UNL     1      47.428  41.528  -0.096  1.00  0.00    -0.270 OA
HETATM    7  O   UNL     1      48.021  37.056   3.258  1.00  0.00    -0.270 OA
HETATM    8  O   UNL     1      52.422  39.012   3.401  1.00  0.00    -0.263 OA
HETATM    9  O   UNL     1      45.637  38.608   2.425  1.00  0.00    -0.263 OA
HETATM   10  N   UNL     1      51.505  41.419  -0.447  1.00  0.00    -0.340 N 
HETATM   11  N   UNL     1      45.811  40.086  -0.906  1.00  0.00    -0.340 N 
HETATM   12  N   UNL     1      49.630  37.421   1.618  1.00  0.00    -0.340 N 
HETATM   13  C   UNL     1      50.982  41.995  -1.703  1.00  0.00     0.190 C 
HETATM   14  C   UNL     1      45.240  39.935   0.450  1.00  0.00     0.190 C 
HETATM   15  C   UNL     1      50.733  37.481   2.599  1.00  0.00     0.190 C 
HETATM   16  C   UNL     1      51.353  41.134   2.042  1.00  0.00     0.227 C 
HETATM   17  C   UNL     1      47.445  41.202  -2.466  1.00  0.00     0.227 C 
HETATM   18  C   UNL     1      47.280  36.817   0.986  1.00  0.00     0.227 C 
HETATM   19  C   UNL     1      50.889  41.810   0.755  1.00  0.00     0.250 C 
HETATM   20  C   UNL     1      49.813  41.112  -2.108  1.00  0.00     0.283 C 
HETATM   21  C   UNL     1      46.902  40.954  -1.056  1.00  0.00     0.250 C 
HETATM   22  C   UNL     1      48.333  37.115   2.064  1.00  0.00     0.250 C 
HETATM   23  C   UNL     1      51.424  38.838   2.709  1.00  0.00     0.283 C 
HETATM   24  C   UNL     1      45.882  38.795   1.238  1.00  0.00     0.283 C 
HETATM   25  C   UNL     1      52.604  40.452  -0.542  1.00  0.00     0.153 C 
HETATM   26  C   UNL     1      45.223  39.294  -1.989  1.00  0.00     0.153 C 
HETATM   27  C   UNL     1      49.980  37.505   0.199  1.00  0.00     0.153 C 
ENDROOT
BRANCH  17  28
HETATM   28  C   UNL     1      46.524  42.135  -3.239  1.00  0.00     0.016 C 
HETATM   29  C   UNL     1      47.102  43.549  -3.280  1.00  0.00     0.012 C 
HETATM   30  C   UNL     1      46.291  41.611  -4.656  1.00  0.00     0.012 C 
ENDBRANCH  17  28
BRANCH  13  31
HETATM   31  C   UNL     1      51.978  42.108  -2.852  1.00  0.00     0.014 C 
HETATM   32  C   UNL     1      51.228  42.247  -4.178  1.00  0.00     0.012 C 
BRANCH  31  33
HETATM   33  C   UNL     1      52.940  43.282  -2.599  1.00  0.00     0.002 C 
HETATM   34  C   UNL     1      54.360  43.026  -3.084  1.00  0.00     0.005 C 
ENDBRANCH  31  33
ENDBRANCH  13  31
BRANCH  14  35
HETATM   35  C   UNL     1      43.720  39.777   0.464  1.00  0.00     0.010 C 
HETATM   36  C   UNL     1      43.230  39.383   1.856  1.00  0.00     0.012 C 
HETATM   37  C   UNL     1      43.039  41.066   0.003  1.00  0.00     0.012 C 
ENDBRANCH  14  35
BRANCH  16  38
HETATM   38  C   UNL     1      50.823  41.853   3.280  1.00  0.00     0.016 C 
HETATM   39  C   UNL     1      51.975  42.324   4.165  1.00  0.00     0.012 C 
HETATM   40  C   UNL     1      49.879  40.946   4.067  1.00  0.00     0.012 C 
ENDBRANCH  16  38
BRANCH  18  41
HETATM   41  C   UNL     1      46.221  35.820   1.454  1.00  0.00     0.016 C 
HETATM   42  C   UNL     1      46.845  34.448   1.697  1.00  0.00     0.012 C 
HETATM   43  C   UNL     1      45.089  35.722   0.435  1.00  0.00     0.012 C 
ENDBRANCH  18  41
BRANCH  15  44
HETATM   44  C   UNL     1      51.760  36.376   2.349  1.00  0.00     0.010 C 
HETATM   45  C   UNL     1      52.098  35.657   3.652  1.00  0.00     0.012 C 
HETATM   46  C   UNL     1      53.019  36.952   1.708  1.00  0.00     0.012 C 
ENDBRANCH  15  44
TORSDOF 7
ENDMDL
MODEL 12
REMARK VINA RESULT:    -4.236      3.584      8.004
REMARK INTER + INTRA:          -4.914
REMARK INTER:                  -5.909
REMARK INTRA:                   0.995
REMARK UNBOUND:                 1.056
REMARK  7 active torsions:
REMARK  status: ('A' for Active; 'I' for Inactive)
REMARK    1  A    between atoms: C_13  and  C_14 
REMARK    2  A    between atoms: C_14  and  C_19 
REMARK    3  A    between atoms: C_15  and  C_20 
REMARK    4  A    between atoms: C_16  and  C_21 
REMARK    5  A    between atoms: C_17  and  C_23 
REMARK    6  A    between atoms: C_18  and  C_26 
REMARK    7  A    between atoms: C_22  and  C_28 
ROOT
HETATM    1  O   UNL     1      46.325  37.173   2.366  1.00  0.00    -0.304 OA
HETATM    2  O   UNL     1      41.437  38.261   0.877  1.00  0.00    -0.304 OA
HETATM    3  O   UNL     1      44.876  38.829  -2.317  1.00  0.00    -0.304 OA
HETATM    4  O   UNL     1      43.490  38.971   3.219  1.00  0.00    -0.270 OA
HETATM    5  O   UNL     1      44.964  35.825   1.082  1.00  0.00    -0.263 OA
HETATM    6  O   UNL     1      45.596  39.368   1.198  1.00  0.00    -0.270 OA
HETATM    7  O   UNL     1      41.814  39.688  -2.949  1.00  0.00    -0.270 OA
HETATM    8  O   UNL     1      39.160  38.011   0.707  1.00  0.00    -0.263 OA
HETATM    9  O   UNL     1      44.398  41.073  -2.510  1.00  0.00    -0.263 OA
HETATM   10  N   UNL     1      43.006  36.718   2.939  1.00  0.00    -0.340 N 
HETATM   11  N   UNL     1      46.915  39.160  -0.690  1.00  0.00    -0.340 N 
HETATM   12  N   UNL     1      41.919  37.725  -1.706  1.00  0.00    -0.340 N 
HETATM   13  C   UNL     1      44.364  36.344   3.383  1.00  0.00     0.190 C 
HETATM   14  C   UNL     1      46.343  40.403  -1.250  1.00  0.00     0.190 C 
HETATM   15  C   UNL     1      40.503  37.815  -1.293  1.00  0.00     0.190 C 
HETATM   16  C   UNL     1      41.338  38.481   2.298  1.00  0.00     0.227 C 
HETATM   17  C   UNL     1      47.129  37.531   1.221  1.00  0.00     0.227 C 
HETATM   18  C   UNL     1      43.822  38.393  -3.194  1.00  0.00     0.227 C 
HETATM   19  C   UNL     1      42.701  38.089   2.861  1.00  0.00     0.250 C 
HETATM   20  C   UNL     1      45.233  36.385   2.136  1.00  0.00     0.283 C 
HETATM   21  C   UNL     1      46.476  38.760   0.580  1.00  0.00     0.250 C 
HETATM   22  C   UNL     1      42.432  38.675  -2.605  1.00  0.00     0.250 C 
HETATM   23  C   UNL     1      40.279  38.024   0.202  1.00  0.00     0.283 C 
HETATM   24  C   UNL     1      45.087  40.153  -2.083  1.00  0.00     0.283 C 
HETATM   25  C   UNL     1      42.082  35.639   2.575  1.00  0.00     0.153 C 
HETATM   26  C   UNL     1      47.870  38.414  -1.513  1.00  0.00     0.153 C 
HETATM   27  C   UNL     1      42.669  36.538  -1.294  1.00  0.00     0.153 C 
ENDROOT
BRANCH  17  28
HETATM   28  C   UNL     1      48.516  37.872   1.746  1.00  0.00     0.016 C 
HETATM   29  C   UNL     1      48.422  38.806   2.952  1.00  0.00     0.012 C 
HETATM   30  C   UNL     1      49.282  36.601   2.111  1.00  0.00     0.012 C 
ENDBRANCH  17  28
BRANCH  13  31
HETATM   31  C   UNL     1      44.493  34.989   4.069  1.00  0.00     0.014 C 
HETATM   32  C   UNL     1      45.371  34.061   3.227  1.00  0.00     0.012 C 
BRANCH  31  33
HETATM   33  C   UNL     1      45.040  35.173   5.496  1.00  0.00     0.002 C 
HETATM   34  C   UNL     1      46.557  35.272   5.562  1.00  0.00     0.005 C 
ENDBRANCH  31  33
ENDBRANCH  13  31
BRANCH  14  35
HETATM   35  C   UNL     1      47.341  41.229  -2.061  1.00  0.00     0.010 C 
HETATM   36  C   UNL     1      46.841  41.433  -3.489  1.00  0.00     0.012 C 
HETATM   37  C   UNL     1      47.598  42.577  -1.387  1.00  0.00     0.012 C 
ENDBRANCH  14  35
BRANCH  16  38
HETATM   38  C   UNL     1      41.028  39.955   2.544  1.00  0.00     0.016 C 
HETATM   39  C   UNL     1      39.652  40.117   3.188  1.00  0.00     0.012 C 
HETATM   40  C   UNL     1      41.105  40.748   1.240  1.00  0.00     0.012 C 
ENDBRANCH  16  38
BRANCH  18  41
HETATM   41  C   UNL     1      43.989  38.953  -4.606  1.00  0.00     0.016 C 
HETATM   42  C   UNL     1      42.891  38.425  -5.526  1.00  0.00     0.012 C 
HETATM   43  C   UNL     1      45.368  38.604  -5.161  1.00  0.00     0.012 C 
ENDBRANCH  18  41
BRANCH  15  44
HETATM   44  C   UNL     1      39.701  36.612  -1.792  1.00  0.00     0.010 C 
HETATM   45  C   UNL     1      38.370  37.065  -2.385  1.00  0.00     0.012 C 
HETATM   46  C   UNL     1      39.475  35.614  -0.660  1.00  0.00     0.012 C 
ENDBRANCH  15  44
TORSDOF 7
ENDMDL
MODEL 13
REMARK VINA RESULT:    -4.172      2.123      6.452
REMARK INTER + INTRA:          -4.823
REMARK INTER:                  -6.273
REMARK INTRA:                   1.450
REMARK UNBOUND:                 1.056
REMARK  7 active torsions:
REMARK  status: ('A' for Active; 'I' for Inactive)
REMARK    1  A    between atoms: C_13  and  C_14 
REMARK    2  A    between atoms: C_14  and  C_19 
REMARK    3  A    between atoms: C_15  and  C_20 
REMARK    4  A    between atoms: C_16  and  C_21 
REMARK    5  A    between atoms: C_17  and  C_23 
REMARK    6  A    between atoms: C_18  and  C_26 
REMARK    7  A    between atoms: C_22  and  C_28 
ROOT
HETATM    1  O   UNL     1      47.839  32.300   4.623  1.00  0.00    -0.304 OA
HETATM    2  O   UNL     1      45.314  35.946   1.862  1.00  0.00    -0.304 OA
HETATM    3  O   UNL     1      49.873  35.206   0.855  1.00  0.00    -0.304 OA
HETATM    4  O   UNL     1      45.847  35.119   4.901  1.00  0.00    -0.270 OA
HETATM    5  O   UNL     1      47.032  32.062   2.476  1.00  0.00    -0.263 OA
HETATM    6  O   UNL     1      48.692  34.719   4.251  1.00  0.00    -0.270 OA
HETATM    7  O   UNL     1      48.189  37.590  -0.555  1.00  0.00    -0.270 OA
HETATM    8  O   UNL     1      43.586  36.918   0.702  1.00  0.00    -0.263 OA
HETATM    9  O   UNL     1      50.402  37.378   1.406  1.00  0.00    -0.263 OA
HETATM   10  N   UNL     1      44.841  33.506   3.570  1.00  0.00    -0.340 N 
HETATM   11  N   UNL     1      50.653  34.183   3.148  1.00  0.00    -0.340 N 
HETATM   12  N   UNL     1      46.901  35.672  -0.281  1.00  0.00    -0.340 N 
HETATM   13  C   UNL     1      45.502  32.427   4.333  1.00  0.00     0.190 C 
HETATM   14  C   UNL     1      50.959  35.617   2.956  1.00  0.00     0.190 C 
HETATM   15  C   UNL     1      45.630  36.400  -0.478  1.00  0.00     0.190 C 
HETATM   16  C   UNL     1      44.540  35.949   3.078  1.00  0.00     0.227 C 
HETATM   17  C   UNL     1      49.202  32.383   4.150  1.00  0.00     0.227 C 
HETATM   18  C   UNL     1      49.396  35.516  -0.467  1.00  0.00     0.227 C 
HETATM   19  C   UNL     1      45.133  34.833   3.934  1.00  0.00     0.250 C 
HETATM   20  C   UNL     1      46.858  32.226   3.676  1.00  0.00     0.283 C 
HETATM   21  C   UNL     1      49.486  33.859   3.854  1.00  0.00     0.250 C 
HETATM   22  C   UNL     1      48.116  36.364  -0.431  1.00  0.00     0.250 C 
HETATM   23  C   UNL     1      44.717  36.444   0.744  1.00  0.00     0.283 C 
HETATM   24  C   UNL     1      50.370  36.180   1.665  1.00  0.00     0.283 C 
HETATM   25  C   UNL     1      43.958  33.122   2.464  1.00  0.00     0.153 C 
HETATM   26  C   UNL     1      51.568  33.203   2.558  1.00  0.00     0.153 C 
HETATM   27  C   UNL     1      46.832  34.219  -0.116  1.00  0.00     0.153 C 
ENDROOT
BRANCH  17  28
HETATM   28  C   UNL     1      50.091  31.881   5.279  1.00  0.00     0.016 C 
HETATM   29  C   UNL     1      50.367  32.997   6.285  1.00  0.00     0.012 C 
HETATM   30  C   UNL     1      49.453  30.679   5.974  1.00  0.00     0.012 C 
ENDBRANCH  17  28
BRANCH  13  31
HETATM   31  C   UNL     1      44.750  31.103   4.405  1.00  0.00     0.014 C 
HETATM   32  C   UNL     1      45.576  30.000   3.740  1.00  0.00     0.012 C 
BRANCH  31  33
HETATM   33  C   UNL     1      44.406  30.772   5.868  1.00  0.00     0.002 C 
HETATM   34  C   UNL     1      45.517  30.041   6.608  1.00  0.00     0.005 C 
ENDBRANCH  31  33
ENDBRANCH  13  31
BRANCH  14  35
HETATM   35  C   UNL     1      52.451  35.943   3.026  1.00  0.00     0.010 C 
HETATM   36  C   UNL     1      52.693  37.426   2.759  1.00  0.00     0.012 C 
HETATM   37  C   UNL     1      53.028  35.543   4.384  1.00  0.00     0.012 C 
ENDBRANCH  14  35
BRANCH  16  38
HETATM   38  C   UNL     1      44.687  37.313   3.748  1.00  0.00     0.016 C 
HETATM   39  C   UNL     1      43.397  38.121   3.615  1.00  0.00     0.012 C 
HETATM   40  C   UNL     1      45.864  38.082   3.152  1.00  0.00     0.012 C 
ENDBRANCH  16  38
BRANCH  18  41
HETATM   41  C   UNL     1      50.491  36.137  -1.334  1.00  0.00     0.016 C 
HETATM   42  C   UNL     1      50.052  36.188  -2.796  1.00  0.00     0.012 C 
HETATM   43  C   UNL     1      51.795  35.355  -1.193  1.00  0.00     0.012 C 
ENDBRANCH  18  41
BRANCH  15  44
HETATM   44  C   UNL     1      44.870  35.871  -1.695  1.00  0.00     0.010 C 
HETATM   45  C   UNL     1      45.839  35.535  -2.826  1.00  0.00     0.012 C 
HETATM   46  C   UNL     1      43.832  36.888  -2.159  1.00  0.00     0.012 C 
ENDBRANCH  15  44
TORSDOF 7
ENDMDL
MODEL 14
REMARK VINA RESULT:    -4.155      2.901      7.409
REMARK INTER + INTRA:          -4.800
REMARK INTER:                  -5.946
REMARK INTRA:                   1.147
REMARK UNBOUND:                 1.056
REMARK  7 active torsions:
REMARK  status: ('A' for Active; 'I' for Inactive)
REMARK    1  A    between atoms: C_13  and  C_14 
REMARK    2  A    between atoms: C_14  and  C_19 
REMARK    3  A    between atoms: C_15  and  C_20 
REMARK    4  A    between atoms: C_16  and  C_21 
REMARK    5  A    between atoms: C_17  and  C_23 
REMARK    6  A    between atoms: C_18  and  C_26 
REMARK    7  A    between atoms: C_22  and  C_28 
ROOT
HETATM    1  O   UNL     1      50.181  36.743   2.790  1.00  0.00    -0.304 OA
HETATM    2  O   UNL     1      45.415  37.694   0.874  1.00  0.00    -0.304 OA
HETATM    3  O   UNL     1      49.052  40.014  -1.058  1.00  0.00    -0.304 OA
HETATM    4  O   UNL     1      46.948  37.615   3.675  1.00  0.00    -0.270 OA
HETATM    5  O   UNL     1      49.311  35.896   0.830  1.00  0.00    -0.263 OA
HETATM    6  O   UNL     1      49.174  39.107   2.454  1.00  0.00    -0.270 OA
HETATM    7  O   UNL     1      45.991  40.640  -1.919  1.00  0.00    -0.270 OA
HETATM    8  O   UNL     1      43.282  37.236   0.153  1.00  0.00    -0.263 OA
HETATM    9  O   UNL     1      48.150  42.042  -0.450  1.00  0.00    -0.263 OA
HETATM   10  N   UNL     1      46.982  35.649   2.441  1.00  0.00    -0.340 N 
HETATM   11  N   UNL     1      50.746  39.895   0.950  1.00  0.00    -0.340 N 
HETATM   12  N   UNL     1      46.334  38.369  -1.553  1.00  0.00    -0.340 N 
HETATM   13  C   UNL     1      48.318  35.308   2.972  1.00  0.00     0.190 C 
HETATM   14  C   UNL     1      50.007  41.170   0.817  1.00  0.00     0.190 C 
HETATM   15  C   UNL     1      44.888  38.086  -1.440  1.00  0.00     0.190 C 
HETATM   16  C   UNL     1      45.085  37.277   2.213  1.00  0.00     0.227 C 
HETATM   17  C   UNL     1      51.037  37.657   2.070  1.00  0.00     0.227 C 
HETATM   18  C   UNL     1      48.237  39.852  -2.233  1.00  0.00     0.227 C 
HETATM   19  C   UNL     1      46.413  36.870   2.845  1.00  0.00     0.250 C 
HETATM   20  C   UNL     1      49.316  35.989   2.050  1.00  0.00     0.283 C 
HETATM   21  C   UNL     1      50.235  38.941   1.842  1.00  0.00     0.250 C 
HETATM   22  C   UNL     1      46.753  39.670  -1.881  1.00  0.00     0.250 C 
HETATM   23  C   UNL     1      44.430  37.611  -0.064  1.00  0.00     0.283 C 
HETATM   24  C   UNL     1      48.952  41.129  -0.286  1.00  0.00     0.283 C 
HETATM   25  C   UNL     1      46.359  34.712   1.501  1.00  0.00     0.153 C 
HETATM   26  C   UNL     1      51.935  39.703   0.117  1.00  0.00     0.153 C 
HETATM   27  C   UNL     1      47.254  37.231  -1.494  1.00  0.00     0.153 C 
ENDROOT
BRANCH  17  28
HETATM   28  C   UNL     1      52.242  37.926   2.960  1.00  0.00     0.016 C 
HETATM   29  C   UNL     1      51.972  39.110   3.888  1.00  0.00     0.012 C 
HETATM   30  C   UNL     1      52.603  36.682   3.770  1.00  0.00     0.012 C 
ENDBRANCH  17  28
BRANCH  13  31
HETATM   31  C   UNL     1      48.633  33.821   3.083  1.00  0.00     0.014 C 
HETATM   32  C   UNL     1      50.135  33.622   3.296  1.00  0.00     0.012 C 
BRANCH  31  33
HETATM   33  C   UNL     1      47.795  33.189   4.209  1.00  0.00     0.002 C 
HETATM   34  C   UNL     1      47.696  34.055   5.458  1.00  0.00     0.005 C 
ENDBRANCH  31  33
ENDBRANCH  13  31
BRANCH  14  35
HETATM   35  C   UNL     1      50.911  42.387   0.621  1.00  0.00     0.010 C 
HETATM   36  C   UNL     1      50.352  43.305  -0.464  1.00  0.00     0.012 C 
HETATM   37  C   UNL     1      51.079  43.152   1.934  1.00  0.00     0.012 C 
ENDBRANCH  14  35
BRANCH  16  38
HETATM   38  C   UNL     1      44.446  38.452   2.948  1.00  0.00     0.016 C 
HETATM   39  C   UNL     1      42.992  38.142   3.301  1.00  0.00     0.012 C 
HETATM   40  C   UNL     1      44.533  39.725   2.107  1.00  0.00     0.012 C 
ENDBRANCH  16  38
BRANCH  18  41
HETATM   41  C   UNL     1      48.471  40.973  -3.245  1.00  0.00     0.016 C 
HETATM   42  C   UNL     1      47.743  40.675  -4.553  1.00  0.00     0.012 C 
HETATM   43  C   UNL     1      49.964  41.169  -3.494  1.00  0.00     0.012 C 
ENDBRANCH  18  41
BRANCH  15  44
HETATM   44  C   UNL     1      44.427  37.111  -2.524  1.00  0.00     0.010 C 
HETATM   45  C   UNL     1      45.114  37.422  -3.851  1.00  0.00     0.012 C 
HETATM   46  C   UNL     1      42.910  37.162  -2.677  1.00  0.00     0.012 C 
ENDBRANCH  15  44
TORSDOF 7
ENDMDL
MODEL 15
REMARK VINA RESULT:    -4.151      8.422     13.573
REMARK INTER + INTRA:          -4.793
REMARK INTER:                  -5.852
REMARK INTRA:                   1.059
REMARK UNBOUND:                 1.056
REMARK  7 active torsions:
REMARK  status: ('A' for Active; 'I' for Inactive)
REMARK    1  A    between atoms: C_13  and  C_14 
REMARK    2  A    between atoms: C_14  and  C_19 
REMARK    3  A    between atoms: C_15  and  C_20 
REMARK    4  A    between atoms: C_16  and  C_21 
REMARK    5  A    between atoms: C_17  and  C_23 
REMARK    6  A    between atoms: C_18  and  C_26 
REMARK    7  A    between atoms: C_22  and  C_28 
ROOT
HETATM    1  O   UNL     1      57.876  38.636   5.786  1.00  0.00    -0.304 OA
HETATM    2  O   UNL     1      57.207  43.687   4.631  1.00  0.00    -0.304 OA
HETATM    3  O   UNL     1      53.546  40.780   3.933  1.00  0.00    -0.304 OA
HETATM    4  O   UNL     1      59.231  41.292   4.022  1.00  0.00    -0.270 OA
HETATM    5  O   UNL     1      56.764  40.190   7.077  1.00  0.00    -0.263 OA
HETATM    6  O   UNL     1      56.927  39.521   3.543  1.00  0.00    -0.270 OA
HETATM    7  O   UNL     1      53.431  43.895   3.046  1.00  0.00    -0.270 OA
HETATM    8  O   UNL     1      57.381  45.965   4.872  1.00  0.00    -0.263 OA
HETATM    9  O   UNL     1      53.522  41.265   1.683  1.00  0.00    -0.263 OA
HETATM   10  N   UNL     1      58.936  41.831   6.261  1.00  0.00    -0.340 N 
HETATM   11  N   UNL     1      54.850  38.511   3.673  1.00  0.00    -0.340 N 
HETATM   12  N   UNL     1      54.561  43.615   5.060  1.00  0.00    -0.340 N 
HETATM   13  C   UNL     1      59.149  40.423   6.654  1.00  0.00     0.190 C 
HETATM   14  C   UNL     1      54.436  39.154   2.407  1.00  0.00     0.190 C 
HETATM   15  C   UNL     1      55.191  44.950   4.985  1.00  0.00     0.190 C 
HETATM   16  C   UNL     1      58.634  43.565   4.471  1.00  0.00     0.227 C 
HETATM   17  C   UNL     1      56.636  38.017   5.380  1.00  0.00     0.227 C 
HETATM   18  C   UNL     1      52.825  41.960   4.331  1.00  0.00     0.227 C 
HETATM   19  C   UNL     1      58.963  42.134   4.888  1.00  0.00     0.250 C 
HETATM   20  C   UNL     1      57.786  39.757   6.562  1.00  0.00     0.283 C 
HETATM   21  C   UNL     1      56.155  38.751   4.126  1.00  0.00     0.250 C 
HETATM   22  C   UNL     1      53.633  43.240   4.073  1.00  0.00     0.250 C 
HETATM   23  C   UNL     1      56.710  44.938   4.839  1.00  0.00     0.283 C 
HETATM   24  C   UNL     1      53.799  40.525   2.621  1.00  0.00     0.283 C 
HETATM   25  C   UNL     1      58.676  42.807   7.323  1.00  0.00     0.153 C 
HETATM   26  C   UNL     1      53.859  37.700   4.385  1.00  0.00     0.153 C 
HETATM   27  C   UNL     1      54.803  42.818   6.264  1.00  0.00     0.153 C 
ENDROOT
BRANCH  17  28
HETATM   28  C   UNL     1      56.953  36.562   5.063  1.00  0.00     0.016 C 
HETATM   29  C   UNL     1      57.789  36.459   3.788  1.00  0.00     0.012 C 
HETATM   30  C   UNL     1      57.680  35.901   6.234  1.00  0.00     0.012 C 
ENDBRANCH  17  28
BRANCH  13  31
HETATM   31  C   UNL     1      59.751  40.199   8.037  1.00  0.00     0.014 C 
HETATM   32  C   UNL     1      59.396  38.798   8.538  1.00  0.00     0.012 C 
BRANCH  31  33
HETATM   33  C   UNL     1      61.271  40.436   7.993  1.00  0.00     0.002 C 
HETATM   34  C   UNL     1      61.768  41.420   9.042  1.00  0.00     0.005 C 
ENDBRANCH  31  33
ENDBRANCH  13  31
BRANCH  14  35
HETATM   35  C   UNL     1      53.516  38.286   1.548  1.00  0.00     0.010 C 
HETATM   36  C   UNL     1      52.698  39.150   0.592  1.00  0.00     0.012 C 
HETATM   37  C   UNL     1      54.324  37.247   0.772  1.00  0.00     0.012 C 
ENDBRANCH  14  35
BRANCH  16  38
HETATM   38  C   UNL     1      58.986  43.822   3.008  1.00  0.00     0.016 C 
HETATM   39  C   UNL     1      59.767  45.127   2.862  1.00  0.00     0.012 C 
HETATM   40  C   UNL     1      57.724  43.854   2.147  1.00  0.00     0.012 C 
ENDBRANCH  16  38
BRANCH  18  41
HETATM   41  C   UNL     1      51.429  42.008   3.713  1.00  0.00     0.016 C 
HETATM   42  C   UNL     1      50.608  43.139   4.329  1.00  0.00     0.012 C 
HETATM   43  C   UNL     1      50.716  40.669   3.892  1.00  0.00     0.012 C 
ENDBRANCH  18  41
BRANCH  15  44
HETATM   44  C   UNL     1      54.773  45.827   6.166  1.00  0.00     0.010 C 
HETATM   45  C   UNL     1      54.696  47.292   5.742  1.00  0.00     0.012 C 
HETATM   46  C   UNL     1      55.744  45.654   7.330  1.00  0.00     0.012 C 
ENDBRANCH  15  44
TORSDOF 7
ENDMDL
MODEL 16
REMARK VINA RESULT:    -4.137      5.308     10.313
REMARK INTER + INTRA:          -4.775
REMARK INTER:                  -5.521
REMARK INTRA:                   0.746
REMARK UNBOUND:                 1.056
REMARK  7 active torsions:
REMARK  status: ('A' for Active; 'I' for Inactive)
REMARK    1  A    between atoms: C_13  and  C_14 
REMARK    2  A    between atoms: C_14  and  C_19 
REMARK    3  A    between atoms: C_15  and  C_20 
REMARK    4  A    between atoms: C_16  and  C_21 
REMARK    5  A    between atoms: C_17  and  C_23 
REMARK    6  A    between atoms: C_18  and  C_26 
REMARK    7  A    between atoms: C_22  and  C_28 
ROOT
HETATM    1  O   UNL     1      55.093  37.876   2.602  1.00  0.00    -0.304 OA
HETATM    2  O   UNL     1      50.438  39.863   1.312  1.00  0.00    -0.304 OA
HETATM    3  O   UNL     1      53.826  42.893   2.607  1.00  0.00    -0.304 OA
HETATM    4  O   UNL     1      51.694  37.633   3.223  1.00  0.00    -0.270 OA
HETATM    5  O   UNL     1      54.556  38.889   0.602  1.00  0.00    -0.263 OA
HETATM    6  O   UNL     1      53.761  39.564   4.049  1.00  0.00    -0.270 OA
HETATM    7  O   UNL     1      50.798  43.886   2.014  1.00  0.00    -0.270 OA
HETATM    8  O   UNL     1      48.481  40.104   0.132  1.00  0.00    -0.263 OA
HETATM    9  O   UNL     1      52.561  43.631   4.383  1.00  0.00    -0.263 OA
HETATM   10  N   UNL     1      52.155  37.409   0.959  1.00  0.00    -0.340 N 
HETATM   11  N   UNL     1      55.322  41.271   4.038  1.00  0.00    -0.340 N 
HETATM   12  N   UNL     1      51.461  42.216   0.537  1.00  0.00    -0.340 N 
HETATM   13  C   UNL     1      53.472  36.811   1.260  1.00  0.00     0.190 C 
HETATM   14  C   UNL     1      54.406  42.138   4.811  1.00  0.00     0.190 C 
HETATM   15  C   UNL     1      50.074  41.920   0.121  1.00  0.00     0.190 C 
HETATM   16  C   UNL     1      50.054  38.541   1.738  1.00  0.00     0.227 C 
HETATM   17  C   UNL     1      55.858  39.024   3.031  1.00  0.00     0.227 C 
HETATM   18  C   UNL     1      53.161  43.705   1.623  1.00  0.00     0.227 C 
HETATM   19  C   UNL     1      51.364  37.822   2.047  1.00  0.00     0.250 C 
HETATM   20  C   UNL     1      54.432  37.980   1.412  1.00  0.00     0.283 C 
HETATM   21  C   UNL     1      54.887  39.970   3.744  1.00  0.00     0.250 C 
HETATM   22  C   UNL     1      51.698  43.280   1.424  1.00  0.00     0.250 C 
HETATM   23  C   UNL     1      49.570  40.531   0.501  1.00  0.00     0.283 C 
HETATM   24  C   UNL     1      53.479  42.961   3.920  1.00  0.00     0.283 C 
HETATM   25  C   UNL     1      51.779  37.566  -0.449  1.00  0.00     0.153 C 
HETATM   26  C   UNL     1      56.599  41.840   3.602  1.00  0.00     0.153 C 
HETATM   27  C   UNL     1      52.540  41.496  -0.142  1.00  0.00     0.153 C 
ENDROOT
BRANCH  17  28
HETATM   28  C   UNL     1      56.916  38.512   3.998  1.00  0.00     0.016 C 
HETATM   29  C   UNL     1      56.360  37.374   4.853  1.00  0.00     0.012 C 
HETATM   30  C   UNL     1      58.162  38.054   3.241  1.00  0.00     0.012 C 
ENDBRANCH  17  28
BRANCH  13  31
HETATM   31  C   UNL     1      54.007  35.822   0.231  1.00  0.00     0.014 C 
HETATM   32  C   UNL     1      55.527  35.712   0.356  1.00  0.00     0.012 C 
BRANCH  31  33
HETATM   33  C   UNL     1      53.308  34.461   0.398  1.00  0.00     0.002 C 
HETATM   34  C   UNL     1      52.706  33.919  -0.891  1.00  0.00     0.005 C 
ENDBRANCH  31  33
ENDBRANCH  13  31
BRANCH  14  35
HETATM   35  C   UNL     1      55.120  43.058   5.801  1.00  0.00     0.010 C 
HETATM   36  C   UNL     1      54.699  44.510   5.589  1.00  0.00     0.012 C 
HETATM   37  C   UNL     1      54.839  42.625   7.240  1.00  0.00     0.012 C 
ENDBRANCH  14  35
BRANCH  16  38
HETATM   38  C   UNL     1      49.171  38.663   2.977  1.00  0.00     0.016 C 
HETATM   39  C   UNL     1      47.706  38.411   2.623  1.00  0.00     0.012 C 
HETATM   40  C   UNL     1      49.337  40.037   3.624  1.00  0.00     0.012 C 
ENDBRANCH  16  38
BRANCH  18  41
HETATM   41  C   UNL     1      53.307  45.196   1.923  1.00  0.00     0.016 C 
HETATM   42  C   UNL     1      52.690  46.032   0.804  1.00  0.00     0.012 C 
HETATM   43  C   UNL     1      54.777  45.562   2.118  1.00  0.00     0.012 C 
ENDBRANCH  18  41
BRANCH  15  44
HETATM   44  C   UNL     1      49.876  42.172  -1.374  1.00  0.00     0.010 C 
HETATM   45  C   UNL     1      48.630  43.019  -1.614  1.00  0.00     0.012 C 
HETATM   46  C   UNL     1      49.783  40.849  -2.130  1.00  0.00     0.012 C 
ENDBRANCH  15  44
TORSDOF 7
ENDMDL
MODEL 17
REMARK VINA RESULT:    -4.093      2.153      6.116
REMARK INTER + INTRA:          -4.712
REMARK INTER:                  -5.588
REMARK INTRA:                   0.875
REMARK UNBOUND:                 1.056
REMARK  7 active torsions:
REMARK  status: ('A' for Active; 'I' for Inactive)
REMARK    1  A    between atoms: C_13  and  C_14 
REMARK    2  A    between atoms: C_14  and  C_19 
REMARK    3  A    between atoms: C_15  and  C_20 
REMARK    4  A    between atoms: C_16  and  C_21 
REMARK    5  A    between atoms: C_17  and  C_23 
REMARK    6  A    between atoms: C_18  and  C_26 
REMARK    7  A    between atoms: C_22  and  C_28 
ROOT
HETATM    1  O   UNL     1      50.431  35.317   3.562  1.00  0.00    -0.304 OA
HETATM    2  O   UNL     1      45.495  33.985   2.487  1.00  0.00    -0.304 OA
HETATM    3  O   UNL     1      48.011  36.021  -0.958  1.00  0.00    -0.304 OA
HETATM    4  O   UNL     1      47.163  35.611   4.673  1.00  0.00    -0.270 OA
HETATM    5  O   UNL     1      49.753  33.467   2.363  1.00  0.00    -0.263 OA
HETATM    6  O   UNL     1      48.676  36.901   2.499  1.00  0.00    -0.270 OA
HETATM    7  O   UNL     1      44.861  35.349  -1.327  1.00  0.00    -0.270 OA
HETATM    8  O   UNL     1      43.588  32.703   2.494  1.00  0.00    -0.263 OA
HETATM    9  O   UNL     1      46.533  37.783  -1.068  1.00  0.00    -0.263 OA
HETATM   10  N   UNL     1      47.759  33.386   4.387  1.00  0.00    -0.340 N 
HETATM   11  N   UNL     1      49.787  37.291   0.508  1.00  0.00    -0.340 N 
HETATM   12  N   UNL     1      45.963  33.683  -0.135  1.00  0.00    -0.340 N 
HETATM   13  C   UNL     1      49.166  33.693   4.714  1.00  0.00     0.190 C 
HETATM   14  C   UNL     1      48.660  38.115   0.020  1.00  0.00     0.190 C 
HETATM   15  C   UNL     1      44.704  33.113   0.390  1.00  0.00     0.190 C 
HETATM   16  C   UNL     1      45.418  34.161   3.916  1.00  0.00     0.227 C 
HETATM   17  C   UNL     1      50.882  35.985   2.364  1.00  0.00     0.227 C 
HETATM   18  C   UNL     1      47.213  35.128  -1.757  1.00  0.00     0.227 C 
HETATM   19  C   UNL     1      46.847  34.457   4.361  1.00  0.00     0.250 C 
HETATM   20  C   UNL     1      49.814  34.108   3.404  1.00  0.00     0.283 C 
HETATM   21  C   UNL     1      49.686  36.758   1.801  1.00  0.00     0.250 C 
HETATM   22  C   UNL     1      45.903  34.745  -1.053  1.00  0.00     0.250 C 
HETATM   23  C   UNL     1      44.529  33.224   1.902  1.00  0.00     0.283 C 
HETATM   24  C   UNL     1      47.602  37.295  -0.715  1.00  0.00     0.283 C 
HETATM   25  C   UNL     1      47.416  31.994   4.077  1.00  0.00     0.153 C 
HETATM   26  C   UNL     1      50.910  37.057  -0.403  1.00  0.00     0.153 C 
HETATM   27  C   UNL     1      47.209  32.987   0.192  1.00  0.00     0.153 C 
ENDROOT
BRANCH  17  28
HETATM   28  C   UNL     1      51.990  36.941   2.783  1.00  0.00     0.016 C 
HETATM   29  C   UNL     1      51.412  38.305   3.157  1.00  0.00     0.012 C 
HETATM   30  C   UNL     1      52.790  36.361   3.949  1.00  0.00     0.012 C 
ENDBRANCH  17  28
BRANCH  13  31
HETATM   31  C   UNL     1      49.963  32.566   5.362  1.00  0.00     0.014 C 
HETATM   32  C   UNL     1      51.456  32.768   5.098  1.00  0.00     0.012 C 
BRANCH  31  33
HETATM   33  C   UNL     1      49.641  32.491   6.865  1.00  0.00     0.002 C 
HETATM   34  C   UNL     1      49.283  31.092   7.345  1.00  0.00     0.005 C 
ENDBRANCH  31  33
ENDBRANCH  13  31
BRANCH  14  35
HETATM   35  C   UNL     1      49.093  39.295  -0.851  1.00  0.00     0.010 C 
HETATM   36  C   UNL     1      48.650  39.090  -2.298  1.00  0.00     0.012 C 
HETATM   37  C   UNL     1      48.533  40.607  -0.301  1.00  0.00     0.012 C 
ENDBRANCH  14  35
BRANCH  16  38
HETATM   38  C   UNL     1      44.480  35.327   4.215  1.00  0.00     0.016 C 
HETATM   39  C   UNL     1      43.155  34.822   4.784  1.00  0.00     0.012 C 
HETATM   40  C   UNL     1      44.240  36.162   2.958  1.00  0.00     0.012 C 
ENDBRANCH  16  38
BRANCH  18  41
HETATM   41  C   UNL     1      46.989  35.674  -3.166  1.00  0.00     0.016 C 
HETATM   42  C   UNL     1      46.125  34.716  -3.982  1.00  0.00     0.012 C 
HETATM   43  C   UNL     1      48.325  35.919  -3.865  1.00  0.00     0.012 C 
ENDBRANCH  18  41
BRANCH  15  44
HETATM   44  C   UNL     1      44.516  31.666  -0.067  1.00  0.00     0.010 C 
HETATM   45  C   UNL     1      43.109  31.460  -0.622  1.00  0.00     0.012 C 
HETATM   46  C   UNL     1      44.787  30.703   1.085  1.00  0.00     0.012 C 
ENDBRANCH  15  44
TORSDOF 7
ENDMDL
MODEL 18
REMARK VINA RESULT:    -4.059      2.905      7.413
REMARK INTER + INTRA:          -4.665
REMARK INTER:                  -5.573
REMARK INTRA:                   0.908
REMARK UNBOUND:                 1.056
REMARK  7 active torsions:
REMARK  status: ('A' for Active; 'I' for Inactive)
REMARK    1  A    between atoms: C_13  and  C_14 
REMARK    2  A    between atoms: C_14  and  C_19 
REMARK    3  A    between atoms: C_15  and  C_20 
REMARK    4  A    between atoms: C_16  and  C_21 
REMARK    5  A    between atoms: C_17  and  C_23 
REMARK    6  A    between atoms: C_18  and  C_26 
REMARK    7  A    between atoms: C_22  and  C_28 
ROOT
HETATM    1  O   UNL     1      45.548  38.476  -2.510  1.00  0.00    -0.304 OA
HETATM    2  O   UNL     1      48.216  36.926   1.706  1.00  0.00    -0.304 OA
HETATM    3  O   UNL     1      43.501  36.645   1.876  1.00  0.00    -0.304 OA
HETATM    4  O   UNL     1      48.000  39.435  -0.259  1.00  0.00    -0.270 OA
HETATM    5  O   UNL     1      45.985  36.294  -1.904  1.00  0.00    -0.263 OA
HETATM    6  O   UNL     1      45.065  39.264  -0.089  1.00  0.00    -0.270 OA
HETATM    7  O   UNL     1      45.335  35.979   4.465  1.00  0.00    -0.270 OA
HETATM    8  O   UNL     1      49.895  35.920   2.910  1.00  0.00    -0.263 OA
HETATM    9  O   UNL     1      43.426  38.099   3.659  1.00  0.00    -0.263 OA
HETATM   10  N   UNL     1      48.520  37.404  -1.256  1.00  0.00    -0.340 N 
HETATM   11  N   UNL     1      42.902  38.457   0.067  1.00  0.00    -0.340 N 
HETATM   12  N   UNL     1      46.311  35.213   2.498  1.00  0.00    -0.340 N 
HETATM   13  C   UNL     1      47.807  37.797  -2.489  1.00  0.00     0.190 C 
HETATM   14  C   UNL     1      42.814  38.910   1.472  1.00  0.00     0.190 C 
HETATM   15  C   UNL     1      47.644  35.067   3.121  1.00  0.00     0.190 C 
HETATM   16  C   UNL     1      49.148  37.862   1.131  1.00  0.00     0.227 C 
HETATM   17  C   UNL     1      44.165  38.358  -2.112  1.00  0.00     0.227 C 
HETATM   18  C   UNL     1      43.825  35.485   2.664  1.00  0.00     0.227 C 
HETATM   19  C   UNL     1      48.509  38.310  -0.180  1.00  0.00     0.250 C 
HETATM   20  C   UNL     1      46.356  37.400  -2.272  1.00  0.00     0.283 C 
HETATM   21  C   UNL     1      44.090  38.729  -0.628  1.00  0.00     0.250 C 
HETATM   22  C   UNL     1      45.220  35.594   3.297  1.00  0.00     0.250 C 
HETATM   23  C   UNL     1      48.719  35.998   2.567  1.00  0.00     0.283 C 
HETATM   24  C   UNL     1      43.295  37.854   2.465  1.00  0.00     0.283 C 
HETATM   25  C   UNL     1      49.157  36.083  -1.224  1.00  0.00     0.153 C 
HETATM   26  C   UNL     1      41.762  37.725  -0.489  1.00  0.00     0.153 C 
HETATM   27  C   UNL     1      46.162  34.776   1.109  1.00  0.00     0.153 C 
ENDROOT
BRANCH  17  28
HETATM   28  C   UNL     1      43.378  39.352  -2.954  1.00  0.00     0.016 C 
HETATM   29  C   UNL     1      44.259  40.533  -3.358  1.00  0.00     0.012 C 
HETATM   30  C   UNL     1      42.798  38.669  -4.192  1.00  0.00     0.012 C 
ENDBRANCH  17  28
BRANCH  13  31
HETATM   31  C   UNL     1      48.331  37.190  -3.785  1.00  0.00     0.014 C 
HETATM   32  C   UNL     1      47.220  37.173  -4.837  1.00  0.00     0.012 C 
BRANCH  31  33
HETATM   33  C   UNL     1      49.574  37.961  -4.262  1.00  0.00     0.002 C 
HETATM   34  C   UNL     1      49.471  39.468  -4.070  1.00  0.00     0.005 C 
ENDBRANCH  31  33
ENDBRANCH  13  31
BRANCH  14  35
HETATM   35  C   UNL     1      41.424  39.400   1.875  1.00  0.00     0.010 C 
HETATM   36  C   UNL     1      41.415  39.867   3.328  1.00  0.00     0.012 C 
HETATM   37  C   UNL     1      40.958  40.524   0.949  1.00  0.00     0.012 C 
ENDBRANCH  14  35
BRANCH  16  38
HETATM   38  C   UNL     1      49.329  39.029   2.098  1.00  0.00     0.016 C 
HETATM   39  C   UNL     1      50.741  39.032   2.682  1.00  0.00     0.012 C 
HETATM   40  C   UNL     1      48.289  38.970   3.215  1.00  0.00     0.012 C 
ENDBRANCH  16  38
BRANCH  18  41
HETATM   41  C   UNL     1      42.735  35.170   3.687  1.00  0.00     0.016 C 
HETATM   42  C   UNL     1      43.088  33.912   4.477  1.00  0.00     0.012 C 
HETATM   43  C   UNL     1      41.382  35.008   2.997  1.00  0.00     0.012 C 
ENDBRANCH  18  41
BRANCH  15  44
HETATM   44  C   UNL     1      48.120  33.615   3.080  1.00  0.00     0.010 C 
HETATM   45  C   UNL     1      48.679  33.197   4.437  1.00  0.00     0.012 C 
HETATM   46  C   UNL     1      49.166  33.427   1.985  1.00  0.00     0.012 C 
ENDBRANCH  15  44
TORSDOF 7
ENDMDL
MODEL 19
REMARK VINA RESULT:    -4.053      2.181      6.305
REMARK INTER + INTRA:          -4.656
REMARK INTER:                  -5.239
REMARK INTRA:                   0.584
REMARK UNBOUND:                 1.056
REMARK  7 active torsions:
REMARK  status: ('A' for Active; 'I' for Inactive)
REMARK    1  A    between atoms: C_13  and  C_14 
REMARK    2  A    between atoms: C_14  and  C_19 
REMARK    3  A    between atoms: C_15  and  C_20 
REMARK    4  A    between atoms: C_16  and  C_21 
REMARK    5  A    between atoms: C_17  and  C_23 
REMARK    6  A    between atoms: C_18  and  C_26 
REMARK    7  A    between atoms: C_22  and  C_28 
ROOT
HETATM    1  O   UNL     1      47.223  33.387   4.177  1.00  0.00    -0.304 OA
HETATM    2  O   UNL     1      47.229  36.701   0.138  1.00  0.00    -0.304 OA
HETATM    3  O   UNL     1      51.301  34.556   1.214  1.00  0.00    -0.304 OA
HETATM    4  O   UNL     1      46.359  36.598   3.210  1.00  0.00    -0.270 OA
HETATM    5  O   UNL     1      47.178  32.809   1.945  1.00  0.00    -0.263 OA
HETATM    6  O   UNL     1      48.929  35.311   3.853  1.00  0.00    -0.270 OA
HETATM    7  O   UNL     1      51.140  36.836  -1.085  1.00  0.00    -0.270 OA
HETATM    8  O   UNL     1      46.456  37.748  -1.755  1.00  0.00    -0.263 OA
HETATM    9  O   UNL     1      52.320  36.579   1.622  1.00  0.00    -0.263 OA
HETATM   10  N   UNL     1      45.385  35.011   1.824  1.00  0.00    -0.340 N 
HETATM   11  N   UNL     1      50.838  34.009   3.744  1.00  0.00    -0.340 N 
HETATM   12  N   UNL     1      49.261  35.465  -1.099  1.00  0.00    -0.340 N 
HETATM   13  C   UNL     1      45.327  34.039   2.935  1.00  0.00     0.190 C 
HETATM   14  C   UNL     1      51.665  35.209   3.495  1.00  0.00     0.190 C 
HETATM   15  C   UNL     1      48.470  36.420  -1.902  1.00  0.00     0.190 C 
HETATM   16  C   UNL     1      46.134  37.228   0.913  1.00  0.00     0.227 C 
HETATM   17  C   UNL     1      48.604  32.983   4.301  1.00  0.00     0.227 C 
HETATM   18  C   UNL     1      51.449  34.619  -0.216  1.00  0.00     0.227 C 
HETATM   19  C   UNL     1      45.971  36.263   2.085  1.00  0.00     0.250 C 
HETATM   20  C   UNL     1      46.668  33.324   2.930  1.00  0.00     0.283 C 
HETATM   21  C   UNL     1      49.463  34.200   3.944  1.00  0.00     0.250 C 
HETATM   22  C   UNL     1      50.611  35.749  -0.831  1.00  0.00     0.250 C 
HETATM   23  C   UNL     1      47.265  37.024  -1.184  1.00  0.00     0.283 C 
HETATM   24  C   UNL     1      51.791  35.544   2.011  1.00  0.00     0.283 C 
HETATM   25  C   UNL     1      44.865  34.593   0.519  1.00  0.00     0.153 C 
HETATM   26  C   UNL     1      51.502  32.704   3.727  1.00  0.00     0.153 C 
HETATM   27  C   UNL     1      48.643  34.178  -0.775  1.00  0.00     0.153 C 
ENDROOT
BRANCH  17  28
HETATM   28  C   UNL     1      48.817  32.583   5.754  1.00  0.00     0.016 C 
HETATM   29  C   UNL     1      47.649  33.053   6.619  1.00  0.00     0.012 C 
HETATM   30  C   UNL     1      49.000  31.071   5.876  1.00  0.00     0.012 C 
ENDBRANCH  17  28
BRANCH  13  31
HETATM   31  C   UNL     1      44.190  33.025   2.876  1.00  0.00     0.014 C 
HETATM   32  C   UNL     1      44.480  31.863   3.827  1.00  0.00     0.012 C 
BRANCH  31  33
HETATM   33  C   UNL     1      42.852  33.718   3.192  1.00  0.00     0.002 C 
HETATM   34  C   UNL     1      42.876  34.541   4.471  1.00  0.00     0.005 C 
ENDBRANCH  31  33
ENDBRANCH  13  31
BRANCH  14  35
HETATM   35  C   UNL     1      53.055  35.140   4.127  1.00  0.00     0.010 C 
HETATM   36  C   UNL     1      54.118  34.866   3.065  1.00  0.00     0.012 C 
HETATM   37  C   UNL     1      53.371  36.433   4.879  1.00  0.00     0.012 C 
ENDBRANCH  14  35
BRANCH  16  38
HETATM   38  C   UNL     1      46.500  38.633   1.385  1.00  0.00     0.016 C 
HETATM   39  C   UNL     1      45.638  39.680   0.682  1.00  0.00     0.012 C 
HETATM   40  C   UNL     1      47.982  38.912   1.147  1.00  0.00     0.012 C 
ENDBRANCH  16  38
BRANCH  18  41
HETATM   41  C   UNL     1      52.918  34.679  -0.634  1.00  0.00     0.016 C 
HETATM   42  C   UNL     1      53.040  34.805  -2.150  1.00  0.00     0.012 C 
HETATM   43  C   UNL     1      53.668  33.445  -0.136  1.00  0.00     0.012 C 
ENDBRANCH  18  41
BRANCH  15  44
HETATM   44  C   UNL     1      48.045  35.806  -3.237  1.00  0.00     0.010 C 
HETATM   45  C   UNL     1      48.333  36.769  -4.384  1.00  0.00     0.012 C 
HETATM   46  C   UNL     1      46.566  35.431  -3.205  1.00  0.00     0.012 C 
ENDBRANCH  15  44
TORSDOF 7
ENDMDL
MODEL 20
REMARK VINA RESULT:    -4.033      5.770      9.104
REMARK INTER + INTRA:          -4.628
REMARK INTER:                  -5.181
REMARK INTRA:                   0.553
REMARK UNBOUND:                 1.056
REMARK  7 active torsions:
REMARK  status: ('A' for Active; 'I' for Inactive)
REMARK    1  A    between atoms: C_13  and  C_14 
REMARK    2  A    between atoms: C_14  and  C_19 
REMARK    3  A    between atoms: C_15  and  C_20 
REMARK    4  A    between atoms: C_16  and  C_21 
REMARK    5  A    between atoms: C_17  and  C_23 
REMARK    6  A    between atoms: C_18  and  C_26 
REMARK    7  A    between atoms: C_22  and  C_28 
ROOT
HETATM    1  O   UNL     1      51.489  40.679   2.718  1.00  0.00    -0.304 OA
HETATM    2  O   UNL     1      55.017  36.966   1.693  1.00  0.00    -0.304 OA
HETATM    3  O   UNL     1      56.118  40.184   4.976  1.00  0.00    -0.304 OA
HETATM    4  O   UNL     1      53.238  39.132   0.161  1.00  0.00    -0.270 OA
HETATM    5  O   UNL     1      51.906  38.809   4.002  1.00  0.00    -0.263 OA
HETATM    6  O   UNL     1      53.987  41.127   2.195  1.00  0.00    -0.270 OA
HETATM    7  O   UNL     1      58.258  37.951   4.004  1.00  0.00    -0.270 OA
HETATM    8  O   UNL     1      55.819  34.865   1.220  1.00  0.00    -0.263 OA
HETATM    9  O   UNL     1      57.938  40.887   3.753  1.00  0.00    -0.263 OA
HETATM   10  N   UNL     1      52.077  37.584   1.442  1.00  0.00    -0.340 N 
HETATM   11  N   UNL     1      54.541  42.139   4.200  1.00  0.00    -0.340 N 
HETATM   12  N   UNL     1      56.105  37.079   4.141  1.00  0.00    -0.340 N 
HETATM   13  C   UNL     1      51.029  38.581   1.743  1.00  0.00     0.190 C 
HETATM   14  C   UNL     1      55.952  42.255   3.773  1.00  0.00     0.190 C 
HETATM   15  C   UNL     1      56.442  35.903   3.312  1.00  0.00     0.190 C 
HETATM   16  C   UNL     1      54.305  37.009   0.440  1.00  0.00     0.227 C 
HETATM   17  C   UNL     1      52.151  41.538   3.672  1.00  0.00     0.227 C 
HETATM   18  C   UNL     1      56.777  39.040   5.549  1.00  0.00     0.227 C 
HETATM   19  C   UNL     1      53.168  38.003   0.660  1.00  0.00     0.250 C 
HETATM   20  C   UNL     1      51.516  39.337   2.968  1.00  0.00     0.283 C 
HETATM   21  C   UNL     1      53.633  41.577   3.290  1.00  0.00     0.250 C 
HETATM   22  C   UNL     1      57.122  37.985   4.488  1.00  0.00     0.250 C 
HETATM   23  C   UNL     1      55.723  35.834   1.968  1.00  0.00     0.283 C 
HETATM   24  C   UNL     1      56.785  41.030   4.145  1.00  0.00     0.283 C 
HETATM   25  C   UNL     1      51.927  36.241   2.010  1.00  0.00     0.153 C 
HETATM   26  C   UNL     1      54.195  42.583   5.552  1.00  0.00     0.153 C 
HETATM   27  C   UNL     1      54.758  37.143   4.709  1.00  0.00     0.153 C 
ENDROOT
BRANCH  17  28
HETATM   28  C   UNL     1      51.524  42.918   3.532  1.00  0.00     0.016 C 
HETATM   29  C   UNL     1      51.215  43.223   2.067  1.00  0.00     0.012 C 
HETATM   30  C   UNL     1      50.257  43.024   4.379  1.00  0.00     0.012 C 
ENDBRANCH  17  28
BRANCH  13  31
HETATM   31  C   UNL     1      49.630  38.027   1.988  1.00  0.00     0.014 C 
HETATM   32  C   UNL     1      48.826  39.005   2.847  1.00  0.00     0.012 C 
BRANCH  31  33
HETATM   33  C   UNL     1      48.941  37.726   0.645  1.00  0.00     0.002 C 
HETATM   34  C   UNL     1      49.290  38.716  -0.457  1.00  0.00     0.005 C 
ENDBRANCH  31  33
ENDBRANCH  13  31
BRANCH  14  35
HETATM   35  C   UNL     1      56.644  43.521   4.277  1.00  0.00     0.010 C 
HETATM   36  C   UNL     1      57.675  43.182   5.352  1.00  0.00     0.012 C 
HETATM   37  C   UNL     1      57.305  44.271   3.120  1.00  0.00     0.012 C 
ENDBRANCH  14  35
BRANCH  16  38
HETATM   38  C   UNL     1      55.263  37.480  -0.651  1.00  0.00     0.016 C 
HETATM   39  C   UNL     1      55.560  36.348  -1.633  1.00  0.00     0.012 C 
HETATM   40  C   UNL     1      56.558  38.012  -0.040  1.00  0.00     0.012 C 
ENDBRANCH  16  38
BRANCH  18  41
HETATM   41  C   UNL     1      57.985  39.445   6.394  1.00  0.00     0.016 C 
HETATM   42  C   UNL     1      58.697  38.209   6.938  1.00  0.00     0.012 C 
HETATM   43  C   UNL     1      57.557  40.364   7.536  1.00  0.00     0.012 C 
ENDBRANCH  18  41
BRANCH  15  44
HETATM   44  C   UNL     1      56.248  34.601   4.091  1.00  0.00     0.010 C 
HETATM   45  C   UNL     1      57.433  33.665   3.871  1.00  0.00     0.012 C 
HETATM   46  C   UNL     1      54.944  33.923   3.681  1.00  0.00     0.012 C 
ENDBRANCH  15  44
TORSDOF 7
ENDMDL
