MODEL 1
REMARK VINA RESULT:    -6.241      0.000      0.000
REMARK INTER + INTRA:          -8.198
REMARK INTER:                  -8.795
REMARK INTRA:                   0.597
REMARK UNBOUND:                 0.597
REMARK  7 active torsions:
REMARK  status: ('A' for Active; 'I' for Inactive)
REMARK    1  A    between atoms: C_13  and  C_14 
REMARK    2  A    between atoms: C_14  and  C_19 
REMARK    3  A    between atoms: C_15  and  C_20 
REMARK    4  A    between atoms: C_16  and  C_21 
REMARK    5  A    between atoms: C_17  and  C_23 
REMARK    6  A    between atoms: C_18  and  C_26 
REMARK    7  A    between atoms: C_22  and  C_28 
ROOT
HETATM    1  O   UNL     1      50.424  23.080  10.468  1.00  0.00    -0.304 OA
HETATM    2  O   UNL     1      53.449  22.080   6.328  1.00  0.00    -0.304 OA
HETATM    3  O   UNL     1      49.171  23.919   5.518  1.00  0.00    -0.304 OA
HETATM    4  O   UNL     1      52.333  20.625   8.944  1.00  0.00    -0.270 OA
HETATM    5  O   UNL     1      51.633  24.630   9.262  1.00  0.00    -0.263 OA
HETATM    6  O   UNL     1      49.668  21.745   8.380  1.00  0.00    -0.270 OA
HETATM    7  O   UNL     1      51.104  22.987   3.089  1.00  0.00    -0.270 OA
HETATM    8  O   UNL     1      55.373  21.965   5.078  1.00  0.00    -0.263 OA
HETATM    9  O   UNL     1      48.552  22.074   4.288  1.00  0.00    -0.263 OA
HETATM   10  N   UNL     1      53.573  22.554   9.303  1.00  0.00    -0.340 N 
HETATM   11  N   UNL     1      47.956  23.155   7.721  1.00  0.00    -0.340 N 
HETATM   12  N   UNL     1      52.308  23.977   4.816  1.00  0.00    -0.340 N 
HETATM   13  C   UNL     1      52.773  22.875  10.503  1.00  0.00     0.190 C 
HETATM   14  C   UNL     1      47.698  22.316   6.531  1.00  0.00     0.190 C 
HETATM   15  C   UNL     1      53.596  23.428   4.342  1.00  0.00     0.190 C 
HETATM   16  C   UNL     1      53.972  21.129   7.276  1.00  0.00     0.227 C 
HETATM   17  C   UNL     1      49.179  23.534   9.891  1.00  0.00     0.227 C 
HETATM   18  C   UNL     1      49.896  24.554   4.449  1.00  0.00     0.227 C 
HETATM   19  C   UNL     1      53.221  21.403   8.576  1.00  0.00     0.250 C 
HETATM   20  C   UNL     1      51.571  23.657  10.001  1.00  0.00     0.283 C 
HETATM   21  C   UNL     1      48.963  22.735   8.603  1.00  0.00     0.250 C 
HETATM   22  C   UNL     1      51.148  23.757   4.053  1.00  0.00     0.250 C 
HETATM   23  C   UNL     1      54.254  22.424   5.284  1.00  0.00     0.283 C 
HETATM   24  C   UNL     1      48.529  22.736   5.320  1.00  0.00     0.283 C 
HETATM   25  C   UNL     1      54.653  23.474   8.933  1.00  0.00     0.153 C 
HETATM   26  C   UNL     1      47.171  24.381   7.879  1.00  0.00     0.153 C 
HETATM   27  C   UNL     1      52.340  24.880   5.968  1.00  0.00     0.153 C 
ENDROOT
BRANCH  17  28
HETATM   28  C   UNL     1      48.086  23.225  10.904  1.00  0.00     0.016 C 
HETATM   29  C   UNL     1      48.540  22.131  11.871  1.00  0.00     0.012 C 
HETATM   30  C   UNL     1      47.690  24.486  11.671  1.00  0.00     0.012 C 
ENDBRANCH  17  28
BRANCH  13  31
HETATM   31  C   UNL     1      53.493  23.660  11.595  1.00  0.00     0.014 C 
HETATM   32  C   UNL     1      52.470  24.345  12.502  1.00  0.00     0.012 C 
BRANCH  31  33
HETATM   33  C   UNL     1      54.435  22.727  12.377  1.00  0.00     0.002 C 
HETATM   34  C   UNL     1      55.834  23.294  12.571  1.00  0.00     0.005 C 
ENDBRANCH  31  33
ENDBRANCH  13  31
BRANCH  14  35
HETATM   35  C   UNL     1      46.222  22.240   6.141  1.00  0.00     0.010 C 
HETATM   36  C   UNL     1      45.924  23.171   4.968  1.00  0.00     0.012 C 
HETATM   37  C   UNL     1      45.829  20.803   5.796  1.00  0.00     0.012 C 
ENDBRANCH  14  35
BRANCH  16  38
HETATM   38  C   UNL     1      53.703  19.720   6.754  1.00  0.00     0.016 C 
HETATM   39  C   UNL     1      55.009  19.028   6.368  1.00  0.00     0.012 C 
HETATM   40  C   UNL     1      52.746  19.759   5.564  1.00  0.00     0.012 C 
ENDBRANCH  16  38
BRANCH  18  41
HETATM   41  C   UNL     1      48.993  24.866   3.257  1.00  0.00     0.016 C 
HETATM   42  C   UNL     1      49.797  25.512   2.130  1.00  0.00     0.012 C 
HETATM   43  C   UNL     1      47.839  25.772   3.681  1.00  0.00     0.012 C 
ENDBRANCH  18  41
BRANCH  15  44
HETATM   44  C   UNL     1      54.576  24.544   3.979  1.00  0.00     0.010 C 
HETATM   45  C   UNL     1      55.247  24.252   2.640  1.00  0.00     0.012 C 
HETATM   46  C   UNL     1      55.619  24.717   5.079  1.00  0.00     0.012 C 
ENDBRANCH  15  44
TORSDOF 7
ENDMDL
MODEL 2
REMARK VINA RESULT:    -5.872      1.761      6.614
REMARK INTER + INTRA:          -7.679
REMARK INTER:                  -8.663
REMARK INTRA:                   0.984
REMARK UNBOUND:                 0.597
REMARK  7 active torsions:
REMARK  status: ('A' for Active; 'I' for Inactive)
REMARK    1  A    between atoms: C_13  and  C_14 
REMARK    2  A    between atoms: C_14  and  C_19 
REMARK    3  A    between atoms: C_15  and  C_20 
REMARK    4  A    between atoms: C_16  and  C_21 
REMARK    5  A    between atoms: C_17  and  C_23 
REMARK    6  A    between atoms: C_18  and  C_26 
REMARK    7  A    between atoms: C_22  and  C_28 
ROOT
HETATM    1  O   UNL     1      51.509  23.706  10.669  1.00  0.00    -0.304 OA
HETATM    2  O   UNL     1      49.106  23.021   6.082  1.00  0.00    -0.304 OA
HETATM    3  O   UNL     1      53.517  21.376   6.508  1.00  0.00    -0.304 OA
HETATM    4  O   UNL     1      49.769  25.349   8.166  1.00  0.00    -0.270 OA
HETATM    5  O   UNL     1      50.547  21.749   9.918  1.00  0.00    -0.263 OA
HETATM    6  O   UNL     1      52.524  24.329   8.368  1.00  0.00    -0.270 OA
HETATM    7  O   UNL     1      51.938  21.285   3.678  1.00  0.00    -0.270 OA
HETATM    8  O   UNL     1      47.388  22.555   4.629  1.00  0.00    -0.263 OA
HETATM    9  O   UNL     1      54.250  22.751   4.815  1.00  0.00    -0.263 OA
HETATM   10  N   UNL     1      48.554  23.555   8.998  1.00  0.00    -0.340 N 
HETATM   11  N   UNL     1      54.361  22.926   8.457  1.00  0.00    -0.340 N 
HETATM   12  N   UNL     1      50.524  20.830   5.468  1.00  0.00    -0.340 N 
HETATM   13  C   UNL     1      49.175  23.717  10.328  1.00  0.00     0.190 C 
HETATM   14  C   UNL     1      54.767  23.339   7.096  1.00  0.00     0.190 C 
HETATM   15  C   UNL     1      49.304  21.082   4.673  1.00  0.00     0.190 C 
HETATM   16  C   UNL     1      48.415  24.187   6.572  1.00  0.00     0.227 C 
HETATM   17  C   UNL     1      52.840  23.191  10.448  1.00  0.00     0.227 C 
HETATM   18  C   UNL     1      52.981  20.364   5.635  1.00  0.00     0.227 C 
HETATM   19  C   UNL     1      48.972  24.423   7.973  1.00  0.00     0.250 C 
HETATM   20  C   UNL     1      50.465  22.915  10.283  1.00  0.00     0.283 C 
HETATM   21  C   UNL     1      53.220  23.530   9.004  1.00  0.00     0.250 C 
HETATM   22  C   UNL     1      51.777  20.879   4.833  1.00  0.00     0.250 C 
HETATM   23  C   UNL     1      48.479  22.285   5.123  1.00  0.00     0.283 C 
HETATM   24  C   UNL     1      54.141  22.474   6.004  1.00  0.00     0.283 C 
HETATM   25  C   UNL     1      47.573  22.478   8.827  1.00  0.00     0.153 C 
HETATM   26  C   UNL     1      55.155  21.891   9.123  1.00  0.00     0.153 C 
HETATM   27  C   UNL     1      50.350  20.362   6.844  1.00  0.00     0.153 C 
ENDROOT
BRANCH  17  28
HETATM   28  C   UNL     1      53.759  23.907  11.428  1.00  0.00     0.016 C 
HETATM   29  C   UNL     1      52.967  24.890  12.289  1.00  0.00     0.012 C 
HETATM   30  C   UNL     1      54.499  22.902  12.308  1.00  0.00     0.012 C 
ENDBRANCH  17  28
BRANCH  13  31
HETATM   31  C   UNL     1      48.327  23.284  11.519  1.00  0.00     0.014 C 
HETATM   32  C   UNL     1      49.168  23.321  12.796  1.00  0.00     0.012 C 
BRANCH  31  33
HETATM   33  C   UNL     1      47.073  24.170  11.620  1.00  0.00     0.002 C 
HETATM   34  C   UNL     1      46.987  24.964  12.916  1.00  0.00     0.005 C 
ENDBRANCH  31  33
ENDBRANCH  13  31
BRANCH  14  35
HETATM   35  C   UNL     1      56.281  23.403   6.898  1.00  0.00     0.010 C 
HETATM   36  C   UNL     1      56.750  22.292   5.961  1.00  0.00     0.012 C 
HETATM   37  C   UNL     1      56.698  24.770   6.356  1.00  0.00     0.012 C 
ENDBRANCH  14  35
BRANCH  16  38
HETATM   38  C   UNL     1      48.712  25.360   5.642  1.00  0.00     0.016 C 
HETATM   39  C   UNL     1      47.453  25.784   4.889  1.00  0.00     0.012 C 
HETATM   40  C   UNL     1      49.827  25.000   4.660  1.00  0.00     0.012 C 
ENDBRANCH  16  38
BRANCH  18  41
HETATM   41  C   UNL     1      54.062  19.748   4.748  1.00  0.00     0.016 C 
HETATM   42  C   UNL     1      53.458  18.704   3.813  1.00  0.00     0.012 C 
HETATM   43  C   UNL     1      55.168  19.130   5.601  1.00  0.00     0.012 C 
ENDBRANCH  18  41
BRANCH  15  44
HETATM   44  C   UNL     1      48.427  19.832   4.589  1.00  0.00     0.010 C 
HETATM   45  C   UNL     1      49.274  18.607   4.258  1.00  0.00     0.012 C 
HETATM   46  C   UNL     1      47.325  20.022   3.550  1.00  0.00     0.012 C 
ENDBRANCH  15  44
TORSDOF 7
ENDMDL
MODEL 3
REMARK VINA RESULT:    -5.731      1.903      2.281
REMARK INTER + INTRA:          -7.479
REMARK INTER:                  -8.201
REMARK INTRA:                   0.722
REMARK UNBOUND:                 0.597
REMARK  7 active torsions:
REMARK  status: ('A' for Active; 'I' for Inactive)
REMARK    1  A    between atoms: C_13  and  C_14 
REMARK    2  A    between atoms: C_14  and  C_19 
REMARK    3  A    between atoms: C_15  and  C_20 
REMARK    4  A    between atoms: C_16  and  C_21 
REMARK    5  A    between atoms: C_17  and  C_23 
REMARK    6  A    between atoms: C_18  and  C_26 
REMARK    7  A    between atoms: C_22  and  C_28 
ROOT
HETATM    1  O   UNL     1      51.786  22.183  10.013  1.00  0.00    -0.304 OA
HETATM    2  O   UNL     1      55.220  23.478   6.294  1.00  0.00    -0.304 OA
HETATM    3  O   UNL     1      50.647  23.356   5.103  1.00  0.00    -0.304 OA
HETATM    4  O   UNL     1      54.720  21.188   8.464  1.00  0.00    -0.270 OA
HETATM    5  O   UNL     1      52.222  24.315   9.248  1.00  0.00    -0.263 OA
HETATM    6  O   UNL     1      51.887  21.100   7.660  1.00  0.00    -0.270 OA
HETATM    7  O   UNL     1      52.962  23.884   2.896  1.00  0.00    -0.270 OA
HETATM    8  O   UNL     1      57.062  24.480   5.356  1.00  0.00    -0.263 OA
HETATM    9  O   UNL     1      51.044  21.716   3.537  1.00  0.00    -0.263 OA
HETATM   10  N   UNL     1      54.895  23.350   9.290  1.00  0.00    -0.340 N 
HETATM   11  N   UNL     1      49.770  21.708   6.955  1.00  0.00    -0.340 N 
HETATM   12  N   UNL     1      53.441  24.935   4.915  1.00  0.00    -0.340 N 
HETATM   13  C   UNL     1      53.954  23.036  10.384  1.00  0.00     0.190 C 
HETATM   14  C   UNL     1      50.016  21.100   5.630  1.00  0.00     0.190 C 
HETATM   15  C   UNL     1      54.867  25.120   4.573  1.00  0.00     0.190 C 
HETATM   16  C   UNL     1      56.054  22.688   7.164  1.00  0.00     0.227 C 
HETATM   17  C   UNL     1      50.518  22.145   9.321  1.00  0.00     0.227 C 
HETATM   18  C   UNL     1      51.071  24.446   4.265  1.00  0.00     0.227 C 
HETATM   19  C   UNL     1      55.170  22.334   8.356  1.00  0.00     0.250 C 
HETATM   20  C   UNL     1      52.565  23.288   9.820  1.00  0.00     0.283 C 
HETATM   21  C   UNL     1      50.790  21.610   7.912  1.00  0.00     0.250 C 
HETATM   22  C   UNL     1      52.574  24.383   3.957  1.00  0.00     0.250 C 
HETATM   23  C   UNL     1      55.846  24.344   5.450  1.00  0.00     0.283 C 
HETATM   24  C   UNL     1      50.642  22.078   4.638  1.00  0.00     0.283 C 
HETATM   25  C   UNL     1      55.449  24.706   9.230  1.00  0.00     0.153 C 
HETATM   26  C   UNL     1      48.497  22.402   7.165  1.00  0.00     0.153 C 
HETATM   27  C   UNL     1      52.968  25.507   6.176  1.00  0.00     0.153 C 
ENDROOT
BRANCH  17  28
HETATM   28  C   UNL     1      49.623  21.188  10.095  1.00  0.00     0.016 C 
HETATM   29  C   UNL     1      50.398  19.936  10.504  1.00  0.00     0.012 C 
HETATM   30  C   UNL     1      49.032  21.877  11.325  1.00  0.00     0.012 C 
ENDBRANCH  17  28
BRANCH  13  31
HETATM   31  C   UNL     1      54.147  23.821  11.677  1.00  0.00     0.014 C 
HETATM   32  C   UNL     1      52.786  24.199  12.263  1.00  0.00     0.012 C 
BRANCH  31  33
HETATM   33  C   UNL     1      55.001  23.005  12.663  1.00  0.00     0.002 C 
HETATM   34  C   UNL     1      56.500  23.197  12.480  1.00  0.00     0.005 C 
ENDBRANCH  31  33
ENDBRANCH  13  31
BRANCH  14  35
HETATM   35  C   UNL     1      48.776  20.459   5.007  1.00  0.00     0.010 C 
HETATM   36  C   UNL     1      48.264  21.296   3.837  1.00  0.00     0.012 C 
HETATM   37  C   UNL     1      49.078  19.031   4.551  1.00  0.00     0.012 C 
ENDBRANCH  14  35
BRANCH  16  38
HETATM   38  C   UNL     1      56.507  21.441   6.407  1.00  0.00     0.016 C 
HETATM   39  C   UNL     1      58.008  21.493   6.132  1.00  0.00     0.012 C 
HETATM   40  C   UNL     1      55.728  21.291   5.102  1.00  0.00     0.012 C 
ENDBRANCH  16  38
BRANCH  18  41
HETATM   41  C   UNL     1      50.214  24.560   3.004  1.00  0.00     0.016 C 
HETATM   42  C   UNL     1      50.714  25.697   2.116  1.00  0.00     0.012 C 
HETATM   43  C   UNL     1      48.747  24.769   3.370  1.00  0.00     0.012 C 
ENDBRANCH  18  41
BRANCH  15  44
HETATM   44  C   UNL     1      55.242  26.602   4.534  1.00  0.00     0.010 C 
HETATM   45  C   UNL     1      56.068  26.912   3.289  1.00  0.00     0.012 C 
HETATM   46  C   UNL     1      56.003  26.994   5.797  1.00  0.00     0.012 C 
ENDBRANCH  15  44
TORSDOF 7
ENDMDL
MODEL 4
REMARK VINA RESULT:    -5.368      2.000      7.800
REMARK INTER + INTRA:          -6.968
REMARK INTER:                  -7.788
REMARK INTRA:                   0.820
REMARK UNBOUND:                 0.597
REMARK  7 active torsions:
REMARK  status: ('A' for Active; 'I' for Inactive)
REMARK    1  A    between atoms: C_13  and  C_14 
REMARK    2  A    between atoms: C_14  and  C_19 
REMARK    3  A    between atoms: C_15  and  C_20 
REMARK    4  A    between atoms: C_16  and  C_21 
REMARK    5  A    between atoms: C_17  and  C_23 
REMARK    6  A    between atoms: C_18  and  C_26 
REMARK    7  A    between atoms: C_22  and  C_28 
ROOT
HETATM    1  O   UNL     1      53.450  25.956   5.246  1.00  0.00    -0.304 OA
HETATM    2  O   UNL     1      49.567  22.569   6.110  1.00  0.00    -0.304 OA
HETATM    3  O   UNL     1      52.130  23.954   9.832  1.00  0.00    -0.304 OA
HETATM    4  O   UNL     1      52.113  22.931   4.216  1.00  0.00    -0.270 OA
HETATM    5  O   UNL     1      51.378  26.460   6.125  1.00  0.00    -0.263 OA
HETATM    6  O   UNL     1      53.696  23.739   6.565  1.00  0.00    -0.270 OA
HETATM    7  O   UNL     1      49.845  21.670  10.100  1.00  0.00    -0.270 OA
HETATM    8  O   UNL     1      47.484  21.623   5.900  1.00  0.00    -0.263 OA
HETATM    9  O   UNL     1      52.804  21.791  10.240  1.00  0.00    -0.263 OA
HETATM   10  N   UNL     1      50.530  24.626   4.126  1.00  0.00    -0.340 N 
HETATM   11  N   UNL     1      54.337  24.659   8.589  1.00  0.00    -0.340 N 
HETATM   12  N   UNL     1      49.201  23.366   8.644  1.00  0.00    -0.340 N 
HETATM   13  C   UNL     1      51.579  25.628   3.847  1.00  0.00     0.190 C 
HETATM   14  C   UNL     1      54.361  23.319   9.212  1.00  0.00     0.190 C 
HETATM   15  C   UNL     1      48.130  22.548   8.037  1.00  0.00     0.190 C 
HETATM   16  C   UNL     1      49.870  22.281   4.731  1.00  0.00     0.227 C 
HETATM   17  C   UNL     1      54.083  26.100   6.537  1.00  0.00     0.227 C 
HETATM   18  C   UNL     1      50.851  23.818  10.476  1.00  0.00     0.227 C 
HETATM   19  C   UNL     1      50.938  23.296   4.334  1.00  0.00     0.250 C 
HETATM   20  C   UNL     1      52.090  26.080   5.205  1.00  0.00     0.283 C 
HETATM   21  C   UNL     1      54.016  24.734   7.225  1.00  0.00     0.250 C 
HETATM   22  C   UNL     1      49.931  22.844   9.725  1.00  0.00     0.250 C 
HETATM   23  C   UNL     1      48.337  22.203   6.565  1.00  0.00     0.283 C 
HETATM   24  C   UNL     1      53.012  22.918   9.806  1.00  0.00     0.283 C 
HETATM   25  C   UNL     1      49.142  25.091   4.203  1.00  0.00     0.153 C 
HETATM   26  C   UNL     1      54.613  25.817   9.442  1.00  0.00     0.153 C 
HETATM   27  C   UNL     1      49.327  24.755   8.199  1.00  0.00     0.153 C 
ENDROOT
BRANCH  17  28
HETATM   28  C   UNL     1      55.528  26.500   6.276  1.00  0.00     0.016 C 
HETATM   29  C   UNL     1      55.925  26.179   4.836  1.00  0.00     0.012 C 
HETATM   30  C   UNL     1      55.738  27.984   6.571  1.00  0.00     0.012 C 
ENDBRANCH  17  28
BRANCH  13  31
HETATM   31  C   UNL     1      51.150  26.833   3.018  1.00  0.00     0.014 C 
HETATM   32  C   UNL     1      52.062  28.023   3.320  1.00  0.00     0.012 C 
BRANCH  31  33
HETATM   33  C   UNL     1      51.143  26.466   1.523  1.00  0.00     0.002 C 
HETATM   34  C   UNL     1      52.292  25.557   1.111  1.00  0.00     0.005 C 
ENDBRANCH  31  33
ENDBRANCH  13  31
BRANCH  14  35
HETATM   35  C   UNL     1      55.457  23.149  10.264  1.00  0.00     0.010 C 
HETATM   36  C   UNL     1      54.850  22.983  11.655  1.00  0.00     0.012 C 
HETATM   37  C   UNL     1      56.351  21.955   9.925  1.00  0.00     0.012 C 
ENDBRANCH  14  35
BRANCH  16  38
HETATM   38  C   UNL     1      50.389  20.848   4.633  1.00  0.00     0.016 C 
HETATM   39  C   UNL     1      49.382  19.958   3.906  1.00  0.00     0.012 C 
HETATM   40  C   UNL     1      50.692  20.289   6.022  1.00  0.00     0.012 C 
ENDBRANCH  16  38
BRANCH  18  41
HETATM   41  C   UNL     1      50.994  23.473  11.958  1.00  0.00     0.016 C 
HETATM   42  C   UNL     1      49.651  23.606  12.672  1.00  0.00     0.012 C 
HETATM   43  C   UNL     1      52.043  24.365  12.617  1.00  0.00     0.012 C 
ENDBRANCH  18  41
BRANCH  15  44
HETATM   44  C   UNL     1      46.756  23.187   8.249  1.00  0.00     0.010 C 
HETATM   45  C   UNL     1      46.617  24.449   7.402  1.00  0.00     0.012 C 
HETATM   46  C   UNL     1      46.537  23.503   9.726  1.00  0.00     0.012 C 
ENDBRANCH  15  44
TORSDOF 7
ENDMDL
MODEL 5
REMARK VINA RESULT:    -5.353      2.889      6.691
REMARK INTER + INTRA:          -6.948
REMARK INTER:                  -8.089
REMARK INTRA:                   1.142
REMARK UNBOUND:                 0.597
REMARK  7 active torsions:
REMARK  status: ('A' for Active; 'I' for Inactive)
REMARK    1  A    between atoms: C_13  and  C_14 
REMARK    2  A    between atoms: C_14  and  C_19 
REMARK    3  A    between atoms: C_15  and  C_20 
REMARK    4  A    between atoms: C_16  and  C_21 
REMARK    5  A    between atoms: C_17  and  C_23 
REMARK    6  A    between atoms: C_18  and  C_26 
REMARK    7  A    between atoms: C_22  and  C_28 
ROOT
HETATM    1  O   UNL     1      49.941  22.084   8.674  1.00  0.00    -0.304 OA
HETATM    2  O   UNL     1      47.128  25.893   6.468  1.00  0.00    -0.304 OA
HETATM    3  O   UNL     1      47.708  21.897   4.010  1.00  0.00    -0.304 OA
HETATM    4  O   UNL     1      49.967  25.451   7.864  1.00  0.00    -0.270 OA
HETATM    5  O   UNL     1      47.641  22.169   8.538  1.00  0.00    -0.263 OA
HETATM    6  O   UNL     1      50.319  22.995   6.277  1.00  0.00    -0.270 OA
HETATM    7  O   UNL     1      46.218  24.476   2.729  1.00  0.00    -0.270 OA
HETATM    8  O   UNL     1      45.610  27.613   6.337  1.00  0.00    -0.263 OA
HETATM    9  O   UNL     1      48.773  23.033   2.315  1.00  0.00    -0.263 OA
HETATM   10  N   UNL     1      48.109  24.907   9.144  1.00  0.00    -0.340 N 
HETATM   11  N   UNL     1      49.917  21.023   5.136  1.00  0.00    -0.340 N 
HETATM   12  N   UNL     1      45.681  24.199   4.976  1.00  0.00    -0.340 N 
HETATM   13  C   UNL     1      48.861  23.835   9.827  1.00  0.00     0.190 C 
HETATM   14  C   UNL     1      50.095  21.714   3.841  1.00  0.00     0.190 C 
HETATM   15  C   UNL     1      45.170  25.579   5.108  1.00  0.00     0.190 C 
HETATM   16  C   UNL     1      47.967  26.661   7.353  1.00  0.00     0.227 C 
HETATM   17  C   UNL     1      50.010  21.063   7.654  1.00  0.00     0.227 C 
HETATM   18  C   UNL     1      46.377  22.236   3.580  1.00  0.00     0.227 C 
HETATM   19  C   UNL     1      48.774  25.629   8.136  1.00  0.00     0.250 C 
HETATM   20  C   UNL     1      48.709  22.601   8.953  1.00  0.00     0.283 C 
HETATM   21  C   UNL     1      50.092  21.780   6.304  1.00  0.00     0.250 C 
HETATM   22  C   UNL     1      46.096  23.741   3.714  1.00  0.00     0.250 C 
HETATM   23  C   UNL     1      45.973  26.477   6.045  1.00  0.00     0.283 C 
HETATM   24  C   UNL     1      48.795  22.307   3.303  1.00  0.00     0.283 C 
HETATM   25  C   UNL     1      46.712  25.121   9.536  1.00  0.00     0.153 C 
HETATM   26  C   UNL     1      49.534  19.609   5.111  1.00  0.00     0.153 C 
HETATM   27  C   UNL     1      45.559  23.318   6.138  1.00  0.00     0.153 C 
ENDROOT
BRANCH  17  28
HETATM   28  C   UNL     1      51.278  20.263   7.915  1.00  0.00     0.016 C 
HETATM   29  C   UNL     1      52.504  21.175   7.899  1.00  0.00     0.012 C 
HETATM   30  C   UNL     1      51.182  19.519   9.247  1.00  0.00     0.012 C 
ENDBRANCH  17  28
BRANCH  13  31
HETATM   31  C   UNL     1      48.431  23.523  11.256  1.00  0.00     0.014 C 
HETATM   32  C   UNL     1      48.118  22.032  11.392  1.00  0.00     0.012 C 
BRANCH  31  33
HETATM   33  C   UNL     1      49.518  23.984  12.244  1.00  0.00     0.002 C 
HETATM   34  C   UNL     1      50.932  23.619  11.811  1.00  0.00     0.005 C 
ENDBRANCH  31  33
ENDBRANCH  13  31
BRANCH  14  35
HETATM   35  C   UNL     1      50.749  20.846   2.766  1.00  0.00     0.010 C 
HETATM   36  C   UNL     1      49.745  20.497   1.669  1.00  0.00     0.012 C 
HETATM   37  C   UNL     1      51.968  21.551   2.170  1.00  0.00     0.012 C 
ENDBRANCH  14  35
BRANCH  16  38
HETATM   38  C   UNL     1      48.868  27.562   6.513  1.00  0.00     0.016 C 
HETATM   39  C   UNL     1      48.505  29.032   6.721  1.00  0.00     0.012 C 
HETATM   40  C   UNL     1      48.773  27.192   5.034  1.00  0.00     0.012 C 
ENDBRANCH  16  38
BRANCH  18  41
HETATM   41  C   UNL     1      46.078  21.702   2.180  1.00  0.00     0.016 C 
HETATM   42  C   UNL     1      44.670  22.101   1.743  1.00  0.00     0.012 C 
HETATM   43  C   UNL     1      46.243  20.184   2.139  1.00  0.00     0.012 C 
ENDBRANCH  18  41
BRANCH  15  44
HETATM   44  C   UNL     1      43.690  25.589   5.493  1.00  0.00     0.010 C 
HETATM   45  C   UNL     1      42.839  25.020   4.362  1.00  0.00     0.012 C 
HETATM   46  C   UNL     1      43.240  27.004   5.848  1.00  0.00     0.012 C 
ENDBRANCH  15  44
TORSDOF 7
ENDMDL
MODEL 6
REMARK VINA RESULT:    -5.210      2.751      5.694
REMARK INTER + INTRA:          -6.746
REMARK INTER:                  -7.893
REMARK INTRA:                   1.148
REMARK UNBOUND:                 0.597
REMARK  7 active torsions:
REMARK  status: ('A' for Active; 'I' for Inactive)
REMARK    1  A    between atoms: C_13  and  C_14 
REMARK    2  A    between atoms: C_14  and  C_19 
REMARK    3  A    between atoms: C_15  and  C_20 
REMARK    4  A    between atoms: C_16  and  C_21 
REMARK    5  A    between atoms: C_17  and  C_23 
REMARK    6  A    between atoms: C_18  and  C_26 
REMARK    7  A    between atoms: C_22  and  C_28 
ROOT
HETATM    1  O   UNL     1      53.176  26.694   6.460  1.00  0.00    -0.304 OA
HETATM    2  O   UNL     1      55.235  22.859   9.348  1.00  0.00    -0.304 OA
HETATM    3  O   UNL     1      52.433  21.623   5.747  1.00  0.00    -0.304 OA
HETATM    4  O   UNL     1      53.582  25.568   9.710  1.00  0.00    -0.270 OA
HETATM    5  O   UNL     1      54.978  25.377   5.883  1.00  0.00    -0.263 OA
HETATM    6  O   UNL     1      51.822  24.742   7.497  1.00  0.00    -0.270 OA
HETATM    7  O   UNL     1      53.607  19.421   7.817  1.00  0.00    -0.270 OA
HETATM    8  O   UNL     1      56.826  21.730  10.561  1.00  0.00    -0.263 OA
HETATM    9  O   UNL     1      50.958  20.590   7.181  1.00  0.00    -0.263 OA
HETATM   10  N   UNL     1      55.624  25.760   8.624  1.00  0.00    -0.340 N 
HETATM   11  N   UNL     1      51.033  23.837   5.520  1.00  0.00    -0.340 N 
HETATM   12  N   UNL     1      55.170  21.078   7.345  1.00  0.00    -0.340 N 
HETATM   13  C   UNL     1      55.110  26.872   7.798  1.00  0.00     0.190 C 
HETATM   14  C   UNL     1      50.373  22.742   6.263  1.00  0.00     0.190 C 
HETATM   15  C   UNL     1      56.005  20.738   8.516  1.00  0.00     0.190 C 
HETATM   16  C   UNL     1      55.228  23.938  10.304  1.00  0.00     0.227 C 
HETATM   17  C   UNL     1      52.315  26.006   5.526  1.00  0.00     0.227 C 
HETATM   18  C   UNL     1      53.363  20.525   5.699  1.00  0.00     0.227 C 
HETATM   19  C   UNL     1      54.734  25.156   9.530  1.00  0.00     0.250 C 
HETATM   20  C   UNL     1      54.450  26.222   6.593  1.00  0.00     0.283 C 
HETATM   21  C   UNL     1      51.710  24.811   6.268  1.00  0.00     0.250 C 
HETATM   22  C   UNL     1      54.044  20.289   7.055  1.00  0.00     0.250 C 
HETATM   23  C   UNL     1      56.088  21.824   9.585  1.00  0.00     0.283 C 
HETATM   24  C   UNL     1      51.284  21.534   6.469  1.00  0.00     0.283 C 
HETATM   25  C   UNL     1      57.013  25.339   8.417  1.00  0.00     0.153 C 
HETATM   26  C   UNL     1      50.967  23.809   4.057  1.00  0.00     0.153 C 
HETATM   27  C   UNL     1      55.665  22.116   6.439  1.00  0.00     0.153 C 
ENDROOT
BRANCH  17  28
HETATM   28  C   UNL     1      51.229  26.992   5.119  1.00  0.00     0.016 C 
HETATM   29  C   UNL     1      50.008  26.854   6.028  1.00  0.00     0.012 C 
HETATM   30  C   UNL     1      51.761  28.424   5.151  1.00  0.00     0.012 C 
ENDBRANCH  17  28
BRANCH  13  31
HETATM   31  C   UNL     1      56.141  27.899   7.343  1.00  0.00     0.014 C 
HETATM   32  C   UNL     1      55.581  28.716   6.177  1.00  0.00     0.012 C 
BRANCH  31  33
HETATM   33  C   UNL     1      56.559  28.785   8.530  1.00  0.00     0.002 C 
HETATM   34  C   UNL     1      55.513  28.863   9.634  1.00  0.00     0.005 C 
ENDBRANCH  31  33
ENDBRANCH  13  31
BRANCH  14  35
HETATM   35  C   UNL     1      49.050  22.289   5.646  1.00  0.00     0.010 C 
HETATM   36  C   UNL     1      49.162  20.863   5.113  1.00  0.00     0.012 C 
HETATM   37  C   UNL     1      47.915  22.391   6.665  1.00  0.00     0.012 C 
ENDBRANCH  14  35
BRANCH  16  38
HETATM   38  C   UNL     1      54.284  23.573  11.446  1.00  0.00     0.016 C 
HETATM   39  C   UNL     1      55.069  23.067  12.655  1.00  0.00     0.012 C 
HETATM   40  C   UNL     1      53.268  22.526  10.992  1.00  0.00     0.012 C 
ENDBRANCH  16  38
BRANCH  18  41
HETATM   41  C   UNL     1      52.718  19.260   5.134  1.00  0.00     0.016 C 
HETATM   42  C   UNL     1      53.741  18.130   5.045  1.00  0.00     0.012 C 
HETATM   43  C   UNL     1      52.104  19.537   3.763  1.00  0.00     0.012 C 
ENDBRANCH  18  41
BRANCH  15  44
HETATM   44  C   UNL     1      57.405  20.296   8.090  1.00  0.00     0.010 C 
HETATM   45  C   UNL     1      57.910  19.176   8.995  1.00  0.00     0.012 C 
HETATM   46  C   UNL     1      58.368  21.480   8.110  1.00  0.00     0.012 C 
ENDBRANCH  15  44
TORSDOF 7
ENDMDL
MODEL 7
REMARK VINA RESULT:    -4.982      2.180      6.736
REMARK INTER + INTRA:          -6.425
REMARK INTER:                  -7.549
REMARK INTRA:                   1.124
REMARK UNBOUND:                 0.597
REMARK  7 active torsions:
REMARK  status: ('A' for Active; 'I' for Inactive)
REMARK    1  A    between atoms: C_13  and  C_14 
REMARK    2  A    between atoms: C_14  and  C_19 
REMARK    3  A    between atoms: C_15  and  C_20 
REMARK    4  A    between atoms: C_16  and  C_21 
REMARK    5  A    between atoms: C_17  and  C_23 
REMARK    6  A    between atoms: C_18  and  C_26 
REMARK    7  A    between atoms: C_22  and  C_28 
ROOT
HETATM    1  O   UNL     1      47.154  24.636   8.252  1.00  0.00    -0.304 OA
HETATM    2  O   UNL     1      50.689  25.242   4.454  1.00  0.00    -0.304 OA
HETATM    3  O   UNL     1      51.680  22.153   7.892  1.00  0.00    -0.304 OA
HETATM    4  O   UNL     1      48.996  26.999   6.515  1.00  0.00    -0.270 OA
HETATM    5  O   UNL     1      47.500  23.205   6.477  1.00  0.00    -0.263 OA
HETATM    6  O   UNL     1      49.676  25.083   8.646  1.00  0.00    -0.270 OA
HETATM    7  O   UNL     1      53.838  22.871   5.582  1.00  0.00    -0.270 OA
HETATM    8  O   UNL     1      51.490  25.529   2.320  1.00  0.00    -0.263 OA
HETATM    9  O   UNL     1      53.556  23.345   8.494  1.00  0.00    -0.263 OA
HETATM   10  N   UNL     1      47.767  25.661   5.071  1.00  0.00    -0.340 N 
HETATM   11  N   UNL     1      50.154  23.133   9.796  1.00  0.00    -0.340 N 
HETATM   12  N   UNL     1      51.674  22.764   4.736  1.00  0.00    -0.340 N 
HETATM   13  C   UNL     1      46.717  25.477   6.093  1.00  0.00     0.190 C 
HETATM   14  C   UNL     1      51.583  23.507   9.873  1.00  0.00     0.190 C 
HETATM   15  C   UNL     1      52.035  23.492   3.501  1.00  0.00     0.190 C 
HETATM   16  C   UNL     1      50.031  26.523   4.412  1.00  0.00     0.227 C 
HETATM   17  C   UNL     1      47.784  23.718   9.174  1.00  0.00     0.227 C 
HETATM   18  C   UNL     1      52.304  21.472   6.789  1.00  0.00     0.227 C 
HETATM   19  C   UNL     1      48.894  26.424   5.425  1.00  0.00     0.250 C 
HETATM   20  C   UNL     1      47.159  24.289   6.931  1.00  0.00     0.283 C 
HETATM   21  C   UNL     1      49.281  24.039   9.176  1.00  0.00     0.250 C 
HETATM   22  C   UNL     1      52.684  22.439   5.658  1.00  0.00     0.250 C 
HETATM   23  C   UNL     1      51.372  24.857   3.340  1.00  0.00     0.283 C 
HETATM   24  C   UNL     1      52.388  23.013   8.673  1.00  0.00     0.283 C 
HETATM   25  C   UNL     1      47.582  25.006   3.772  1.00  0.00     0.153 C 
HETATM   26  C   UNL     1      49.756  21.832  10.338  1.00  0.00     0.153 C 
HETATM   27  C   UNL     1      50.305  22.259   4.848  1.00  0.00     0.153 C 
ENDROOT
BRANCH  17  28
HETATM   28  C   UNL     1      47.176  23.983  10.544  1.00  0.00     0.016 C 
HETATM   29  C   UNL     1      46.803  25.458  10.692  1.00  0.00     0.012 C 
HETATM   30  C   UNL     1      45.952  23.097  10.771  1.00  0.00     0.012 C 
ENDBRANCH  17  28
BRANCH  13  31
HETATM   31  C   UNL     1      45.304  25.253   5.566  1.00  0.00     0.014 C 
HETATM   32  C   UNL     1      44.704  23.998   6.203  1.00  0.00     0.012 C 
BRANCH  31  33
HETATM   33  C   UNL     1      44.444  26.504   5.818  1.00  0.00     0.002 C 
HETATM   34  C   UNL     1      44.427  27.481   4.651  1.00  0.00     0.005 C 
ENDBRANCH  31  33
ENDBRANCH  13  31
BRANCH  14  35
HETATM   35  C   UNL     1      52.265  23.066  11.168  1.00  0.00     0.010 C 
HETATM   36  C   UNL     1      53.779  22.990  10.981  1.00  0.00     0.012 C 
HETATM   37  C   UNL     1      51.915  24.015  12.313  1.00  0.00     0.012 C 
ENDBRANCH  14  35
BRANCH  16  38
HETATM   38  C   UNL     1      51.038  27.604   4.797  1.00  0.00     0.016 C 
HETATM   39  C   UNL     1      51.313  28.531   3.614  1.00  0.00     0.012 C 
HETATM   40  C   UNL     1      52.337  26.976   5.298  1.00  0.00     0.012 C 
ENDBRANCH  16  38
BRANCH  18  41
HETATM   41  C   UNL     1      53.479  20.608   7.246  1.00  0.00     0.016 C 
HETATM   42  C   UNL     1      54.028  19.789   6.079  1.00  0.00     0.012 C 
HETATM   43  C   UNL     1      53.057  19.692   8.392  1.00  0.00     0.012 C 
ENDBRANCH  18  41
BRANCH  15  44
HETATM   44  C   UNL     1      51.796  22.631   2.259  1.00  0.00     0.010 C 
HETATM   45  C   UNL     1      53.005  22.688   1.329  1.00  0.00     0.012 C 
HETATM   46  C   UNL     1      50.534  23.083   1.531  1.00  0.00     0.012 C 
ENDBRANCH  15  44
TORSDOF 7
ENDMDL
MODEL 8
REMARK VINA RESULT:    -4.792      2.463      6.820
REMARK INTER + INTRA:          -6.156
REMARK INTER:                  -6.862
REMARK INTRA:                   0.706
REMARK UNBOUND:                 0.597
REMARK  7 active torsions:
REMARK  status: ('A' for Active; 'I' for Inactive)
REMARK    1  A    between atoms: C_13  and  C_14 
REMARK    2  A    between atoms: C_14  and  C_19 
REMARK    3  A    between atoms: C_15  and  C_20 
REMARK    4  A    between atoms: C_16  and  C_21 
REMARK    5  A    between atoms: C_17  and  C_23 
REMARK    6  A    between atoms: C_18  and  C_26 
REMARK    7  A    between atoms: C_22  and  C_28 
ROOT
HETATM    1  O   UNL     1      54.261  20.241   4.703  1.00  0.00    -0.304 OA
HETATM    2  O   UNL     1      56.182  23.882   7.920  1.00  0.00    -0.304 OA
HETATM    3  O   UNL     1      51.649  22.656   8.461  1.00  0.00    -0.304 OA
HETATM    4  O   UNL     1      55.986  23.243   4.796  1.00  0.00    -0.270 OA
HETATM    5  O   UNL     1      54.907  19.915   6.893  1.00  0.00    -0.263 OA
HETATM    6  O   UNL     1      53.149  22.537   5.159  1.00  0.00    -0.270 OA
HETATM    7  O   UNL     1      52.970  25.069  10.175  1.00  0.00    -0.270 OA
HETATM    8  O   UNL     1      57.705  24.916   9.294  1.00  0.00    -0.263 OA
HETATM    9  O   UNL     1      50.959  24.806   8.014  1.00  0.00    -0.263 OA
HETATM   10  N   UNL     1      57.029  21.632   6.100  1.00  0.00    -0.340 N 
HETATM   11  N   UNL     1      51.164  21.743   6.043  1.00  0.00    -0.340 N 
HETATM   12  N   UNL     1      54.456  23.303   9.888  1.00  0.00    -0.340 N 
HETATM   13  C   UNL     1      56.543  20.558   5.209  1.00  0.00     0.190 C 
HETATM   14  C   UNL     1      50.706  23.125   6.303  1.00  0.00     0.190 C 
HETATM   15  C   UNL     1      55.630  24.126  10.248  1.00  0.00     0.190 C 
HETATM   16  C   UNL     1      57.050  24.048   6.782  1.00  0.00     0.227 C 
HETATM   17  C   UNL     1      52.862  20.165   5.056  1.00  0.00     0.227 C 
HETATM   18  C   UNL     1      51.981  22.907   9.838  1.00  0.00     0.227 C 
HETATM   19  C   UNL     1      56.642  22.951   5.802  1.00  0.00     0.250 C 
HETATM   20  C   UNL     1      55.163  20.186   5.727  1.00  0.00     0.283 C 
HETATM   21  C   UNL     1      52.413  21.581   5.424  1.00  0.00     0.250 C 
HETATM   22  C   UNL     1      53.172  23.868   9.975  1.00  0.00     0.250 C 
HETATM   23  C   UNL     1      56.633  24.346   9.118  1.00  0.00     0.283 C 
HETATM   24  C   UNL     1      51.128  23.639   7.678  1.00  0.00     0.283 C 
HETATM   25  C   UNL     1      57.851  21.246   7.252  1.00  0.00     0.153 C 
HETATM   26  C   UNL     1      50.304  20.642   6.481  1.00  0.00     0.153 C 
HETATM   27  C   UNL     1      54.680  21.879   9.633  1.00  0.00     0.153 C 
ENDROOT
BRANCH  17  28
HETATM   28  C   UNL     1      52.123  19.671   3.820  1.00  0.00     0.016 C 
HETATM   29  C   UNL     1      52.797  20.182   2.548  1.00  0.00     0.012 C 
HETATM   30  C   UNL     1      52.049  18.144   3.810  1.00  0.00     0.012 C 
ENDBRANCH  17  28
BRANCH  13  31
HETATM   31  C   UNL     1      57.423  19.317   5.116  1.00  0.00     0.014 C 
HETATM   32  C   UNL     1      56.581  18.113   4.690  1.00  0.00     0.012 C 
BRANCH  31  33
HETATM   33  C   UNL     1      58.597  19.577   4.156  1.00  0.00     0.002 C 
HETATM   34  C   UNL     1      58.214  20.388   2.926  1.00  0.00     0.005 C 
ENDBRANCH  31  33
ENDBRANCH  13  31
BRANCH  14  35
HETATM   35  C   UNL     1      49.200  23.318   6.122  1.00  0.00     0.010 C 
HETATM   36  C   UNL     1      48.508  23.470   7.475  1.00  0.00     0.012 C 
HETATM   37  C   UNL     1      48.914  24.529   5.235  1.00  0.00     0.012 C 
ENDBRANCH  14  35
BRANCH  16  38
HETATM   38  C   UNL     1      56.828  25.439   6.195  1.00  0.00     0.016 C 
HETATM   39  C   UNL     1      58.060  26.317   6.407  1.00  0.00     0.012 C 
HETATM   40  C   UNL     1      55.592  26.093   6.811  1.00  0.00     0.012 C 
ENDBRANCH  16  38
BRANCH  18  41
HETATM   41  C   UNL     1      50.764  23.357  10.644  1.00  0.00     0.016 C 
HETATM   42  C   UNL     1      51.172  23.739  12.065  1.00  0.00     0.012 C 
HETATM   43  C   UNL     1      49.701  22.261  10.667  1.00  0.00     0.012 C 
ENDBRANCH  18  41
BRANCH  15  44
HETATM   44  C   UNL     1      56.334  23.577  11.489  1.00  0.00     0.010 C 
HETATM   45  C   UNL     1      57.090  22.295  11.153  1.00  0.00     0.012 C 
HETATM   46  C   UNL     1      55.327  23.331  12.609  1.00  0.00     0.012 C 
ENDBRANCH  15  44
TORSDOF 7
ENDMDL
MODEL 9
REMARK VINA RESULT:    -4.654      3.364      5.921
REMARK INTER + INTRA:          -5.961
REMARK INTER:                  -6.711
REMARK INTRA:                   0.750
REMARK UNBOUND:                 0.597
REMARK  7 active torsions:
REMARK  status: ('A' for Active; 'I' for Inactive)
REMARK    1  A    between atoms: C_13  and  C_14 
REMARK    2  A    between atoms: C_14  and  C_19 
REMARK    3  A    between atoms: C_15  and  C_20 
REMARK    4  A    between atoms: C_16  and  C_21 
REMARK    5  A    between atoms: C_17  and  C_23 
REMARK    6  A    between atoms: C_18  and  C_26 
REMARK    7  A    between atoms: C_22  and  C_28 
ROOT
HETATM    1  O   UNL     1      56.199  25.926   9.352  1.00  0.00    -0.304 OA
HETATM    2  O   UNL     1      53.684  21.877   7.213  1.00  0.00    -0.304 OA
HETATM    3  O   UNL     1      54.654  25.571   4.426  1.00  0.00    -0.304 OA
HETATM    4  O   UNL     1      53.468  23.829   9.732  1.00  0.00    -0.270 OA
HETATM    5  O   UNL     1      57.134  24.302   8.008  1.00  0.00    -0.263 OA
HETATM    6  O   UNL     1      54.022  26.115   7.958  1.00  0.00    -0.270 OA
HETATM    7  O   UNL     1      52.882  23.069   3.372  1.00  0.00    -0.270 OA
HETATM    8  O   UNL     1      53.165  19.680   6.786  1.00  0.00    -0.263 OA
HETATM    9  O   UNL     1      52.415  25.923   4.024  1.00  0.00    -0.263 OA
HETATM   10  N   UNL     1      55.440  22.619   9.549  1.00  0.00    -0.340 N 
HETATM   11  N   UNL     1      54.863  27.443   6.261  1.00  0.00    -0.340 N 
HETATM   12  N   UNL     1      54.622  22.372   4.750  1.00  0.00    -0.340 N 
HETATM   13  C   UNL     1      56.202  23.717  10.179  1.00  0.00     0.190 C 
HETATM   14  C   UNL     1      53.566  27.391   5.552  1.00  0.00     0.190 C 
HETATM   15  C   UNL     1      54.014  21.045   4.981  1.00  0.00     0.190 C 
HETATM   16  C   UNL     1      53.295  21.733   8.593  1.00  0.00     0.227 C 
HETATM   17  C   UNL     1      56.256  26.904   8.290  1.00  0.00     0.227 C 
HETATM   18  C   UNL     1      54.798  24.514   3.460  1.00  0.00     0.227 C 
HETATM   19  C   UNL     1      54.063  22.818   9.342  1.00  0.00     0.250 C 
HETATM   20  C   UNL     1      56.589  24.654   9.046  1.00  0.00     0.283 C 
HETATM   21  C   UNL     1      54.954  26.780   7.493  1.00  0.00     0.250 C 
HETATM   22  C   UNL     1      54.001  23.262   3.856  1.00  0.00     0.250 C 
HETATM   23  C   UNL     1      53.585  20.774   6.421  1.00  0.00     0.283 C 
HETATM   24  C   UNL     1      53.463  26.207   4.593  1.00  0.00     0.283 C 
HETATM   25  C   UNL     1      56.175  21.414   9.151  1.00  0.00     0.153 C 
HETATM   26  C   UNL     1      55.971  28.148   5.612  1.00  0.00     0.153 C 
HETATM   27  C   UNL     1      55.942  22.623   5.330  1.00  0.00     0.153 C 
ENDROOT
BRANCH  17  28
HETATM   28  C   UNL     1      56.351  28.270   8.954  1.00  0.00     0.016 C 
HETATM   29  C   UNL     1      55.066  28.590   9.716  1.00  0.00     0.012 C 
HETATM   30  C   UNL     1      57.557  28.332   9.891  1.00  0.00     0.012 C 
ENDBRANCH  17  28
BRANCH  13  31
HETATM   31  C   UNL     1      57.441  23.304  10.967  1.00  0.00     0.014 C 
HETATM   32  C   UNL     1      58.423  24.474  11.040  1.00  0.00     0.012 C 
BRANCH  31  33
HETATM   33  C   UNL     1      57.031  22.797  12.361  1.00  0.00     0.002 C 
HETATM   34  C   UNL     1      55.632  23.225  12.781  1.00  0.00     0.005 C 
ENDBRANCH  31  33
ENDBRANCH  13  31
BRANCH  14  35
HETATM   35  C   UNL     1      53.217  28.683   4.814  1.00  0.00     0.010 C 
HETATM   36  C   UNL     1      53.280  28.476   3.302  1.00  0.00     0.012 C 
HETATM   37  C   UNL     1      51.833  29.184   5.228  1.00  0.00     0.012 C 
ENDBRANCH  14  35
BRANCH  16  38
HETATM   38  C   UNL     1      51.785  21.935   8.699  1.00  0.00     0.016 C 
HETATM   39  C   UNL     1      51.092  20.628   9.080  1.00  0.00     0.012 C 
HETATM   40  C   UNL     1      51.220  22.477   7.387  1.00  0.00     0.012 C 
ENDBRANCH  16  38
BRANCH  18  41
HETATM   41  C   UNL     1      54.480  24.992   2.044  1.00  0.00     0.016 C 
HETATM   42  C   UNL     1      54.613  23.843   1.047  1.00  0.00     0.012 C 
HETATM   43  C   UNL     1      55.394  26.151   1.651  1.00  0.00     0.012 C 
ENDBRANCH  18  41
BRANCH  15  44
HETATM   44  C   UNL     1      54.921  19.923   4.472  1.00  0.00     0.010 C 
HETATM   45  C   UNL     1      54.114  18.904   3.672  1.00  0.00     0.012 C 
HETATM   46  C   UNL     1      55.639  19.247   5.637  1.00  0.00     0.012 C 
ENDBRANCH  15  44
TORSDOF 7
ENDMDL
MODEL 10
REMARK VINA RESULT:    -4.625      1.881      6.605
REMARK INTER + INTRA:          -5.921
REMARK INTER:                  -6.619
REMARK INTRA:                   0.698
REMARK UNBOUND:                 0.597
REMARK  7 active torsions:
REMARK  status: ('A' for Active; 'I' for Inactive)
REMARK    1  A    between atoms: C_13  and  C_14 
REMARK    2  A    between atoms: C_14  and  C_19 
REMARK    3  A    between atoms: C_15  and  C_20 
REMARK    4  A    between atoms: C_16  and  C_21 
REMARK    5  A    between atoms: C_17  and  C_23 
REMARK    6  A    between atoms: C_18  and  C_26 
REMARK    7  A    between atoms: C_22  and  C_28 
ROOT
HETATM    1  O   UNL     1      53.917  21.248   4.893  1.00  0.00    -0.304 OA
HETATM    2  O   UNL     1      51.541  22.629   9.335  1.00  0.00    -0.304 OA
HETATM    3  O   UNL     1      50.028  24.634   5.331  1.00  0.00    -0.304 OA
HETATM    4  O   UNL     1      54.482  22.394   8.112  1.00  0.00    -0.270 OA
HETATM    5  O   UNL     1      51.864  20.495   5.627  1.00  0.00    -0.263 OA
HETATM    6  O   UNL     1      53.518  23.694   5.651  1.00  0.00    -0.270 OA
HETATM    7  O   UNL     1      48.870  25.534   8.222  1.00  0.00    -0.270 OA
HETATM    8  O   UNL     1      50.599  22.367  11.415  1.00  0.00    -0.263 OA
HETATM    9  O   UNL     1      50.574  26.729   6.111  1.00  0.00    -0.263 OA
HETATM   10  N   UNL     1      53.225  20.442   8.121  1.00  0.00    -0.340 N 
HETATM   11  N   UNL     1      52.196  24.351   3.870  1.00  0.00    -0.340 N 
HETATM   12  N   UNL     1      49.232  23.239   8.116  1.00  0.00    -0.340 N 
HETATM   13  C   UNL     1      53.884  19.981   6.882  1.00  0.00     0.190 C 
HETATM   14  C   UNL     1      52.010  25.687   4.477  1.00  0.00     0.190 C 
HETATM   15  C   UNL     1      49.192  23.083   9.585  1.00  0.00     0.190 C 
HETATM   16  C   UNL     1      52.832  22.233   9.837  1.00  0.00     0.227 C 
HETATM   17  C   UNL     1      53.302  22.087   3.891  1.00  0.00     0.227 C 
HETATM   18  C   UNL     1      48.774  24.553   6.032  1.00  0.00     0.227 C 
HETATM   19  C   UNL     1      53.590  21.706   8.621  1.00  0.00     0.250 C 
HETATM   20  C   UNL     1      53.080  20.578   5.739  1.00  0.00     0.283 C 
HETATM   21  C   UNL     1      53.016  23.439   4.550  1.00  0.00     0.250 C 
HETATM   22  C   UNL     1      48.970  24.500   7.554  1.00  0.00     0.250 C 
HETATM   23  C   UNL     1      50.507  22.640  10.222  1.00  0.00     0.283 C 
HETATM   24  C   UNL     1      50.804  25.748   5.413  1.00  0.00     0.283 C 
HETATM   25  C   UNL     1      52.212  19.571   8.724  1.00  0.00     0.153 C 
HETATM   26  C   UNL     1      51.485  24.061   2.623  1.00  0.00     0.153 C 
HETATM   27  C   UNL     1      49.365  22.024   7.310  1.00  0.00     0.153 C 
ENDROOT
BRANCH  17  28
HETATM   28  C   UNL     1      54.315  22.243   2.765  1.00  0.00     0.016 C 
HETATM   29  C   UNL     1      55.717  21.875   3.247  1.00  0.00     0.012 C 
HETATM   30  C   UNL     1      53.920  21.387   1.562  1.00  0.00     0.012 C 
ENDBRANCH  17  28
BRANCH  13  31
HETATM   31  C   UNL     1      54.002  18.471   6.711  1.00  0.00     0.014 C 
HETATM   32  C   UNL     1      54.352  18.138   5.259  1.00  0.00     0.012 C 
BRANCH  31  33
HETATM   33  C   UNL     1      55.036  17.909   7.703  1.00  0.00     0.002 C 
HETATM   34  C   UNL     1      56.320  18.722   7.776  1.00  0.00     0.005 C 
ENDBRANCH  31  33
ENDBRANCH  13  31
BRANCH  14  35
HETATM   35  C   UNL     1      51.927  26.821   3.456  1.00  0.00     0.010 C 
HETATM   36  C   UNL     1      50.505  27.374   3.377  1.00  0.00     0.012 C 
HETATM   37  C   UNL     1      52.915  27.934   3.803  1.00  0.00     0.012 C 
ENDBRANCH  14  35
BRANCH  16  38
HETATM   38  C   UNL     1      53.518  23.454  10.443  1.00  0.00     0.016 C 
HETATM   39  C   UNL     1      53.561  23.348  11.966  1.00  0.00     0.012 C 
HETATM   40  C   UNL     1      52.808  24.738  10.016  1.00  0.00     0.012 C 
ENDBRANCH  16  38
BRANCH  18  41
HETATM   41  C   UNL     1      47.809  25.657   5.599  1.00  0.00     0.016 C 
HETATM   42  C   UNL     1      46.504  25.568   6.386  1.00  0.00     0.012 C 
HETATM   43  C   UNL     1      47.539  25.575   4.098  1.00  0.00     0.012 C 
ENDBRANCH  18  41
BRANCH  15  44
HETATM   44  C   UNL     1      48.051  22.161  10.016  1.00  0.00     0.010 C 
HETATM   45  C   UNL     1      46.753  22.555   9.317  1.00  0.00     0.012 C 
HETATM   46  C   UNL     1      47.880  22.195  11.531  1.00  0.00     0.012 C 
ENDBRANCH  15  44
TORSDOF 7
ENDMDL
MODEL 11
REMARK VINA RESULT:    -4.623      2.825      7.176
REMARK INTER + INTRA:          -5.918
REMARK INTER:                  -6.807
REMARK INTRA:                   0.889
REMARK UNBOUND:                 0.597
REMARK  7 active torsions:
REMARK  status: ('A' for Active; 'I' for Inactive)
REMARK    1  A    between atoms: C_13  and  C_14 
REMARK    2  A    between atoms: C_14  and  C_19 
REMARK    3  A    between atoms: C_15  and  C_20 
REMARK    4  A    between atoms: C_16  and  C_21 
REMARK    5  A    between atoms: C_17  and  C_23 
REMARK    6  A    between atoms: C_18  and  C_26 
REMARK    7  A    between atoms: C_22  and  C_28 
ROOT
HETATM    1  O   UNL     1      51.792  20.847   5.498  1.00  0.00    -0.304 OA
HETATM    2  O   UNL     1      46.875  21.117   3.754  1.00  0.00    -0.304 OA
HETATM    3  O   UNL     1      48.133  24.076   7.219  1.00  0.00    -0.304 OA
HETATM    4  O   UNL     1      48.966  18.957   4.834  1.00  0.00    -0.270 OA
HETATM    5  O   UNL     1      50.947  22.438   4.059  1.00  0.00    -0.263 OA
HETATM    6  O   UNL     1      49.688  20.805   7.011  1.00  0.00    -0.270 OA
HETATM    7  O   UNL     1      45.072  23.899   6.166  1.00  0.00    -0.270 OA
HETATM    8  O   UNL     1      45.157  21.122   2.229  1.00  0.00    -0.263 OA
HETATM    9  O   UNL     1      46.553  23.179   8.631  1.00  0.00    -0.263 OA
HETATM   10  N   UNL     1      49.628  20.169   2.967  1.00  0.00    -0.340 N 
HETATM   11  N   UNL     1      50.149  22.720   8.224  1.00  0.00    -0.340 N 
HETATM   12  N   UNL     1      46.596  23.699   4.420  1.00  0.00    -0.340 N 
HETATM   13  C   UNL     1      51.041  20.099   3.391  1.00  0.00     0.190 C 
HETATM   14  C   UNL     1      48.869  22.588   8.953  1.00  0.00     0.190 C 
HETATM   15  C   UNL     1      45.589  23.133   3.499  1.00  0.00     0.190 C 
HETATM   16  C   UNL     1      47.197  19.749   3.433  1.00  0.00     0.227 C 
HETATM   17  C   UNL     1      51.828  21.789   6.592  1.00  0.00     0.227 C 
HETATM   18  C   UNL     1      47.213  24.930   6.515  1.00  0.00     0.227 C 
HETATM   19  C   UNL     1      48.666  19.583   3.810  1.00  0.00     0.250 C 
HETATM   20  C   UNL     1      51.253  21.282   4.322  1.00  0.00     0.283 C 
HETATM   21  C   UNL     1      50.464  21.727   7.286  1.00  0.00     0.250 C 
HETATM   22  C   UNL     1      46.192  24.123   5.698  1.00  0.00     0.250 C 
HETATM   23  C   UNL     1      45.845  21.690   3.072  1.00  0.00     0.283 C 
HETATM   24  C   UNL     1      47.712  23.295   8.250  1.00  0.00     0.283 C 
HETATM   25  C   UNL     1      49.320  20.873   1.719  1.00  0.00     0.153 C 
HETATM   26  C   UNL     1      50.979  23.893   8.504  1.00  0.00     0.153 C 
HETATM   27  C   UNL     1      47.934  23.956   3.885  1.00  0.00     0.153 C 
ENDROOT
BRANCH  17  28
HETATM   28  C   UNL     1      52.931  21.329   7.534  1.00  0.00     0.016 C 
HETATM   29  C   UNL     1      52.572  19.986   8.170  1.00  0.00     0.012 C 
HETATM   30  C   UNL     1      54.265  21.230   6.796  1.00  0.00     0.012 C 
ENDBRANCH  17  28
BRANCH  13  31
HETATM   31  C   UNL     1      52.076  20.119   2.271  1.00  0.00     0.014 C 
HETATM   32  C   UNL     1      53.411  20.638   2.807  1.00  0.00     0.012 C 
BRANCH  31  33
HETATM   33  C   UNL     1      52.201  18.718   1.648  1.00  0.00     0.002 C 
HETATM   34  C   UNL     1      51.918  18.685   0.152  1.00  0.00     0.005 C 
ENDBRANCH  31  33
ENDBRANCH  13  31
BRANCH  14  35
HETATM   35  C   UNL     1      48.941  23.045  10.410  1.00  0.00     0.010 C 
HETATM   36  C   UNL     1      48.132  24.324  10.616  1.00  0.00     0.012 C 
HETATM   37  C   UNL     1      48.446  21.943  11.347  1.00  0.00     0.012 C 
ENDBRANCH  14  35
BRANCH  16  38
HETATM   38  C   UNL     1      46.295  18.829   4.252  1.00  0.00     0.016 C 
HETATM   39  C   UNL     1      45.383  18.014   3.338  1.00  0.00     0.012 C 
HETATM   40  C   UNL     1      45.469  19.636   5.253  1.00  0.00     0.012 C 
ENDBRANCH  16  38
BRANCH  18  41
HETATM   41  C   UNL     1      46.553  25.945   7.447  1.00  0.00     0.016 C 
HETATM   42  C   UNL     1      45.668  26.904   6.655  1.00  0.00     0.012 C 
HETATM   43  C   UNL     1      47.610  26.716   8.234  1.00  0.00     0.012 C 
ENDBRANCH  18  41
BRANCH  15  44
HETATM   44  C   UNL     1      45.391  24.027   2.274  1.00  0.00     0.010 C 
HETATM   45  C   UNL     1      46.593  23.926   1.339  1.00  0.00     0.012 C 
HETATM   46  C   UNL     1      45.159  25.473   2.701  1.00  0.00     0.012 C 
ENDBRANCH  15  44
TORSDOF 7
ENDMDL
MODEL 12
REMARK VINA RESULT:    -4.503      3.281      7.539
REMARK INTER + INTRA:          -5.749
REMARK INTER:                  -6.677
REMARK INTRA:                   0.927
REMARK UNBOUND:                 0.597
REMARK  7 active torsions:
REMARK  status: ('A' for Active; 'I' for Inactive)
REMARK    1  A    between atoms: C_13  and  C_14 
REMARK    2  A    between atoms: C_14  and  C_19 
REMARK    3  A    between atoms: C_15  and  C_20 
REMARK    4  A    between atoms: C_16  and  C_21 
REMARK    5  A    between atoms: C_17  and  C_23 
REMARK    6  A    between atoms: C_18  and  C_26 
REMARK    7  A    between atoms: C_22  and  C_28 
ROOT
HETATM    1  O   UNL     1      56.316  18.485   6.401  1.00  0.00    -0.304 OA
HETATM    2  O   UNL     1      57.796  23.431   7.204  1.00  0.00    -0.304 OA
HETATM    3  O   UNL     1      53.693  22.040   9.096  1.00  0.00    -0.304 OA
HETATM    4  O   UNL     1      57.394  21.363   4.803  1.00  0.00    -0.270 OA
HETATM    5  O   UNL     1      57.250  19.327   8.334  1.00  0.00    -0.263 OA
HETATM    6  O   UNL     1      54.817  20.557   5.981  1.00  0.00    -0.270 OA
HETATM    7  O   UNL     1      54.675  25.125   9.254  1.00  0.00    -0.270 OA
HETATM    8  O   UNL     1      59.217  25.180   7.646  1.00  0.00    -0.263 OA
HETATM    9  O   UNL     1      52.536  23.609   7.872  1.00  0.00    -0.263 OA
HETATM   10  N   UNL     1      58.879  20.716   6.465  1.00  0.00    -0.340 N 
HETATM   11  N   UNL     1      53.144  20.032   7.490  1.00  0.00    -0.340 N 
HETATM   12  N   UNL     1      56.449  23.643   9.513  1.00  0.00    -0.340 N 
HETATM   13  C   UNL     1      58.527  19.295   6.263  1.00  0.00     0.190 C 
HETATM   14  C   UNL     1      52.445  21.299   7.184  1.00  0.00     0.190 C 
HETATM   15  C   UNL     1      57.463  24.680   9.231  1.00  0.00     0.190 C 
HETATM   16  C   UNL     1      58.483  23.145   5.970  1.00  0.00     0.227 C 
HETATM   17  C   UNL     1      55.009  18.407   7.012  1.00  0.00     0.227 C 
HETATM   18  C   UNL     1      54.116  22.957  10.121  1.00  0.00     0.227 C 
HETATM   19  C   UNL     1      58.202  21.671   5.687  1.00  0.00     0.250 C 
HETATM   20  C   UNL     1      57.317  19.040   7.147  1.00  0.00     0.283 C 
HETATM   21  C   UNL     1      54.324  19.757   6.783  1.00  0.00     0.250 C 
HETATM   22  C   UNL     1      55.094  24.011   9.581  1.00  0.00     0.250 C 
HETATM   23  C   UNL     1      58.271  24.463   7.954  1.00  0.00     0.283 C 
HETATM   24  C   UNL     1      52.901  22.455   8.071  1.00  0.00     0.283 C 
HETATM   25  C   UNL     1      59.883  21.034   7.485  1.00  0.00     0.153 C 
HETATM   26  C   UNL     1      52.578  19.172   8.532  1.00  0.00     0.153 C 
HETATM   27  C   UNL     1      56.929  22.311   9.886  1.00  0.00     0.153 C 
ENDROOT
BRANCH  17  28
HETATM   28  C   UNL     1      54.255  17.294   6.298  1.00  0.00     0.016 C 
HETATM   29  C   UNL     1      54.454  17.393   4.786  1.00  0.00     0.012 C 
HETATM   30  C   UNL     1      54.703  15.925   6.808  1.00  0.00     0.012 C 
ENDBRANCH  17  28
BRANCH  13  31
HETATM   31  C   UNL     1      59.626  18.284   6.571  1.00  0.00     0.014 C 
HETATM   32  C   UNL     1      59.003  16.937   6.941  1.00  0.00     0.012 C 
BRANCH  31  33
HETATM   33  C   UNL     1      60.587  18.174   5.374  1.00  0.00     0.002 C 
HETATM   34  C   UNL     1      59.899  18.295   4.022  1.00  0.00     0.005 C 
ENDBRANCH  31  33
ENDBRANCH  13  31
BRANCH  14  35
HETATM   35  C   UNL     1      50.921  21.187   7.228  1.00  0.00     0.010 C 
HETATM   36  C   UNL     1      50.349  22.037   8.360  1.00  0.00     0.012 C 
HETATM   37  C   UNL     1      50.310  21.600   5.889  1.00  0.00     0.012 C 
ENDBRANCH  14  35
BRANCH  16  38
HETATM   38  C   UNL     1      57.919  24.047   4.875  1.00  0.00     0.016 C 
HETATM   39  C   UNL     1      58.964  25.068   4.427  1.00  0.00     0.012 C 
HETATM   40  C   UNL     1      56.653  24.753   5.357  1.00  0.00     0.012 C 
ENDBRANCH  16  38
BRANCH  18  41
HETATM   41  C   UNL     1      52.928  23.576  10.856  1.00  0.00     0.016 C 
HETATM   42  C   UNL     1      53.403  24.377  12.066  1.00  0.00     0.012 C 
HETATM   43  C   UNL     1      51.938  22.494  11.283  1.00  0.00     0.012 C 
ENDBRANCH  18  41
BRANCH  15  44
HETATM   44  C   UNL     1      58.395  24.885  10.426  1.00  0.00     0.010 C 
HETATM   45  C   UNL     1      57.797  24.261  11.684  1.00  0.00     0.012 C 
HETATM   46  C   UNL     1      58.671  26.371  10.640  1.00  0.00     0.012 C 
ENDBRANCH  15  44
TORSDOF 7
ENDMDL
MODEL 13
REMARK VINA RESULT:    -4.465      2.484      6.474
REMARK INTER + INTRA:          -5.695
REMARK INTER:                  -6.624
REMARK INTRA:                   0.929
REMARK UNBOUND:                 0.597
REMARK  7 active torsions:
REMARK  status: ('A' for Active; 'I' for Inactive)
REMARK    1  A    between atoms: C_13  and  C_14 
REMARK    2  A    between atoms: C_14  and  C_19 
REMARK    3  A    between atoms: C_15  and  C_20 
REMARK    4  A    between atoms: C_16  and  C_21 
REMARK    5  A    between atoms: C_17  and  C_23 
REMARK    6  A    between atoms: C_18  and  C_26 
REMARK    7  A    between atoms: C_22  and  C_28 
ROOT
HETATM    1  O   UNL     1      52.234  21.610   8.046  1.00  0.00    -0.304 OA
HETATM    2  O   UNL     1      48.617  24.664   5.837  1.00  0.00    -0.304 OA
HETATM    3  O   UNL     1      50.339  21.095   3.259  1.00  0.00    -0.304 OA
HETATM    4  O   UNL     1      51.406  24.905   7.374  1.00  0.00    -0.270 OA
HETATM    5  O   UNL     1      50.000  21.099   7.783  1.00  0.00    -0.263 OA
HETATM    6  O   UNL     1      52.465  22.714   5.713  1.00  0.00    -0.270 OA
HETATM    7  O   UNL     1      48.281  23.260   1.999  1.00  0.00    -0.270 OA
HETATM    8  O   UNL     1      46.707  25.932   5.687  1.00  0.00    -0.263 OA
HETATM    9  O   UNL     1      51.142  22.559   1.674  1.00  0.00    -0.263 OA
HETATM   10  N   UNL     1      49.702  23.827   8.523  1.00  0.00    -0.340 N 
HETATM   11  N   UNL     1      52.648  20.770   4.474  1.00  0.00    -0.340 N 
HETATM   12  N   UNL     1      47.736  22.733   4.198  1.00  0.00    -0.340 N 
HETATM   13  C   UNL     1      50.680  22.954   9.205  1.00  0.00     0.190 C 
HETATM   14  C   UNL     1      52.696  21.551   3.219  1.00  0.00     0.190 C 
HETATM   15  C   UNL     1      46.874  23.923   4.355  1.00  0.00     0.190 C 
HETATM   16  C   UNL     1      49.184  25.576   6.798  1.00  0.00     0.227 C 
HETATM   17  C   UNL     1      52.614  20.698   6.992  1.00  0.00     0.227 C 
HETATM   18  C   UNL     1      48.986  21.097   2.768  1.00  0.00     0.227 C 
HETATM   19  C   UNL     1      50.198  24.750   7.584  1.00  0.00     0.250 C 
HETATM   20  C   UNL     1      50.897  21.771   8.275  1.00  0.00     0.283 C 
HETATM   21  C   UNL     1      52.565  21.483   5.679  1.00  0.00     0.250 C 
HETATM   22  C   UNL     1      48.313  22.467   2.945  1.00  0.00     0.250 C 
HETATM   23  C   UNL     1      47.369  24.948   5.372  1.00  0.00     0.283 C 
HETATM   24  C   UNL     1      51.310  21.812   2.632  1.00  0.00     0.283 C 
HETATM   25  C   UNL     1      48.283  23.647   8.842  1.00  0.00     0.153 C 
HETATM   26  C   UNL     1      52.653  19.309   4.371  1.00  0.00     0.153 C 
HETATM   27  C   UNL     1      47.798  21.790   5.316  1.00  0.00     0.153 C 
ENDROOT
BRANCH  17  28
HETATM   28  C   UNL     1      54.035  20.245   7.294  1.00  0.00     0.016 C 
HETATM   29  C   UNL     1      54.722  21.221   8.248  1.00  0.00     0.012 C 
HETATM   30  C   UNL     1      54.039  18.833   7.879  1.00  0.00     0.012 C 
ENDBRANCH  17  28
BRANCH  13  31
HETATM   31  C   UNL     1      50.283  22.465  10.594  1.00  0.00     0.014 C 
HETATM   32  C   UNL     1      50.922  21.102  10.866  1.00  0.00     0.012 C 
BRANCH  31  33
HETATM   33  C   UNL     1      50.673  23.514  11.650  1.00  0.00     0.002 C 
HETATM   34  C   UNL     1      49.645  23.676  12.761  1.00  0.00     0.005 C 
ENDBRANCH  31  33
ENDBRANCH  13  31
BRANCH  14  35
HETATM   35  C   UNL     1      53.602  20.943   2.150  1.00  0.00     0.010 C 
HETATM   36  C   UNL     1      53.508  21.736   0.848  1.00  0.00     0.012 C 
HETATM   37  C   UNL     1      55.050  20.886   2.637  1.00  0.00     0.012 C 
ENDBRANCH  14  35
BRANCH  16  38
HETATM   38  C   UNL     1      49.852  26.725   6.047  1.00  0.00     0.016 C 
HETATM   39  C   UNL     1      49.088  28.029   6.268  1.00  0.00     0.012 C 
HETATM   40  C   UNL     1      49.951  26.409   4.556  1.00  0.00     0.012 C 
ENDBRANCH  16  38
BRANCH  18  41
HETATM   41  C   UNL     1      48.901  20.579   1.333  1.00  0.00     0.016 C 
HETATM   42  C   UNL     1      47.449  20.318   0.941  1.00  0.00     0.012 C 
HETATM   43  C   UNL     1      49.737  19.311   1.170  1.00  0.00     0.012 C 
ENDBRANCH  18  41
BRANCH  15  44
HETATM   44  C   UNL     1      45.428  23.525   4.656  1.00  0.00     0.010 C 
HETATM   45  C   UNL     1      44.463  24.307   3.769  1.00  0.00     0.012 C 
HETATM   46  C   UNL     1      45.108  23.751   6.131  1.00  0.00     0.012 C 
ENDBRANCH  15  44
TORSDOF 7
ENDMDL
MODEL 14
REMARK VINA RESULT:    -4.314      3.209      7.727
REMARK INTER + INTRA:          -5.483
REMARK INTER:                  -6.264
REMARK INTRA:                   0.781
REMARK UNBOUND:                 0.597
REMARK  7 active torsions:
REMARK  status: ('A' for Active; 'I' for Inactive)
REMARK    1  A    between atoms: C_13  and  C_14 
REMARK    2  A    between atoms: C_14  and  C_19 
REMARK    3  A    between atoms: C_15  and  C_20 
REMARK    4  A    between atoms: C_16  and  C_21 
REMARK    5  A    between atoms: C_17  and  C_23 
REMARK    6  A    between atoms: C_18  and  C_26 
REMARK    7  A    between atoms: C_22  and  C_28 
ROOT
HETATM    1  O   UNL     1      57.220  20.752   4.534  1.00  0.00    -0.304 OA
HETATM    2  O   UNL     1      56.523  24.368   8.240  1.00  0.00    -0.304 OA
HETATM    3  O   UNL     1      53.026  21.270   7.521  1.00  0.00    -0.304 OA
HETATM    4  O   UNL     1      57.349  24.156   5.162  1.00  0.00    -0.270 OA
HETATM    5  O   UNL     1      57.426  20.425   6.808  1.00  0.00    -0.263 OA
HETATM    6  O   UNL     1      55.128  22.269   4.737  1.00  0.00    -0.270 OA
HETATM    7  O   UNL     1      52.701  23.747   9.588  1.00  0.00    -0.270 OA
HETATM    8  O   UNL     1      57.067  25.745   9.996  1.00  0.00    -0.263 OA
HETATM    9  O   UNL     1      51.570  22.963   6.962  1.00  0.00    -0.263 OA
HETATM   10  N   UNL     1      58.676  22.973   6.654  1.00  0.00    -0.340 N 
HETATM   11  N   UNL     1      53.565  20.590   5.039  1.00  0.00    -0.340 N 
HETATM   12  N   UNL     1      54.841  22.839   9.662  1.00  0.00    -0.340 N 
HETATM   13  C   UNL     1      58.937  21.933   5.639  1.00  0.00     0.190 C 
HETATM   14  C   UNL     1      52.491  21.594   5.203  1.00  0.00     0.190 C 
HETATM   15  C   UNL     1      55.408  24.022  10.342  1.00  0.00     0.190 C 
HETATM   16  C   UNL     1      57.459  25.046   7.379  1.00  0.00     0.227 C 
HETATM   17  C   UNL     1      55.963  20.039   4.499  1.00  0.00     0.227 C 
HETATM   18  C   UNL     1      52.889  21.441   8.944  1.00  0.00     0.227 C 
HETATM   19  C   UNL     1      57.819  24.030   6.298  1.00  0.00     0.250 C 
HETATM   20  C   UNL     1      57.792  20.940   5.760  1.00  0.00     0.283 C 
HETATM   21  C   UNL     1      54.858  21.063   4.771  1.00  0.00     0.250 C 
HETATM   22  C   UNL     1      53.458  22.786   9.417  1.00  0.00     0.250 C 
HETATM   23  C   UNL     1      56.434  24.805   9.527  1.00  0.00     0.283 C 
HETATM   24  C   UNL     1      52.314  22.039   6.653  1.00  0.00     0.283 C 
HETATM   25  C   UNL     1      59.297  22.814   7.973  1.00  0.00     0.153 C 
HETATM   26  C   UNL     1      53.213  19.178   5.203  1.00  0.00     0.153 C 
HETATM   27  C   UNL     1      55.730  21.697   9.438  1.00  0.00     0.153 C 
ENDROOT
BRANCH  17  28
HETATM   28  C   UNL     1      55.825  19.459   3.099  1.00  0.00     0.016 C 
HETATM   29  C   UNL     1      56.763  20.170   2.125  1.00  0.00     0.012 C 
HETATM   30  C   UNL     1      56.104  17.956   3.109  1.00  0.00     0.012 C 
ENDBRANCH  17  28
BRANCH  13  31
HETATM   31  C   UNL     1      60.275  21.210   5.751  1.00  0.00     0.014 C 
HETATM   32  C   UNL     1      60.178  19.833   5.092  1.00  0.00     0.012 C 
BRANCH  31  33
HETATM   33  C   UNL     1      61.392  22.074   5.140  1.00  0.00     0.002 C 
HETATM   34  C   UNL     1      60.974  22.807   3.873  1.00  0.00     0.005 C 
ENDBRANCH  31  33
ENDBRANCH  13  31
BRANCH  14  35
HETATM   35  C   UNL     1      51.144  21.153   4.632  1.00  0.00     0.010 C 
HETATM   36  C   UNL     1      50.192  20.739   5.752  1.00  0.00     0.012 C 
HETATM   37  C   UNL     1      50.524  22.267   3.789  1.00  0.00     0.012 C 
ENDBRANCH  14  35
BRANCH  16  38
HETATM   38  C   UNL     1      56.779  26.279   6.791  1.00  0.00     0.016 C 
HETATM   39  C   UNL     1      57.409  27.557   7.341  1.00  0.00     0.012 C 
HETATM   40  C   UNL     1      55.278  26.255   7.078  1.00  0.00     0.012 C 
ENDBRANCH  16  38
BRANCH  18  41
HETATM   41  C   UNL     1      51.450  21.213   9.407  1.00  0.00     0.016 C 
HETATM   42  C   UNL     1      51.279  21.652  10.859  1.00  0.00     0.012 C 
HETATM   43  C   UNL     1      51.060  19.746   9.240  1.00  0.00     0.012 C 
ENDBRANCH  18  41
BRANCH  15  44
HETATM   44  C   UNL     1      55.979  23.655  11.712  1.00  0.00     0.010 C 
HETATM   45  C   UNL     1      57.211  22.768  11.557  1.00  0.00     0.012 C 
HETATM   46  C   UNL     1      54.920  22.963  12.564  1.00  0.00     0.012 C 
ENDBRANCH  15  44
TORSDOF 7
ENDMDL
MODEL 15
REMARK VINA RESULT:    -4.250      3.133      7.891
REMARK INTER + INTRA:          -5.393
REMARK INTER:                  -6.714
REMARK INTRA:                   1.322
REMARK UNBOUND:                 0.597
REMARK  7 active torsions:
REMARK  status: ('A' for Active; 'I' for Inactive)
REMARK    1  A    between atoms: C_13  and  C_14 
REMARK    2  A    between atoms: C_14  and  C_19 
REMARK    3  A    between atoms: C_15  and  C_20 
REMARK    4  A    between atoms: C_16  and  C_21 
REMARK    5  A    between atoms: C_17  and  C_23 
REMARK    6  A    between atoms: C_18  and  C_26 
REMARK    7  A    between atoms: C_22  and  C_28 
ROOT
HETATM    1  O   UNL     1      56.678  19.121   7.242  1.00  0.00    -0.304 OA
HETATM    2  O   UNL     1      52.257  21.877   6.853  1.00  0.00    -0.304 OA
HETATM    3  O   UNL     1      56.291  24.279   7.399  1.00  0.00    -0.304 OA
HETATM    4  O   UNL     1      53.476  19.442   8.523  1.00  0.00    -0.270 OA
HETATM    5  O   UNL     1      55.933  20.238   5.367  1.00  0.00    -0.263 OA
HETATM    6  O   UNL     1      55.956  20.988   8.889  1.00  0.00    -0.270 OA
HETATM    7  O   UNL     1      53.414  25.773   7.393  1.00  0.00    -0.270 OA
HETATM    8  O   UNL     1      50.174  22.458   6.077  1.00  0.00    -0.263 OA
HETATM    9  O   UNL     1      55.541  25.193   9.374  1.00  0.00    -0.263 OA
HETATM   10  N   UNL     1      53.438  19.176   6.218  1.00  0.00    -0.340 N 
HETATM   11  N   UNL     1      57.747  22.410   8.539  1.00  0.00    -0.340 N 
HETATM   12  N   UNL     1      53.486  24.037   5.847  1.00  0.00    -0.340 N 
HETATM   13  C   UNL     1      54.670  18.362   6.265  1.00  0.00     0.190 C 
HETATM   14  C   UNL     1      57.159  23.406   9.460  1.00  0.00     0.190 C 
HETATM   15  C   UNL     1      52.015  23.983   5.718  1.00  0.00     0.190 C 
HETATM   16  C   UNL     1      51.749  20.631   7.372  1.00  0.00     0.227 C 
HETATM   17  C   UNL     1      57.692  20.119   7.491  1.00  0.00     0.227 C 
HETATM   18  C   UNL     1      55.589  25.204   6.549  1.00  0.00     0.227 C 
HETATM   19  C   UNL     1      52.957  19.700   7.431  1.00  0.00     0.250 C 
HETATM   20  C   UNL     1      55.822  19.351   6.203  1.00  0.00     0.283 C 
HETATM   21  C   UNL     1      57.053  21.204   8.361  1.00  0.00     0.250 C 
HETATM   22  C   UNL     1      54.066  25.034   6.649  1.00  0.00     0.250 C 
HETATM   23  C   UNL     1      51.371  22.692   6.216  1.00  0.00     0.283 C 
HETATM   24  C   UNL     1      56.225  24.386   8.753  1.00  0.00     0.283 C 
HETATM   25  C   UNL     1      52.823  19.413   4.908  1.00  0.00     0.153 C 
HETATM   26  C   UNL     1      58.990  22.763   7.850  1.00  0.00     0.153 C 
HETATM   27  C   UNL     1      54.274  23.155   4.983  1.00  0.00     0.153 C 
ENDROOT
BRANCH  17  28
HETATM   28  C   UNL     1      58.820  19.424   8.240  1.00  0.00     0.016 C 
HETATM   29  C   UNL     1      58.265  18.344   9.169  1.00  0.00     0.012 C 
HETATM   30  C   UNL     1      59.828  18.822   7.262  1.00  0.00     0.012 C 
ENDBRANCH  17  28
BRANCH  13  31
HETATM   31  C   UNL     1      54.819  17.311   5.170  1.00  0.00     0.014 C 
HETATM   32  C   UNL     1      56.290  17.182   4.771  1.00  0.00     0.012 C 
BRANCH  31  33
HETATM   33  C   UNL     1      54.222  15.973   5.642  1.00  0.00     0.002 C 
HETATM   34  C   UNL     1      54.867  15.428   6.908  1.00  0.00     0.005 C 
ENDBRANCH  31  33
ENDBRANCH  13  31
BRANCH  14  35
HETATM   35  C   UNL     1      58.197  24.180  10.273  1.00  0.00     0.010 C 
HETATM   36  C   UNL     1      58.262  25.637   9.819  1.00  0.00     0.012 C 
HETATM   37  C   UNL     1      57.884  24.099  11.767  1.00  0.00     0.012 C 
ENDBRANCH  14  35
BRANCH  16  38
HETATM   38  C   UNL     1      51.161  20.882   8.758  1.00  0.00     0.016 C 
HETATM   39  C   UNL     1      52.073  21.796   9.574  1.00  0.00     0.012 C 
HETATM   40  C   UNL     1      50.931  19.562   9.492  1.00  0.00     0.012 C 
ENDBRANCH  16  38
BRANCH  18  41
HETATM   41  C   UNL     1      56.039  26.646   6.786  1.00  0.00     0.016 C 
HETATM   42  C   UNL     1      55.266  27.604   5.882  1.00  0.00     0.012 C 
HETATM   43  C   UNL     1      57.542  26.784   6.554  1.00  0.00     0.012 C 
ENDBRANCH  18  41
BRANCH  15  44
HETATM   44  C   UNL     1      51.571  24.284   4.286  1.00  0.00     0.010 C 
HETATM   45  C   UNL     1      51.935  23.128   3.359  1.00  0.00     0.012 C 
HETATM   46  C   UNL     1      52.198  25.586   3.796  1.00  0.00     0.012 C 
ENDBRANCH  15  44
TORSDOF 7
ENDMDL
MODEL 16
REMARK VINA RESULT:    -4.227     10.878     15.950
REMARK INTER + INTRA:          -5.360
REMARK INTER:                  -6.347
REMARK INTRA:                   0.987
REMARK UNBOUND:                 0.597
REMARK  7 active torsions:
REMARK  status: ('A' for Active; 'I' for Inactive)
REMARK    1  A    between atoms: C_13  and  C_14 
REMARK    2  A    between atoms: C_14  and  C_19 
REMARK    3  A    between atoms: C_15  and  C_20 
REMARK    4  A    between atoms: C_16  and  C_21 
REMARK    5  A    between atoms: C_17  and  C_23 
REMARK    6  A    between atoms: C_18  and  C_26 
REMARK    7  A    between atoms: C_22  and  C_28 
ROOT
HETATM    1  O   UNL     1      40.731  16.572  -0.386  1.00  0.00    -0.304 OA
HETATM    2  O   UNL     1      43.625  12.472  -1.836  1.00  0.00    -0.304 OA
HETATM    3  O   UNL     1      43.518  13.556   2.763  1.00  0.00    -0.304 OA
HETATM    4  O   UNL     1      43.212  15.552  -2.576  1.00  0.00    -0.270 OA
HETATM    5  O   UNL     1      40.147  14.352  -0.168  1.00  0.00    -0.263 OA
HETATM    6  O   UNL     1      43.203  16.199   0.297  1.00  0.00    -0.270 OA
HETATM    7  O   UNL     1      45.446  11.216   1.616  1.00  0.00    -0.270 OA
HETATM    8  O   UNL     1      44.185  10.565  -2.989  1.00  0.00    -0.263 OA
HETATM    9  O   UNL     1      45.791  13.918   2.785  1.00  0.00    -0.263 OA
HETATM   10  N   UNL     1      41.331  14.203  -2.748  1.00  0.00    -0.340 N 
HETATM   11  N   UNL     1      42.874  16.099   2.585  1.00  0.00    -0.340 N 
HETATM   12  N   UNL     1      43.386  11.243   0.534  1.00  0.00    -0.340 N 
HETATM   13  C   UNL     1      40.455  15.333  -2.374  1.00  0.00     0.190 C 
HETATM   14  C   UNL     1      44.311  15.822   2.798  1.00  0.00     0.190 C 
HETATM   15  C   UNL     1      43.878  10.428  -0.596  1.00  0.00     0.190 C 
HETATM   16  C   UNL     1      43.631  13.245  -3.052  1.00  0.00     0.227 C 
HETATM   17  C   UNL     1      40.980  16.693   1.032  1.00  0.00     0.227 C 
HETATM   18  C   UNL     1      43.610  12.124   2.870  1.00  0.00     0.227 C 
HETATM   19  C   UNL     1      42.717  14.436  -2.775  1.00  0.00     0.250 C 
HETATM   20  C   UNL     1      40.405  15.331  -0.855  1.00  0.00     0.283 C 
HETATM   21  C   UNL     1      42.443  16.307   1.266  1.00  0.00     0.250 C 
HETATM   22  C   UNL     1      44.243  11.495   1.620  1.00  0.00     0.250 C 
HETATM   23  C   UNL     1      43.904  11.143  -1.944  1.00  0.00     0.283 C 
HETATM   24  C   UNL     1      44.636  14.331   2.766  1.00  0.00     0.283 C 
HETATM   25  C   UNL     1      40.699  12.910  -3.029  1.00  0.00     0.153 C 
HETATM   26  C   UNL     1      41.996  16.102   3.757  1.00  0.00     0.153 C 
HETATM   27  C   UNL     1      41.966  11.595   0.547  1.00  0.00     0.153 C 
ENDROOT
BRANCH  17  28
HETATM   28  C   UNL     1      40.745  18.152   1.397  1.00  0.00     0.016 C 
HETATM   29  C   UNL     1      40.732  19.026   0.144  1.00  0.00     0.012 C 
HETATM   30  C   UNL     1      39.438  18.310   2.173  1.00  0.00     0.012 C 
ENDBRANCH  17  28
BRANCH  13  31
HETATM   31  C   UNL     1      39.043  15.302  -2.947  1.00  0.00     0.014 C 
HETATM   32  C   UNL     1      38.106  16.129  -2.065  1.00  0.00     0.012 C 
BRANCH  31  33
HETATM   33  C   UNL     1      39.057  15.792  -4.406  1.00  0.00     0.002 C 
HETATM   34  C   UNL     1      38.355  14.851  -5.375  1.00  0.00     0.005 C 
ENDBRANCH  31  33
ENDBRANCH  13  31
BRANCH  14  35
HETATM   35  C   UNL     1      44.875  16.445   4.075  1.00  0.00     0.010 C 
HETATM   36  C   UNL     1      46.369  16.159   4.201  1.00  0.00     0.012 C 
HETATM   37  C   UNL     1      44.614  17.951   4.103  1.00  0.00     0.012 C 
ENDBRANCH  14  35
BRANCH  16  38
HETATM   38  C   UNL     1      45.062  13.688  -3.344  1.00  0.00     0.016 C 
HETATM   39  C   UNL     1      45.605  12.976  -4.582  1.00  0.00     0.012 C 
HETATM   40  C   UNL     1      45.964  13.426  -2.139  1.00  0.00     0.012 C 
ENDBRANCH  16  38
BRANCH  18  41
HETATM   41  C   UNL     1      44.303  11.694   4.163  1.00  0.00     0.016 C 
HETATM   42  C   UNL     1      44.141  10.193   4.384  1.00  0.00     0.012 C 
HETATM   43  C   UNL     1      43.751  12.475   5.353  1.00  0.00     0.012 C 
ENDBRANCH  18  41
BRANCH  15  44
HETATM   44  C   UNL     1      43.113   9.108  -0.704  1.00  0.00     0.010 C 
HETATM   45  C   UNL     1      44.026   8.001  -1.223  1.00  0.00     0.012 C 
HETATM   46  C   UNL     1      41.895   9.271  -1.608  1.00  0.00     0.012 C 
ENDBRANCH  15  44
TORSDOF 7
ENDMDL
MODEL 17
REMARK VINA RESULT:    -4.222     15.957     19.260
REMARK INTER + INTRA:          -5.353
REMARK INTER:                  -5.953
REMARK INTRA:                   0.601
REMARK UNBOUND:                 0.597
REMARK  7 active torsions:
REMARK  status: ('A' for Active; 'I' for Inactive)
REMARK    1  A    between atoms: C_13  and  C_14 
REMARK    2  A    between atoms: C_14  and  C_19 
REMARK    3  A    between atoms: C_15  and  C_20 
REMARK    4  A    between atoms: C_16  and  C_21 
REMARK    5  A    between atoms: C_17  and  C_23 
REMARK    6  A    between atoms: C_18  and  C_26 
REMARK    7  A    between atoms: C_22  and  C_28 
ROOT
HETATM    1  O   UNL     1      48.050  10.729  -2.643  1.00  0.00    -0.304 OA
HETATM    2  O   UNL     1      47.608   5.567  -1.970  1.00  0.00    -0.304 OA
HETATM    3  O   UNL     1      43.634   8.032  -2.664  1.00  0.00    -0.304 OA
HETATM    4  O   UNL     1      48.942   8.106  -0.564  1.00  0.00    -0.270 OA
HETATM    5  O   UNL     1      47.709   9.167  -4.304  1.00  0.00    -0.263 OA
HETATM    6  O   UNL     1      46.433   9.596  -0.964  1.00  0.00    -0.270 OA
HETATM    7  O   UNL     1      43.568   4.865  -1.972  1.00  0.00    -0.270 OA
HETATM    8  O   UNL     1      48.134   3.341  -2.186  1.00  0.00    -0.263 OA
HETATM    9  O   UNL     1      42.814   7.388  -0.611  1.00  0.00    -0.263 OA
HETATM   10  N   UNL     1      49.589   7.701  -2.756  1.00  0.00    -0.340 N 
HETATM   11  N   UNL     1      44.456  10.397  -1.861  1.00  0.00    -0.340 N 
HETATM   12  N   UNL     1      45.336   5.401  -3.385  1.00  0.00    -0.340 N 
HETATM   13  C   UNL     1      49.763   9.147  -2.999  1.00  0.00     0.190 C 
HETATM   14  C   UNL     1      43.673   9.627  -0.870  1.00  0.00     0.190 C 
HETATM   15  C   UNL     1      46.047   4.135  -3.109  1.00  0.00     0.190 C 
HETATM   16  C   UNL     1      48.840   5.822  -1.268  1.00  0.00     0.227 C 
HETATM   17  C   UNL     1      46.684  11.189  -2.731  1.00  0.00     0.227 C 
HETATM   18  C   UNL     1      43.268   6.816  -3.340  1.00  0.00     0.227 C 
HETATM   19  C   UNL     1      49.127   7.305  -1.488  1.00  0.00     0.250 C 
HETATM   20  C   UNL     1      48.398   9.663  -3.423  1.00  0.00     0.283 C 
HETATM   21  C   UNL     1      45.854  10.323  -1.780  1.00  0.00     0.250 C 
HETATM   22  C   UNL     1      44.065   5.609  -2.824  1.00  0.00     0.250 C 
HETATM   23  C   UNL     1      47.383   4.290  -2.387  1.00  0.00     0.283 C 
HETATM   24  C   UNL     1      43.336   8.217  -1.349  1.00  0.00     0.283 C 
HETATM   25  C   UNL     1      49.872   6.781  -3.862  1.00  0.00     0.153 C 
HETATM   26  C   UNL     1      43.721  11.151  -2.878  1.00  0.00     0.153 C 
HETATM   27  C   UNL     1      45.920   6.302  -4.381  1.00  0.00     0.153 C 
ENDROOT
BRANCH  17  28
HETATM   28  C   UNL     1      46.678  12.642  -2.278  1.00  0.00     0.016 C 
HETATM   29  C   UNL     1      47.958  12.973  -1.512  1.00  0.00     0.012 C 
HETATM   30  C   UNL     1      46.513  13.580  -3.473  1.00  0.00     0.012 C 
ENDBRANCH  17  28
BRANCH  13  31
HETATM   31  C   UNL     1      50.814   9.528  -4.036  1.00  0.00     0.014 C 
HETATM   32  C   UNL     1      50.467  10.883  -4.654  1.00  0.00     0.012 C 
BRANCH  31  33
HETATM   33  C   UNL     1      52.213   9.521  -3.393  1.00  0.00     0.002 C 
HETATM   34  C   UNL     1      52.226  10.010  -1.952  1.00  0.00     0.005 C 
ENDBRANCH  31  33
ENDBRANCH  13  31
BRANCH  14  35
HETATM   35  C   UNL     1      42.398  10.333  -0.410  1.00  0.00     0.010 C 
HETATM   36  C   UNL     1      41.167   9.491  -0.735  1.00  0.00     0.012 C 
HETATM   37  C   UNL     1      42.458  10.637   1.087  1.00  0.00     0.012 C 
ENDBRANCH  14  35
BRANCH  16  38
HETATM   38  C   UNL     1      48.638   5.499   0.210  1.00  0.00     0.016 C 
HETATM   39  C   UNL     1      49.520   4.325   0.631  1.00  0.00     0.012 C 
HETATM   40  C   UNL     1      47.168   5.195   0.498  1.00  0.00     0.012 C 
ENDBRANCH  16  38
BRANCH  18  41
HETATM   41  C   UNL     1      41.758   6.582  -3.311  1.00  0.00     0.016 C 
HETATM   42  C   UNL     1      41.392   5.333  -4.109  1.00  0.00     0.012 C 
HETATM   43  C   UNL     1      41.016   7.802  -3.854  1.00  0.00     0.012 C 
ENDBRANCH  18  41
BRANCH  15  44
HETATM   44  C   UNL     1      46.219   3.306  -4.382  1.00  0.00     0.010 C 
HETATM   45  C   UNL     1      45.860   1.846  -4.121  1.00  0.00     0.012 C 
HETATM   46  C   UNL     1      47.647   3.424  -4.907  1.00  0.00     0.012 C 
ENDBRANCH  15  44
TORSDOF 7
ENDMDL
MODEL 18
REMARK VINA RESULT:    -4.136      3.180      7.349
REMARK INTER + INTRA:          -5.232
REMARK INTER:                  -6.301
REMARK INTRA:                   1.069
REMARK UNBOUND:                 0.597
REMARK  7 active torsions:
REMARK  status: ('A' for Active; 'I' for Inactive)
REMARK    1  A    between atoms: C_13  and  C_14 
REMARK    2  A    between atoms: C_14  and  C_19 
REMARK    3  A    between atoms: C_15  and  C_20 
REMARK    4  A    between atoms: C_16  and  C_21 
REMARK    5  A    between atoms: C_17  and  C_23 
REMARK    6  A    between atoms: C_18  and  C_26 
REMARK    7  A    between atoms: C_22  and  C_28 
ROOT
HETATM    1  O   UNL     1      45.176  21.640   3.691  1.00  0.00    -0.304 OA
HETATM    2  O   UNL     1      49.243  23.633   6.295  1.00  0.00    -0.304 OA
HETATM    3  O   UNL     1      50.143  20.363   3.002  1.00  0.00    -0.304 OA
HETATM    4  O   UNL     1      46.405  22.283   6.865  1.00  0.00    -0.270 OA
HETATM    5  O   UNL     1      46.638  23.243   2.908  1.00  0.00    -0.263 OA
HETATM    6  O   UNL     1      47.020  20.230   4.844  1.00  0.00    -0.270 OA
HETATM    7  O   UNL     1      52.486  21.542   4.907  1.00  0.00    -0.270 OA
HETATM    8  O   UNL     1      50.537  25.232   7.316  1.00  0.00    -0.263 OA
HETATM    9  O   UNL     1      51.070  18.960   4.573  1.00  0.00    -0.263 OA
HETATM   10  N   UNL     1      46.374  24.208   5.568  1.00  0.00    -0.340 N 
HETATM   11  N   UNL     1      47.808  19.156   2.952  1.00  0.00    -0.340 N 
HETATM   12  N   UNL     1      50.967  23.192   4.289  1.00  0.00    -0.340 N 
HETATM   13  C   UNL     1      45.202  23.713   4.816  1.00  0.00     0.190 C 
HETATM   14  C   UNL     1      48.854  18.481   3.749  1.00  0.00     0.190 C 
HETATM   15  C   UNL     1      51.406  24.111   5.360  1.00  0.00     0.190 C 
HETATM   16  C   UNL     1      48.189  23.826   7.259  1.00  0.00     0.227 C 
HETATM   17  C   UNL     1      45.763  20.626   2.847  1.00  0.00     0.227 C 
HETATM   18  C   UNL     1      51.319  21.177   2.840  1.00  0.00     0.227 C 
HETATM   19  C   UNL     1      46.914  23.367   6.557  1.00  0.00     0.250 C 
HETATM   20  C   UNL     1      45.764  22.872   3.681  1.00  0.00     0.283 C 
HETATM   21  C   UNL     1      46.915  19.995   3.635  1.00  0.00     0.250 C 
HETATM   22  C   UNL     1      51.645  21.974   4.113  1.00  0.00     0.250 C 
HETATM   23  C   UNL     1      50.355  24.407   6.427  1.00  0.00     0.283 C 
HETATM   24  C   UNL     1      50.144  19.294   3.842  1.00  0.00     0.283 C 
HETATM   25  C   UNL     1      46.914  25.523   5.208  1.00  0.00     0.153 C 
HETATM   26  C   UNL     1      47.798  18.933   1.505  1.00  0.00     0.153 C 
HETATM   27  C   UNL     1      49.959  23.682   3.348  1.00  0.00     0.153 C 
ENDROOT
BRANCH  17  28
HETATM   28  C   UNL     1      44.675  19.598   2.571  1.00  0.00     0.016 C 
HETATM   29  C   UNL     1      44.322  18.832   3.845  1.00  0.00     0.012 C 
HETATM   30  C   UNL     1      43.433  20.271   1.989  1.00  0.00     0.012 C 
ENDBRANCH  17  28
BRANCH  13  31
HETATM   31  C   UNL     1      44.263  24.780   4.265  1.00  0.00     0.014 C 
HETATM   32  C   UNL     1      43.561  24.257   3.011  1.00  0.00     0.012 C 
BRANCH  31  33
HETATM   33  C   UNL     1      43.266  25.216   5.354  1.00  0.00     0.002 C 
HETATM   34  C   UNL     1      43.297  26.708   5.651  1.00  0.00     0.005 C 
ENDBRANCH  31  33
ENDBRANCH  13  31
BRANCH  14  35
HETATM   35  C   UNL     1      49.172  17.064   3.272  1.00  0.00     0.010 C 
HETATM   36  C   UNL     1      50.664  16.769   3.410  1.00  0.00     0.012 C 
HETATM   37  C   UNL     1      48.351  16.035   4.049  1.00  0.00     0.012 C 
ENDBRANCH  14  35
BRANCH  16  38
HETATM   38  C   UNL     1      48.492  22.978   8.492  1.00  0.00     0.016 C 
HETATM   39  C   UNL     1      48.839  23.867   9.685  1.00  0.00     0.012 C 
HETATM   40  C   UNL     1      49.629  21.998   8.206  1.00  0.00     0.012 C 
ENDBRANCH  16  38
BRANCH  18  41
HETATM   41  C   UNL     1      52.508  20.363   2.333  1.00  0.00     0.016 C 
HETATM   42  C   UNL     1      53.658  21.285   1.933  1.00  0.00     0.012 C 
HETATM   43  C   UNL     1      52.093  19.482   1.157  1.00  0.00     0.012 C 
ENDBRANCH  18  41
BRANCH  15  44
HETATM   44  C   UNL     1      51.963  25.413   4.781  1.00  0.00     0.010 C 
HETATM   45  C   UNL     1      52.625  25.156   3.430  1.00  0.00     0.012 C 
HETATM   46  C   UNL     1      52.951  26.050   5.754  1.00  0.00     0.012 C 
ENDBRANCH  15  44
TORSDOF 7
ENDMDL
MODEL 19
REMARK VINA RESULT:    -4.113     13.939     18.073
REMARK INTER + INTRA:          -5.199
REMARK INTER:                  -5.899
REMARK INTRA:                   0.700
REMARK UNBOUND:                 0.597
REMARK  7 active torsions:
REMARK  status: ('A' for Active; 'I' for Inactive)
REMARK    1  A    between atoms: C_13  and  C_14 
REMARK    2  A    between atoms: C_14  and  C_19 
REMARK    3  A    between atoms: C_15  and  C_20 
REMARK    4  A    between atoms: C_16  and  C_21 
REMARK    5  A    between atoms: C_17  and  C_23 
REMARK    6  A    between atoms: C_18  and  C_26 
REMARK    7  A    between atoms: C_22  and  C_28 
ROOT
HETATM    1  O   UNL     1      41.658   9.989  -2.842  1.00  0.00    -0.304 OA
HETATM    2  O   UNL     1      45.156  11.782   0.599  1.00  0.00    -0.304 OA
HETATM    3  O   UNL     1      46.424   8.114  -2.100  1.00  0.00    -0.304 OA
HETATM    4  O   UNL     1      42.114  10.816   0.490  1.00  0.00    -0.270 OA
HETATM    5  O   UNL     1      43.470  11.334  -3.321  1.00  0.00    -0.263 OA
HETATM    6  O   UNL     1      42.946   8.512  -1.146  1.00  0.00    -0.270 OA
HETATM    7  O   UNL     1      48.340   9.218   0.271  1.00  0.00    -0.270 OA
HETATM    8  O   UNL     1      46.348  13.327   1.812  1.00  0.00    -0.263 OA
HETATM    9  O   UNL     1      46.727   6.785  -0.244  1.00  0.00    -0.263 OA
HETATM   10  N   UNL     1      42.668  12.590  -0.900  1.00  0.00    -0.340 N 
HETATM   11  N   UNL     1      44.039   7.170  -2.680  1.00  0.00    -0.340 N 
HETATM   12  N   UNL     1      47.259  10.952  -0.842  1.00  0.00    -0.340 N 
HETATM   13  C   UNL     1      41.672  12.151  -1.899  1.00  0.00     0.190 C 
HETATM   14  C   UNL     1      44.750   6.470  -1.589  1.00  0.00     0.190 C 
HETATM   15  C   UNL     1      47.530  11.923   0.239  1.00  0.00     0.190 C 
HETATM   16  C   UNL     1      43.928  12.187   1.234  1.00  0.00     0.227 C 
HETATM   17  C   UNL     1      42.301   8.836  -3.427  1.00  0.00     0.227 C 
HETATM   18  C   UNL     1      47.699   8.773  -2.001  1.00  0.00     0.227 C 
HETATM   19  C   UNL     1      42.824  11.800   0.254  1.00  0.00     0.250 C 
HETATM   20  C   UNL     1      42.388  11.143  -2.782  1.00  0.00     0.283 C 
HETATM   21  C   UNL     1      43.121   8.167  -2.319  1.00  0.00     0.250 C 
HETATM   22  C   UNL     1      47.793   9.655  -0.747  1.00  0.00     0.250 C 
HETATM   23  C   UNL     1      46.291  12.439   0.966  1.00  0.00     0.283 C 
HETATM   24  C   UNL     1      46.069   7.142  -1.216  1.00  0.00     0.283 C 
HETATM   25  C   UNL     1      43.451  13.794  -1.196  1.00  0.00     0.153 C 
HETATM   26  C   UNL     1      44.368   6.803  -4.059  1.00  0.00     0.153 C 
HETATM   27  C   UNL     1      46.598  11.451  -2.049  1.00  0.00     0.153 C 
ENDROOT
BRANCH  17  28
HETATM   28  C   UNL     1      41.193   7.910  -3.908  1.00  0.00     0.016 C 
HETATM   29  C   UNL     1      39.838   8.368  -3.371  1.00  0.00     0.012 C 
HETATM   30  C   UNL     1      41.169   7.845  -5.435  1.00  0.00     0.012 C 
ENDBRANCH  17  28
BRANCH  13  31
HETATM   31  C   UNL     1      41.053  13.253  -2.753  1.00  0.00     0.014 C 
HETATM   32  C   UNL     1      40.420  12.645  -4.006  1.00  0.00     0.012 C 
BRANCH  31  33
HETATM   33  C   UNL     1      40.041  14.058  -1.919  1.00  0.00     0.002 C 
HETATM   34  C   UNL     1      39.038  13.191  -1.170  1.00  0.00     0.005 C 
ENDBRANCH  31  33
ENDBRANCH  13  31
BRANCH  14  35
HETATM   35  C   UNL     1      44.988   4.985  -1.864  1.00  0.00     0.010 C 
HETATM   36  C   UNL     1      46.469   4.715  -2.125  1.00  0.00     0.012 C 
HETATM   37  C   UNL     1      44.487   4.133  -0.699  1.00  0.00     0.012 C 
ENDBRANCH  14  35
BRANCH  16  38
HETATM   38  C   UNL     1      43.792  11.442   2.559  1.00  0.00     0.016 C 
HETATM   39  C   UNL     1      43.968  12.399   3.737  1.00  0.00     0.012 C 
HETATM   40  C   UNL     1      44.805  10.301   2.642  1.00  0.00     0.012 C 
ENDBRANCH  16  38
BRANCH  18  41
HETATM   41  C   UNL     1      48.860   7.786  -2.116  1.00  0.00     0.016 C 
HETATM   42  C   UNL     1      50.196   8.511  -1.973  1.00  0.00     0.012 C 
HETATM   43  C   UNL     1      48.795   7.036  -3.445  1.00  0.00     0.012 C 
ENDBRANCH  18  41
BRANCH  15  44
HETATM   44  C   UNL     1      48.383  13.089  -0.262  1.00  0.00     0.010 C 
HETATM   45  C   UNL     1      49.348  12.619  -1.346  1.00  0.00     0.012 C 
HETATM   46  C   UNL     1      49.143  13.730   0.896  1.00  0.00     0.012 C 
ENDBRANCH  15  44
TORSDOF 7
ENDMDL
MODEL 20
REMARK VINA RESULT:    -3.880      8.241     11.668
REMARK INTER + INTRA:          -4.872
REMARK INTER:                  -5.687
REMARK INTRA:                   0.815
REMARK UNBOUND:                 0.597
REMARK  7 active torsions:
REMARK  status: ('A' for Active; 'I' for Inactive)
REMARK    1  A    between atoms: C_13  and  C_14 
REMARK    2  A    between atoms: C_14  and  C_19 
REMARK    3  A    between atoms: C_15  and  C_20 
REMARK    4  A    between atoms: C_16  and  C_21 
REMARK    5  A    between atoms: C_17  and  C_23 
REMARK    6  A    between atoms: C_18  and  C_26 
REMARK    7  A    between atoms: C_22  and  C_28 
ROOT
HETATM    1  O   UNL     1      43.399  17.616   2.482  1.00  0.00    -0.304 OA
HETATM    2  O   UNL     1      48.368  16.651   1.191  1.00  0.00    -0.304 OA
HETATM    3  O   UNL     1      45.113  13.484  -0.119  1.00  0.00    -0.304 OA
HETATM    4  O   UNL     1      46.614  17.400   3.753  1.00  0.00    -0.270 OA
HETATM    5  O   UNL     1      44.348  17.925   0.403  1.00  0.00    -0.263 OA
HETATM    6  O   UNL     1      44.631  15.381   2.936  1.00  0.00    -0.270 OA
HETATM    7  O   UNL     1      48.277  12.959  -0.592  1.00  0.00    -0.270 OA
HETATM    8  O   UNL     1      50.505  17.097   0.474  1.00  0.00    -0.263 OA
HETATM    9  O   UNL     1      46.136  11.839   1.125  1.00  0.00    -0.263 OA
HETATM   10  N   UNL     1      46.509  18.891   1.977  1.00  0.00    -0.340 N 
HETATM   11  N   UNL     1      43.260  14.016   1.668  1.00  0.00    -0.340 N 
HETATM   12  N   UNL     1      47.709  15.186  -0.955  1.00  0.00    -0.340 N 
HETATM   13  C   UNL     1      45.110  19.230   2.310  1.00  0.00     0.190 C 
HETATM   14  C   UNL     1      44.114  12.847   1.969  1.00  0.00     0.190 C 
HETATM   15  C   UNL     1      49.112  15.643  -0.862  1.00  0.00     0.190 C 
HETATM   16  C   UNL     1      48.552  17.482   2.354  1.00  0.00     0.227 C 
HETATM   17  C   UNL     1      42.686  16.442   2.033  1.00  0.00     0.227 C 
HETATM   18  C   UNL     1      46.003  13.372  -1.244  1.00  0.00     0.227 C 
HETATM   19  C   UNL     1      47.147  17.915   2.763  1.00  0.00     0.250 C 
HETATM   20  C   UNL     1      44.252  18.202   1.591  1.00  0.00     0.283 C 
HETATM   21  C   UNL     1      43.612  15.242   2.250  1.00  0.00     0.250 C 
HETATM   22  C   UNL     1      47.433  13.809  -0.890  1.00  0.00     0.250 C 
HETATM   23  C   UNL     1      49.415  16.554   0.325  1.00  0.00     0.283 C 
HETATM   24  C   UNL     1      45.247  12.668   0.961  1.00  0.00     0.283 C 
HETATM   25  C   UNL     1      47.122  19.565   0.828  1.00  0.00     0.153 C 
HETATM   26  C   UNL     1      42.129  13.822   0.757  1.00  0.00     0.153 C 
HETATM   27  C   UNL     1      46.693  16.184  -1.294  1.00  0.00     0.153 C 
ENDROOT
BRANCH  17  28
HETATM   28  C   UNL     1      41.441  16.325   2.901  1.00  0.00     0.016 C 
HETATM   29  C   UNL     1      41.823  16.100   4.363  1.00  0.00     0.012 C 
HETATM   30  C   UNL     1      40.566  17.569   2.761  1.00  0.00     0.012 C 
ENDBRANCH  17  28
BRANCH  13  31
HETATM   31  C   UNL     1      44.660  20.640   1.945  1.00  0.00     0.014 C 
HETATM   32  C   UNL     1      43.136  20.682   1.817  1.00  0.00     0.012 C 
BRANCH  31  33
HETATM   33  C   UNL     1      45.186  21.646   2.984  1.00  0.00     0.002 C 
HETATM   34  C   UNL     1      45.984  22.791   2.379  1.00  0.00     0.005 C 
ENDBRANCH  31  33
ENDBRANCH  13  31
BRANCH  14  35
HETATM   35  C   UNL     1      43.338  11.538   2.109  1.00  0.00     0.010 C 
HETATM   36  C   UNL     1      43.620  10.613   0.927  1.00  0.00     0.012 C 
HETATM   37  C   UNL     1      43.684  10.843   3.426  1.00  0.00     0.012 C 
ENDBRANCH  14  35
BRANCH  16  38
HETATM   38  C   UNL     1      49.229  16.656   3.445  1.00  0.00     0.016 C 
HETATM   39  C   UNL     1      50.682  17.091   3.627  1.00  0.00     0.012 C 
HETATM   40  C   UNL     1      49.154  15.166   3.117  1.00  0.00     0.012 C 
ENDBRANCH  16  38
BRANCH  18  41
HETATM   41  C   UNL     1      45.950  11.982  -1.876  1.00  0.00     0.016 C 
HETATM   42  C   UNL     1      46.926  11.886  -3.046  1.00  0.00     0.012 C 
HETATM   43  C   UNL     1      44.530  11.654  -2.333  1.00  0.00     0.012 C 
ENDBRANCH  18  41
BRANCH  15  44
HETATM   44  C   UNL     1      49.573  16.292  -2.167  1.00  0.00     0.010 C 
HETATM   45  C   UNL     1      49.048  15.510  -3.368  1.00  0.00     0.012 C 
HETATM   46  C   UNL     1      51.095  16.385  -2.208  1.00  0.00     0.012 C 
ENDBRANCH  15  44
TORSDOF 7
ENDMDL
