MODEL 1
REMARK VINA RESULT:    -5.320      0.000      0.000
REMARK INTER + INTRA:          -6.568
REMARK INTER:                  -7.498
REMARK INTRA:                   0.930
REMARK UNBOUND:                 0.930
REMARK  7 active torsions:
REMARK  status: ('A' for Active; 'I' for Inactive)
REMARK    1  A    between atoms: C_13  and  C_14 
REMARK    2  A    between atoms: C_14  and  C_19 
REMARK    3  A    between atoms: C_15  and  C_20 
REMARK    4  A    between atoms: C_16  and  C_21 
REMARK    5  A    between atoms: C_17  and  C_23 
REMARK    6  A    between atoms: C_18  and  C_26 
REMARK    7  A    between atoms: C_22  and  C_28 
ROOT
HETATM    1  O   UNL     1      51.715  26.299  40.191  1.00  0.00    -0.304 OA
HETATM    2  O   UNL     1      52.990  28.667  35.712  1.00  0.00    -0.304 OA
HETATM    3  O   UNL     1      52.464  31.379  39.548  1.00  0.00    -0.304 OA
HETATM    4  O   UNL     1      50.825  26.618  36.859  1.00  0.00    -0.270 OA
HETATM    5  O   UNL     1      53.815  27.048  39.599  1.00  0.00    -0.263 OA
HETATM    6  O   UNL     1      50.483  28.358  39.211  1.00  0.00    -0.270 OA
HETATM    7  O   UNL     1      53.001  32.665  36.621  1.00  0.00    -0.270 OA
HETATM    8  O   UNL     1      54.053  28.981  33.699  1.00  0.00    -0.263 OA
HETATM    9  O   UNL     1      50.753  32.551  38.549  1.00  0.00    -0.263 OA
HETATM   10  N   UNL     1      53.046  25.980  37.080  1.00  0.00    -0.340 N 
HETATM   11  N   UNL     1      50.890  29.816  40.960  1.00  0.00    -0.340 N 
HETATM   12  N   UNL     1      54.220  30.710  36.939  1.00  0.00    -0.340 N 
HETATM   13  C   UNL     1      52.742  25.265  38.336  1.00  0.00     0.190 C 
HETATM   14  C   UNL     1      50.211  30.909  40.231  1.00  0.00     0.190 C 
HETATM   15  C   UNL     1      54.481  30.542  35.494  1.00  0.00     0.190 C 
HETATM   16  C   UNL     1      52.322  27.492  35.211  1.00  0.00     0.227 C 
HETATM   17  C   UNL     1      51.540  27.387  41.125  1.00  0.00     0.227 C 
HETATM   18  C   UNL     1      53.521  32.108  38.898  1.00  0.00     0.227 C 
HETATM   19  C   UNL     1      51.990  26.662  36.448  1.00  0.00     0.250 C 
HETATM   20  C   UNL     1      52.857  26.303  39.441  1.00  0.00     0.283 C 
HETATM   21  C   UNL     1      50.930  28.556  40.346  1.00  0.00     0.250 C 
HETATM   22  C   UNL     1      53.543  31.858  37.383  1.00  0.00     0.250 C 
HETATM   23  C   UNL     1      53.838  29.310  34.862  1.00  0.00     0.283 C 
HETATM   24  C   UNL     1      51.160  31.699  39.333  1.00  0.00     0.283 C 
HETATM   25  C   UNL     1      54.431  25.962  36.598  1.00  0.00     0.153 C 
HETATM   26  C   UNL     1      51.504  30.132  42.251  1.00  0.00     0.153 C 
HETATM   27  C   UNL     1      54.842  29.753  37.855  1.00  0.00     0.153 C 
ENDROOT
BRANCH  17  28
HETATM   28  C   UNL     1      50.578  26.896  42.197  1.00  0.00     0.016 C 
HETATM   29  C   UNL     1      49.588  25.889  41.613  1.00  0.00     0.012 C 
HETATM   30  C   UNL     1      51.343  26.278  43.367  1.00  0.00     0.012 C 
ENDBRANCH  17  28
BRANCH  13  31
HETATM   31  C   UNL     1      53.626  24.063  38.651  1.00  0.00     0.014 C 
HETATM   32  C   UNL     1      53.634  23.804  40.158  1.00  0.00     0.012 C 
BRANCH  31  33
HETATM   33  C   UNL     1      53.149  22.838  37.850  1.00  0.00     0.002 C 
HETATM   34  C   UNL     1      54.229  22.224  36.970  1.00  0.00     0.005 C 
ENDBRANCH  31  33
ENDBRANCH  13  31
BRANCH  14  35
HETATM   35  C   UNL     1      49.442  31.869  41.139  1.00  0.00     0.010 C 
HETATM   36  C   UNL     1      48.874  33.035  40.334  1.00  0.00     0.012 C 
HETATM   37  C   UNL     1      48.324  31.134  41.878  1.00  0.00     0.012 C 
ENDBRANCH  14  35
BRANCH  16  38
HETATM   38  C   UNL     1      51.062  27.926  34.467  1.00  0.00     0.016 C 
HETATM   39  C   UNL     1      51.130  27.505  33.000  1.00  0.00     0.012 C 
HETATM   40  C   UNL     1      50.861  29.436  34.581  1.00  0.00     0.012 C 
ENDBRANCH  16  38
BRANCH  18  41
HETATM   41  C   UNL     1      53.487  33.594  39.252  1.00  0.00     0.016 C 
HETATM   42  C   UNL     1      54.789  34.275  38.837  1.00  0.00     0.012 C 
HETATM   43  C   UNL     1      53.234  33.785  40.745  1.00  0.00     0.012 C 
ENDBRANCH  18  41
BRANCH  15  44
HETATM   44  C   UNL     1      55.979  30.579  35.192  1.00  0.00     0.010 C 
HETATM   45  C   UNL     1      56.266  31.513  34.020  1.00  0.00     0.012 C 
HETATM   46  C   UNL     1      56.500  29.174  34.902  1.00  0.00     0.012 C 
ENDBRANCH  15  44
TORSDOF 7
ENDMDL
MODEL 2
REMARK VINA RESULT:    -4.987      2.135      6.867
REMARK INTER + INTRA:          -6.098
REMARK INTER:                  -7.031
REMARK INTRA:                   0.932
REMARK UNBOUND:                 0.930
REMARK  7 active torsions:
REMARK  status: ('A' for Active; 'I' for Inactive)
REMARK    1  A    between atoms: C_13  and  C_14 
REMARK    2  A    between atoms: C_14  and  C_19 
REMARK    3  A    between atoms: C_15  and  C_20 
REMARK    4  A    between atoms: C_16  and  C_21 
REMARK    5  A    between atoms: C_17  and  C_23 
REMARK    6  A    between atoms: C_18  and  C_26 
REMARK    7  A    between atoms: C_22  and  C_28 
ROOT
HETATM    1  O   UNL     1      51.972  26.828  39.903  1.00  0.00    -0.304 OA
HETATM    2  O   UNL     1      51.659  31.386  42.436  1.00  0.00    -0.304 OA
HETATM    3  O   UNL     1      52.084  31.524  37.730  1.00  0.00    -0.304 OA
HETATM    4  O   UNL     1      53.324  28.662  42.512  1.00  0.00    -0.270 OA
HETATM    5  O   UNL     1      50.103  28.171  40.058  1.00  0.00    -0.263 OA
HETATM    6  O   UNL     1      53.616  28.806  39.584  1.00  0.00    -0.270 OA
HETATM    7  O   UNL     1      52.131  34.228  39.518  1.00  0.00    -0.270 OA
HETATM    8  O   UNL     1      50.925  32.908  43.993  1.00  0.00    -0.263 OA
HETATM    9  O   UNL     1      54.067  32.682  37.891  1.00  0.00    -0.263 OA
HETATM   10  N   UNL     1      51.023  28.454  42.733  1.00  0.00    -0.340 N 
HETATM   11  N   UNL     1      53.210  29.180  37.338  1.00  0.00    -0.340 N 
HETATM   12  N   UNL     1      50.601  32.679  40.339  1.00  0.00    -0.340 N 
HETATM   13  C   UNL     1      51.050  27.143  42.051  1.00  0.00     0.190 C 
HETATM   14  C   UNL     1      54.134  30.334  37.343  1.00  0.00     0.190 C 
HETATM   15  C   UNL     1      50.507  33.347  41.653  1.00  0.00     0.190 C 
HETATM   16  C   UNL     1      52.202  30.543  43.471  1.00  0.00     0.227 C 
HETATM   17  C   UNL     1      52.186  27.207  38.525  1.00  0.00     0.227 C 
HETATM   18  C   UNL     1      51.242  32.676  37.915  1.00  0.00     0.227 C 
HETATM   19  C   UNL     1      52.242  29.142  42.868  1.00  0.00     0.250 C 
HETATM   20  C   UNL     1      50.951  27.448  40.565  1.00  0.00     0.283 C 
HETATM   21  C   UNL     1      53.060  28.464  38.535  1.00  0.00     0.250 C 
HETATM   22  C   UNL     1      51.380  33.266  39.326  1.00  0.00     0.250 C 
HETATM   23  C   UNL     1      51.034  32.531  42.830  1.00  0.00     0.283 C 
HETATM   24  C   UNL     1      53.439  31.646  37.701  1.00  0.00     0.283 C 
HETATM   25  C   UNL     1      49.726  28.962  43.189  1.00  0.00     0.153 C 
HETATM   26  C   UNL     1      52.488  28.886  36.098  1.00  0.00     0.153 C 
HETATM   27  C   UNL     1      49.729  31.528  40.101  1.00  0.00     0.153 C 
ENDROOT
BRANCH  17  28
HETATM   28  C   UNL     1      52.917  26.050  37.859  1.00  0.00     0.016 C 
HETATM   29  C   UNL     1      53.425  25.059  38.905  1.00  0.00     0.012 C 
HETATM   30  C   UNL     1      52.007  25.346  36.852  1.00  0.00     0.012 C 
ENDBRANCH  17  28
BRANCH  13  31
HETATM   31  C   UNL     1      49.963  26.155  42.459  1.00  0.00     0.014 C 
HETATM   32  C   UNL     1      49.926  24.987  41.472  1.00  0.00     0.012 C 
BRANCH  31  33
HETATM   33  C   UNL     1      50.195  25.689  43.907  1.00  0.00     0.002 C 
HETATM   34  C   UNL     1      48.980  25.022  44.538  1.00  0.00     0.005 C 
ENDBRANCH  31  33
ENDBRANCH  13  31
BRANCH  14  35
HETATM   35  C   UNL     1      54.914  30.504  36.039  1.00  0.00     0.010 C 
HETATM   36  C   UNL     1      54.514  31.799  35.336  1.00  0.00     0.012 C 
HETATM   37  C   UNL     1      56.419  30.482  36.304  1.00  0.00     0.012 C 
ENDBRANCH  14  35
BRANCH  16  38
HETATM   38  C   UNL     1      53.599  31.045  43.828  1.00  0.00     0.016 C 
HETATM   39  C   UNL     1      53.617  31.632  45.238  1.00  0.00     0.012 C 
HETATM   40  C   UNL     1      54.076  32.080  42.811  1.00  0.00     0.012 C 
ENDBRANCH  16  38
BRANCH  18  41
HETATM   41  C   UNL     1      51.453  33.716  36.816  1.00  0.00     0.016 C 
HETATM   42  C   UNL     1      50.423  34.837  36.934  1.00  0.00     0.012 C 
HETATM   43  C   UNL     1      51.381  33.063  35.438  1.00  0.00     0.012 C 
ENDBRANCH  18  41
BRANCH  15  44
HETATM   44  C   UNL     1      49.083  33.830  41.931  1.00  0.00     0.010 C 
HETATM   45  C   UNL     1      48.121  32.647  41.993  1.00  0.00     0.012 C 
HETATM   46  C   UNL     1      48.641  34.829  40.866  1.00  0.00     0.012 C 
ENDBRANCH  15  44
TORSDOF 7
ENDMDL
MODEL 3
REMARK VINA RESULT:    -4.953      2.374      7.306
REMARK INTER + INTRA:          -6.050
REMARK INTER:                  -6.645
REMARK INTRA:                   0.594
REMARK UNBOUND:                 0.930
REMARK  7 active torsions:
REMARK  status: ('A' for Active; 'I' for Inactive)
REMARK    1  A    between atoms: C_13  and  C_14 
REMARK    2  A    between atoms: C_14  and  C_19 
REMARK    3  A    between atoms: C_15  and  C_20 
REMARK    4  A    between atoms: C_16  and  C_21 
REMARK    5  A    between atoms: C_17  and  C_23 
REMARK    6  A    between atoms: C_18  and  C_26 
REMARK    7  A    between atoms: C_22  and  C_28 
ROOT
HETATM    1  O   UNL     1      49.837  32.251  41.745  1.00  0.00    -0.304 OA
HETATM    2  O   UNL     1      54.636  32.193  39.680  1.00  0.00    -0.304 OA
HETATM    3  O   UNL     1      52.103  28.209  39.441  1.00  0.00    -0.304 OA
HETATM    4  O   UNL     1      53.160  32.972  42.404  1.00  0.00    -0.270 OA
HETATM    5  O   UNL     1      50.353  32.395  39.502  1.00  0.00    -0.263 OA
HETATM    6  O   UNL     1      51.637  30.456  42.252  1.00  0.00    -0.270 OA
HETATM    7  O   UNL     1      55.189  28.319  38.454  1.00  0.00    -0.270 OA
HETATM    8  O   UNL     1      56.462  32.966  38.520  1.00  0.00    -0.263 OA
HETATM    9  O   UNL     1      53.676  27.071  40.677  1.00  0.00    -0.263 OA
HETATM   10  N   UNL     1      52.423  34.071  40.497  1.00  0.00    -0.340 N 
HETATM   11  N   UNL     1      50.469  28.623  41.459  1.00  0.00    -0.340 N 
HETATM   12  N   UNL     1      54.041  30.268  37.911  1.00  0.00    -0.340 N 
HETATM   13  C   UNL     1      51.051  34.147  41.040  1.00  0.00     0.190 C 
HETATM   14  C   UNL     1      51.620  27.741  41.746  1.00  0.00     0.190 C 
HETATM   15  C   UNL     1      55.284  31.031  37.677  1.00  0.00     0.190 C 
HETATM   16  C   UNL     1      54.783  33.234  40.666  1.00  0.00     0.227 C 
HETATM   17  C   UNL     1      49.376  30.890  41.599  1.00  0.00     0.227 C 
HETATM   18  C   UNL     1      52.811  28.102  38.193  1.00  0.00     0.227 C 
HETATM   19  C   UNL     1      53.394  33.412  41.272  1.00  0.00     0.250 C 
HETATM   20  C   UNL     1      50.374  32.847  40.639  1.00  0.00     0.283 C 
HETATM   21  C   UNL     1      50.592  29.979  41.795  1.00  0.00     0.250 C 
HETATM   22  C   UNL     1      54.125  28.897  38.210  1.00  0.00     0.250 C 
HETATM   23  C   UNL     1      55.530  32.179  38.653  1.00  0.00     0.283 C 
HETATM   24  C   UNL     1      52.596  27.644  40.575  1.00  0.00     0.283 C 
HETATM   25  C   UNL     1      52.669  34.653  39.174  1.00  0.00     0.153 C 
HETATM   26  C   UNL     1      49.296  28.030  40.811  1.00  0.00     0.153 C 
HETATM   27  C   UNL     1      52.771  30.944  37.640  1.00  0.00     0.153 C 
ENDROOT
BRANCH  17  28
HETATM   28  C   UNL     1      48.346  30.654  42.694  1.00  0.00     0.016 C 
HETATM   29  C   UNL     1      48.691  31.464  43.943  1.00  0.00     0.012 C 
HETATM   30  C   UNL     1      46.943  31.005  42.199  1.00  0.00     0.012 C 
ENDBRANCH  17  28
BRANCH  13  31
HETATM   31  C   UNL     1      50.216  35.338  40.582  1.00  0.00     0.014 C 
HETATM   32  C   UNL     1      48.734  35.065  40.844  1.00  0.00     0.012 C 
BRANCH  31  33
HETATM   33  C   UNL     1      50.706  36.621  41.277  1.00  0.00     0.002 C 
HETATM   34  C   UNL     1      50.874  37.803  40.333  1.00  0.00     0.005 C 
ENDBRANCH  31  33
ENDBRANCH  13  31
BRANCH  14  35
HETATM   35  C   UNL     1      51.222  26.338  42.203  1.00  0.00     0.010 C 
HETATM   36  C   UNL     1      51.508  25.312  41.108  1.00  0.00     0.012 C 
HETATM   37  C   UNL     1      51.952  25.962  43.492  1.00  0.00     0.012 C 
ENDBRANCH  14  35
BRANCH  16  38
HETATM   38  C   UNL     1      55.800  32.779  41.710  1.00  0.00     0.016 C 
HETATM   39  C   UNL     1      57.075  33.617  41.622  1.00  0.00     0.012 C 
HETATM   40  C   UNL     1      56.122  31.296  41.538  1.00  0.00     0.012 C 
ENDBRANCH  16  38
BRANCH  18  41
HETATM   41  C   UNL     1      53.008  26.646  37.774  1.00  0.00     0.016 C 
HETATM   42  C   UNL     1      53.814  26.564  36.480  1.00  0.00     0.012 C 
HETATM   43  C   UNL     1      51.660  25.948  37.612  1.00  0.00     0.012 C 
ENDBRANCH  18  41
BRANCH  15  44
HETATM   44  C   UNL     1      55.368  31.529  36.233  1.00  0.00     0.010 C 
HETATM   45  C   UNL     1      56.745  31.236  35.645  1.00  0.00     0.012 C 
HETATM   46  C   UNL     1      55.058  33.021  36.164  1.00  0.00     0.012 C 
ENDBRANCH  15  44
TORSDOF 7
ENDMDL
MODEL 4
REMARK VINA RESULT:    -4.912      4.180      7.073
REMARK INTER + INTRA:          -5.992
REMARK INTER:                  -6.639
REMARK INTRA:                   0.647
REMARK UNBOUND:                 0.930
REMARK  7 active torsions:
REMARK  status: ('A' for Active; 'I' for Inactive)
REMARK    1  A    between atoms: C_13  and  C_14 
REMARK    2  A    between atoms: C_14  and  C_19 
REMARK    3  A    between atoms: C_15  and  C_20 
REMARK    4  A    between atoms: C_16  and  C_21 
REMARK    5  A    between atoms: C_17  and  C_23 
REMARK    6  A    between atoms: C_18  and  C_26 
REMARK    7  A    between atoms: C_22  and  C_28 
ROOT
HETATM    1  O   UNL     1      50.187  26.936  43.108  1.00  0.00    -0.304 OA
HETATM    2  O   UNL     1      50.841  32.037  42.190  1.00  0.00    -0.304 OA
HETATM    3  O   UNL     1      50.537  30.647  46.698  1.00  0.00    -0.304 OA
HETATM    4  O   UNL     1      48.941  29.624  41.313  1.00  0.00    -0.270 OA
HETATM    5  O   UNL     1      52.162  28.110  43.305  1.00  0.00    -0.263 OA
HETATM    6  O   UNL     1      48.731  28.817  44.138  1.00  0.00    -0.270 OA
HETATM    7  O   UNL     1      50.688  33.785  45.896  1.00  0.00    -0.270 OA
HETATM    8  O   UNL     1      51.670  33.928  41.181  1.00  0.00    -0.263 OA
HETATM    9  O   UNL     1      48.661  31.940  47.025  1.00  0.00    -0.263 OA
HETATM   10  N   UNL     1      51.209  29.327  40.920  1.00  0.00    -0.340 N 
HETATM   11  N   UNL     1      49.220  28.397  46.360  1.00  0.00    -0.340 N 
HETATM   12  N   UNL     1      52.056  32.483  44.538  1.00  0.00    -0.340 N 
HETATM   13  C   UNL     1      51.083  27.871  41.137  1.00  0.00     0.190 C 
HETATM   14  C   UNL     1      48.401  29.555  46.779  1.00  0.00     0.190 C 
HETATM   15  C   UNL     1      52.178  33.538  43.511  1.00  0.00     0.190 C 
HETATM   16  C   UNL     1      50.203  31.627  40.965  1.00  0.00     0.227 C 
HETATM   17  C   UNL     1      50.038  26.855  44.543  1.00  0.00     0.227 C 
HETATM   18  C   UNL     1      51.473  31.729  46.857  1.00  0.00     0.227 C 
HETATM   19  C   UNL     1      50.053  30.112  41.079  1.00  0.00     0.250 C 
HETATM   20  C   UNL     1      51.243  27.661  42.634  1.00  0.00     0.283 C 
HETATM   21  C   UNL     1      49.278  28.107  44.989  1.00  0.00     0.250 C 
HETATM   22  C   UNL     1      51.356  32.760  45.725  1.00  0.00     0.250 C 
HETATM   23  C   UNL     1      51.555  33.197  42.160  1.00  0.00     0.283 C 
HETATM   24  C   UNL     1      49.200  30.855  46.834  1.00  0.00     0.283 C 
HETATM   25  C   UNL     1      52.536  29.858  40.591  1.00  0.00     0.153 C 
HETATM   26  C   UNL     1      49.942  27.657  47.398  1.00  0.00     0.153 C 
HETATM   27  C   UNL     1      52.829  31.255  44.343  1.00  0.00     0.153 C 
ENDROOT
BRANCH  17  28
HETATM   28  C   UNL     1      49.225  25.601  44.831  1.00  0.00     0.016 C 
HETATM   29  C   UNL     1      48.554  25.089  43.557  1.00  0.00     0.012 C 
HETATM   30  C   UNL     1      50.107  24.515  45.445  1.00  0.00     0.012 C 
ENDBRANCH  17  28
BRANCH  13  31
HETATM   31  C   UNL     1      52.069  26.994  40.374  1.00  0.00     0.014 C 
HETATM   32  C   UNL     1      52.171  25.623  41.044  1.00  0.00     0.012 C 
BRANCH  31  33
HETATM   33  C   UNL     1      51.649  26.893  38.897  1.00  0.00     0.002 C 
HETATM   34  C   UNL     1      51.950  25.542  38.266  1.00  0.00     0.005 C 
ENDBRANCH  31  33
ENDBRANCH  13  31
BRANCH  14  35
HETATM   35  C   UNL     1      47.669  29.343  48.104  1.00  0.00     0.010 C 
HETATM   36  C   UNL     1      48.225  30.272  49.182  1.00  0.00     0.012 C 
HETATM   37  C   UNL     1      46.166  29.563  47.932  1.00  0.00     0.012 C 
ENDBRANCH  14  35
BRANCH  16  38
HETATM   38  C   UNL     1      48.847  32.322  40.863  1.00  0.00     0.016 C 
HETATM   39  C   UNL     1      48.859  33.365  39.747  1.00  0.00     0.012 C 
HETATM   40  C   UNL     1      48.471  32.967  42.195  1.00  0.00     0.012 C 
ENDBRANCH  16  38
BRANCH  18  41
HETATM   41  C   UNL     1      51.380  32.362  48.245  1.00  0.00     0.016 C 
HETATM   42  C   UNL     1      52.368  33.519  48.375  1.00  0.00     0.012 C 
HETATM   43  C   UNL     1      51.632  31.316  49.329  1.00  0.00     0.012 C 
ENDBRANCH  18  41
BRANCH  15  44
HETATM   44  C   UNL     1      53.632  33.976  43.335  1.00  0.00     0.010 C 
HETATM   45  C   UNL     1      53.734  35.499  43.326  1.00  0.00     0.012 C 
HETATM   46  C   UNL     1      54.215  33.389  42.053  1.00  0.00     0.012 C 
ENDBRANCH  15  44
TORSDOF 7
ENDMDL
MODEL 5
REMARK VINA RESULT:    -4.904      3.542      8.320
REMARK INTER + INTRA:          -5.981
REMARK INTER:                  -6.646
REMARK INTRA:                   0.665
REMARK UNBOUND:                 0.930
REMARK  7 active torsions:
REMARK  status: ('A' for Active; 'I' for Inactive)
REMARK    1  A    between atoms: C_13  and  C_14 
REMARK    2  A    between atoms: C_14  and  C_19 
REMARK    3  A    between atoms: C_15  and  C_20 
REMARK    4  A    between atoms: C_16  and  C_21 
REMARK    5  A    between atoms: C_17  and  C_23 
REMARK    6  A    between atoms: C_18  and  C_26 
REMARK    7  A    between atoms: C_22  and  C_28 
ROOT
HETATM    1  O   UNL     1      49.240  30.299  43.973  1.00  0.00    -0.304 OA
HETATM    2  O   UNL     1      52.767  27.820  41.022  1.00  0.00    -0.304 OA
HETATM    3  O   UNL     1      50.694  25.359  44.484  1.00  0.00    -0.304 OA
HETATM    4  O   UNL     1      52.471  30.496  42.741  1.00  0.00    -0.270 OA
HETATM    5  O   UNL     1      48.783  28.822  42.261  1.00  0.00    -0.263 OA
HETATM    6  O   UNL     1      51.231  28.923  44.901  1.00  0.00    -0.270 OA
HETATM    7  O   UNL     1      53.089  24.094  42.703  1.00  0.00    -0.270 OA
HETATM    8  O   UNL     1      53.891  27.208  39.114  1.00  0.00    -0.263 OA
HETATM    9  O   UNL     1      52.723  24.986  45.506  1.00  0.00    -0.263 OA
HETATM   10  N   UNL     1      50.932  30.213  41.026  1.00  0.00    -0.340 N 
HETATM   11  N   UNL     1      49.997  27.346  46.058  1.00  0.00    -0.340 N 
HETATM   12  N   UNL     1      51.663  25.409  41.419  1.00  0.00    -0.340 N 
HETATM   13  C   UNL     1      49.900  30.934  41.799  1.00  0.00     0.190 C 
HETATM   14  C   UNL     1      51.234  26.635  46.445  1.00  0.00     0.190 C 
HETATM   15  C   UNL     1      52.636  25.526  40.313  1.00  0.00     0.190 C 
HETATM   16  C   UNL     1      53.217  29.182  40.886  1.00  0.00     0.227 C 
HETATM   17  C   UNL     1      48.874  29.324  44.974  1.00  0.00     0.227 C 
HETATM   18  C   UNL     1      50.839  24.307  43.514  1.00  0.00     0.227 C 
HETATM   19  C   UNL     1      52.186  30.022  41.635  1.00  0.00     0.250 C 
HETATM   20  C   UNL     1      49.228  29.886  42.671  1.00  0.00     0.283 C 
HETATM   21  C   UNL     1      50.134  28.518  45.300  1.00  0.00     0.250 C 
HETATM   22  C   UNL     1      51.975  24.594  42.521  1.00  0.00     0.250 C 
HETATM   23  C   UNL     1      53.162  26.937  40.063  1.00  0.00     0.283 C 
HETATM   24  C   UNL     1      51.652  25.579  45.425  1.00  0.00     0.283 C 
HETATM   25  C   UNL     1      50.569  29.715  39.696  1.00  0.00     0.153 C 
HETATM   26  C   UNL     1      48.715  26.761  46.460  1.00  0.00     0.153 C 
HETATM   27  C   UNL     1      50.342  26.009  41.225  1.00  0.00     0.153 C 
ENDROOT
BRANCH  17  28
HETATM   28  C   UNL     1      48.402  30.102  46.194  1.00  0.00     0.016 C 
HETATM   29  C   UNL     1      49.037  31.492  46.226  1.00  0.00     0.012 C 
HETATM   30  C   UNL     1      46.878  30.209  46.210  1.00  0.00     0.012 C 
ENDBRANCH  17  28
BRANCH  13  31
HETATM   31  C   UNL     1      48.856  31.685  40.980  1.00  0.00     0.014 C 
HETATM   32  C   UNL     1      47.586  31.880  41.811  1.00  0.00     0.012 C 
BRANCH  31  33
HETATM   33  C   UNL     1      49.439  33.020  40.484  1.00  0.00     0.002 C 
HETATM   34  C   UNL     1      48.705  34.244  41.012  1.00  0.00     0.005 C 
ENDBRANCH  31  33
ENDBRANCH  13  31
BRANCH  14  35
HETATM   35  C   UNL     1      51.173  26.009  47.839  1.00  0.00     0.010 C 
HETATM   36  C   UNL     1      51.109  24.486  47.745  1.00  0.00     0.012 C 
HETATM   37  C   UNL     1      52.375  26.443  48.678  1.00  0.00     0.012 C 
ENDBRANCH  14  35
BRANCH  16  38
HETATM   38  C   UNL     1      54.605  29.304  41.510  1.00  0.00     0.016 C 
HETATM   39  C   UNL     1      55.659  29.564  40.435  1.00  0.00     0.012 C 
HETATM   40  C   UNL     1      54.951  28.046  42.305  1.00  0.00     0.012 C 
ENDBRANCH  16  38
BRANCH  18  41
HETATM   41  C   UNL     1      50.967  22.936  44.177  1.00  0.00     0.016 C 
HETATM   42  C   UNL     1      51.063  21.836  43.122  1.00  0.00     0.012 C 
HETATM   43  C   UNL     1      49.787  22.680  45.112  1.00  0.00     0.012 C 
ENDBRANCH  18  41
BRANCH  15  44
HETATM   44  C   UNL     1      52.082  24.925  39.020  1.00  0.00     0.010 C 
HETATM   45  C   UNL     1      53.094  23.965  38.400  1.00  0.00     0.012 C 
HETATM   46  C   UNL     1      51.710  26.028  38.034  1.00  0.00     0.012 C 
ENDBRANCH  15  44
TORSDOF 7
ENDMDL
MODEL 6
REMARK VINA RESULT:    -4.894      4.851      9.990
REMARK INTER + INTRA:          -5.968
REMARK INTER:                  -6.526
REMARK INTRA:                   0.559
REMARK UNBOUND:                 0.930
REMARK  7 active torsions:
REMARK  status: ('A' for Active; 'I' for Inactive)
REMARK    1  A    between atoms: C_13  and  C_14 
REMARK    2  A    between atoms: C_14  and  C_19 
REMARK    3  A    between atoms: C_15  and  C_20 
REMARK    4  A    between atoms: C_16  and  C_21 
REMARK    5  A    between atoms: C_17  and  C_23 
REMARK    6  A    between atoms: C_18  and  C_26 
REMARK    7  A    between atoms: C_22  and  C_28 
ROOT
HETATM    1  O   UNL     1      52.382  33.544  46.210  1.00  0.00    -0.304 OA
HETATM    2  O   UNL     1      49.278  29.345  46.051  1.00  0.00    -0.304 OA
HETATM    3  O   UNL     1      50.932  30.999  41.944  1.00  0.00    -0.304 OA
HETATM    4  O   UNL     1      49.327  32.299  47.266  1.00  0.00    -0.270 OA
HETATM    5  O   UNL     1      53.065  31.359  45.932  1.00  0.00    -0.263 OA
HETATM    6  O   UNL     1      50.307  33.304  44.676  1.00  0.00    -0.270 OA
HETATM    7  O   UNL     1      48.792  28.567  42.054  1.00  0.00    -0.270 OA
HETATM    8  O   UNL     1      48.407  27.318  46.692  1.00  0.00    -0.263 OA
HETATM    9  O   UNL     1      48.797  31.401  41.184  1.00  0.00    -0.263 OA
HETATM   10  N   UNL     1      51.070  30.907  47.906  1.00  0.00    -0.340 N 
HETATM   11  N   UNL     1      51.406  33.488  42.649  1.00  0.00    -0.340 N 
HETATM   12  N   UNL     1      50.351  28.421  43.775  1.00  0.00    -0.340 N 
HETATM   13  C   UNL     1      51.990  32.059  48.000  1.00  0.00     0.190 C 
HETATM   14  C   UNL     1      50.138  33.265  41.920  1.00  0.00     0.190 C 
HETATM   15  C   UNL     1      49.522  27.478  44.555  1.00  0.00     0.190 C 
HETATM   16  C   UNL     1      48.832  29.958  47.277  1.00  0.00     0.227 C 
HETATM   17  C   UNL     1      52.632  33.847  44.820  1.00  0.00     0.227 C 
HETATM   18  C   UNL     1      50.921  29.594  41.634  1.00  0.00     0.227 C 
HETATM   19  C   UNL     1      49.753  31.158  47.482  1.00  0.00     0.250 C 
HETATM   20  C   UNL     1      52.560  32.248  46.605  1.00  0.00     0.283 C 
HETATM   21  C   UNL     1      51.350  33.519  44.050  1.00  0.00     0.250 C 
HETATM   22  C   UNL     1      49.914  28.823  42.501  1.00  0.00     0.250 C 
HETATM   23  C   UNL     1      49.015  28.018  45.889  1.00  0.00     0.283 C 
HETATM   24  C   UNL     1      49.862  31.787  41.652  1.00  0.00     0.283 C 
HETATM   25  C   UNL     1      51.601  29.578  48.224  1.00  0.00     0.153 C 
HETATM   26  C   UNL     1      52.634  33.623  41.862  1.00  0.00     0.153 C 
HETATM   27  C   UNL     1      51.679  28.747  44.297  1.00  0.00     0.153 C 
ENDROOT
BRANCH  17  28
HETATM   28  C   UNL     1      52.939  35.336  44.743  1.00  0.00     0.016 C 
HETATM   29  C   UNL     1      52.432  36.057  45.992  1.00  0.00     0.012 C 
HETATM   30  C   UNL     1      54.439  35.569  44.563  1.00  0.00     0.012 C 
ENDBRANCH  17  28
BRANCH  13  31
HETATM   31  C   UNL     1      53.119  31.931  49.017  1.00  0.00     0.014 C 
HETATM   32  C   UNL     1      54.300  32.807  48.595  1.00  0.00     0.012 C 
BRANCH  31  33
HETATM   33  C   UNL     1      52.602  32.284  50.423  1.00  0.00     0.002 C 
HETATM   34  C   UNL     1      51.593  33.424  50.435  1.00  0.00     0.005 C 
ENDBRANCH  31  33
ENDBRANCH  13  31
BRANCH  14  35
HETATM   35  C   UNL     1      50.032  34.053  40.615  1.00  0.00     0.010 C 
HETATM   36  C   UNL     1      49.976  33.109  39.416  1.00  0.00     0.012 C 
HETATM   37  C   UNL     1      48.807  34.967  40.634  1.00  0.00     0.012 C 
ENDBRANCH  14  35
BRANCH  16  38
HETATM   38  C   UNL     1      47.376  30.385  47.110  1.00  0.00     0.016 C 
HETATM   39  C   UNL     1      46.465  29.561  48.017  1.00  0.00     0.012 C 
HETATM   40  C   UNL     1      46.940  30.255  45.651  1.00  0.00     0.012 C 
ENDBRANCH  16  38
BRANCH  18  41
HETATM   41  C   UNL     1      50.728  29.343  40.139  1.00  0.00     0.016 C 
HETATM   42  C   UNL     1      50.759  27.846  39.838  1.00  0.00     0.012 C 
HETATM   43  C   UNL     1      51.795  30.076  39.330  1.00  0.00     0.012 C 
ENDBRANCH  18  41
BRANCH  15  44
HETATM   44  C   UNL     1      50.240  26.143  44.755  1.00  0.00     0.010 C 
HETATM   45  C   UNL     1      49.296  24.980  44.461  1.00  0.00     0.012 C 
HETATM   46  C   UNL     1      50.794  26.042  46.173  1.00  0.00     0.012 C 
ENDBRANCH  15  44
TORSDOF 7
ENDMDL
MODEL 7
REMARK VINA RESULT:    -4.810      2.025      8.431
REMARK INTER + INTRA:          -5.848
REMARK INTER:                  -6.546
REMARK INTRA:                   0.698
REMARK UNBOUND:                 0.930
REMARK  7 active torsions:
REMARK  status: ('A' for Active; 'I' for Inactive)
REMARK    1  A    between atoms: C_13  and  C_14 
REMARK    2  A    between atoms: C_14  and  C_19 
REMARK    3  A    between atoms: C_15  and  C_20 
REMARK    4  A    between atoms: C_16  and  C_21 
REMARK    5  A    between atoms: C_17  and  C_23 
REMARK    6  A    between atoms: C_18  and  C_26 
REMARK    7  A    between atoms: C_22  and  C_28 
ROOT
HETATM    1  O   UNL     1      53.132  32.265  37.876  1.00  0.00    -0.304 OA
HETATM    2  O   UNL     1      50.937  30.166  42.126  1.00  0.00    -0.304 OA
HETATM    3  O   UNL     1      53.089  27.238  39.103  1.00  0.00    -0.304 OA
HETATM    4  O   UNL     1      50.199  32.123  39.712  1.00  0.00    -0.270 OA
HETATM    5  O   UNL     1      54.240  31.575  39.777  1.00  0.00    -0.263 OA
HETATM    6  O   UNL     1      51.502  30.251  37.849  1.00  0.00    -0.270 OA
HETATM    7  O   UNL     1      51.446  26.124  41.665  1.00  0.00    -0.270 OA
HETATM    8  O   UNL     1      50.330  29.978  44.334  1.00  0.00    -0.263 OA
HETATM    9  O   UNL     1      51.123  26.105  38.719  1.00  0.00    -0.263 OA
HETATM   10  N   UNL     1      51.991  32.773  41.036  1.00  0.00    -0.340 N 
HETATM   11  N   UNL     1      52.949  28.702  36.923  1.00  0.00    -0.340 N 
HETATM   12  N   UNL     1      52.611  28.073  42.171  1.00  0.00    -0.340 N 
HETATM   13  C   UNL     1      52.648  33.413  39.878  1.00  0.00     0.190 C 
HETATM   14  C   UNL     1      51.923  27.644  37.043  1.00  0.00     0.190 C 
HETATM   15  C   UNL     1      51.821  28.324  43.394  1.00  0.00     0.190 C 
HETATM   16  C   UNL     1      50.142  31.360  41.978  1.00  0.00     0.227 C 
HETATM   17  C   UNL     1      53.609  31.125  37.128  1.00  0.00     0.227 C 
HETATM   18  C   UNL     1      53.396  26.559  40.334  1.00  0.00     0.227 C 
HETATM   19  C   UNL     1      50.768  32.116  40.810  1.00  0.00     0.250 C 
HETATM   20  C   UNL     1      53.454  32.317  39.202  1.00  0.00     0.283 C 
HETATM   21  C   UNL     1      52.597  29.995  37.336  1.00  0.00     0.250 C 
HETATM   22  C   UNL     1      52.385  26.893  41.441  1.00  0.00     0.250 C 
HETATM   23  C   UNL     1      50.957  29.582  43.356  1.00  0.00     0.283 C 
HETATM   24  C   UNL     1      51.980  26.915  38.384  1.00  0.00     0.283 C 
HETATM   25  C   UNL     1      52.674  32.834  42.332  1.00  0.00     0.153 C 
HETATM   26  C   UNL     1      54.269  28.321  36.416  1.00  0.00     0.153 C 
HETATM   27  C   UNL     1      53.719  28.984  41.882  1.00  0.00     0.153 C 
ENDROOT
BRANCH  17  28
HETATM   28  C   UNL     1      53.652  31.544  35.666  1.00  0.00     0.016 C 
HETATM   29  C   UNL     1      52.577  32.590  35.372  1.00  0.00     0.012 C 
HETATM   30  C   UNL     1      55.035  32.081  35.299  1.00  0.00     0.012 C 
ENDBRANCH  17  28
BRANCH  13  31
HETATM   31  C   UNL     1      53.544  34.606  40.194  1.00  0.00     0.014 C 
HETATM   32  C   UNL     1      54.640  34.728  39.134  1.00  0.00     0.012 C 
BRANCH  31  33
HETATM   33  C   UNL     1      52.695  35.885  40.306  1.00  0.00     0.002 C 
HETATM   34  C   UNL     1      53.422  37.144  39.855  1.00  0.00     0.005 C 
ENDBRANCH  31  33
ENDBRANCH  13  31
BRANCH  14  35
HETATM   35  C   UNL     1      51.952  26.626  35.903  1.00  0.00     0.010 C 
HETATM   36  C   UNL     1      52.277  25.231  36.433  1.00  0.00     0.012 C 
HETATM   37  C   UNL     1      50.620  26.616  35.154  1.00  0.00     0.012 C 
ENDBRANCH  14  35
BRANCH  16  38
HETATM   38  C   UNL     1      48.701  30.954  41.681  1.00  0.00     0.016 C 
HETATM   39  C   UNL     1      47.806  31.220  42.890  1.00  0.00     0.012 C 
HETATM   40  C   UNL     1      48.628  29.483  41.274  1.00  0.00     0.012 C 
ENDBRANCH  16  38
BRANCH  18  41
HETATM   41  C   UNL     1      53.568  25.055  40.125  1.00  0.00     0.016 C 
HETATM   42  C   UNL     1      53.902  24.365  41.445  1.00  0.00     0.012 C 
HETATM   43  C   UNL     1      54.651  24.778  39.085  1.00  0.00     0.012 C 
ENDBRANCH  18  41
BRANCH  15  44
HETATM   44  C   UNL     1      52.708  28.321  44.639  1.00  0.00     0.010 C 
HETATM   45  C   UNL     1      52.072  27.487  45.748  1.00  0.00     0.012 C 
HETATM   46  C   UNL     1      52.963  29.748  45.117  1.00  0.00     0.012 C 
ENDBRANCH  15  44
TORSDOF 7
ENDMDL
MODEL 8
REMARK VINA RESULT:    -4.754      2.171      8.517
REMARK INTER + INTRA:          -5.769
REMARK INTER:                  -6.475
REMARK INTRA:                   0.706
REMARK UNBOUND:                 0.930
REMARK  7 active torsions:
REMARK  status: ('A' for Active; 'I' for Inactive)
REMARK    1  A    between atoms: C_13  and  C_14 
REMARK    2  A    between atoms: C_14  and  C_19 
REMARK    3  A    between atoms: C_15  and  C_20 
REMARK    4  A    between atoms: C_16  and  C_21 
REMARK    5  A    between atoms: C_17  and  C_23 
REMARK    6  A    between atoms: C_18  and  C_26 
REMARK    7  A    between atoms: C_22  and  C_28 
ROOT
HETATM    1  O   UNL     1      54.830  32.474  37.788  1.00  0.00    -0.304 OA
HETATM    2  O   UNL     1      51.174  32.593  41.517  1.00  0.00    -0.304 OA
HETATM    3  O   UNL     1      52.720  28.356  40.105  1.00  0.00    -0.304 OA
HETATM    4  O   UNL     1      51.722  33.771  38.599  1.00  0.00    -0.270 OA
HETATM    5  O   UNL     1      55.182  32.166  40.046  1.00  0.00    -0.263 OA
HETATM    6  O   UNL     1      52.630  31.104  37.738  1.00  0.00    -0.270 OA
HETATM    7  O   UNL     1      50.280  28.653  42.218  1.00  0.00    -0.270 OA
HETATM    8  O   UNL     1      50.084  33.319  43.405  1.00  0.00    -0.263 OA
HETATM    9  O   UNL     1      50.608  27.757  39.411  1.00  0.00    -0.263 OA
HETATM   10  N   UNL     1      53.301  34.291  40.219  1.00  0.00    -0.340 N 
HETATM   11  N   UNL     1      53.584  28.998  37.706  1.00  0.00    -0.340 N 
HETATM   12  N   UNL     1      51.931  30.251  42.579  1.00  0.00    -0.340 N 
HETATM   13  C   UNL     1      54.375  34.303  39.205  1.00  0.00     0.190 C 
HETATM   14  C   UNL     1      52.246  28.370  37.751  1.00  0.00     0.190 C 
HETATM   15  C   UNL     1      51.043  31.101  43.399  1.00  0.00     0.190 C 
HETATM   16  C   UNL     1      50.913  33.843  40.849  1.00  0.00     0.227 C 
HETATM   17  C   UNL     1      55.012  31.066  37.520  1.00  0.00     0.227 C 
HETATM   18  C   UNL     1      52.492  28.062  41.495  1.00  0.00     0.227 C 
HETATM   19  C   UNL     1      52.002  33.966  39.788  1.00  0.00     0.250 C 
HETATM   20  C   UNL     1      54.857  32.866  39.095  1.00  0.00     0.283 C 
HETATM   21  C   UNL     1      53.642  30.398  37.668  1.00  0.00     0.250 C 
HETATM   22  C   UNL     1      51.458  29.010  42.120  1.00  0.00     0.250 C 
HETATM   23  C   UNL     1      50.719  32.465  42.795  1.00  0.00     0.283 C 
HETATM   24  C   UNL     1      51.749  28.139  39.176  1.00  0.00     0.283 C 
HETATM   25  C   UNL     1      53.667  34.581  41.609  1.00  0.00     0.153 C 
HETATM   26  C   UNL     1      54.755  28.118  37.741  1.00  0.00     0.153 C 
HETATM   27  C   UNL     1      53.328  30.667  42.440  1.00  0.00     0.153 C 
ENDROOT
BRANCH  17  28
HETATM   28  C   UNL     1      55.514  30.951  36.088  1.00  0.00     0.016 C 
HETATM   29  C   UNL     1      55.310  32.266  35.338  1.00  0.00     0.012 C 
HETATM   30  C   UNL     1      56.987  30.543  36.064  1.00  0.00     0.012 C 
ENDBRANCH  17  28
BRANCH  13  31
HETATM   31  C   UNL     1      55.551  35.232  39.489  1.00  0.00     0.014 C 
HETATM   32  C   UNL     1      56.698  34.929  38.523  1.00  0.00     0.012 C 
BRANCH  31  33
HETATM   33  C   UNL     1      55.092  36.699  39.408  1.00  0.00     0.002 C 
HETATM   34  C   UNL     1      56.228  37.704  39.541  1.00  0.00     0.005 C 
ENDBRANCH  31  33
ENDBRANCH  13  31
BRANCH  14  35
HETATM   35  C   UNL     1      52.150  27.069  36.955  1.00  0.00     0.010 C 
HETATM   36  C   UNL     1      51.841  25.892  37.878  1.00  0.00     0.012 C 
HETATM   37  C   UNL     1      51.088  27.182  35.861  1.00  0.00     0.012 C 
ENDBRANCH  14  35
BRANCH  16  38
HETATM   38  C   UNL     1      49.521  33.783  40.225  1.00  0.00     0.016 C 
HETATM   39  C   UNL     1      48.571  34.749  40.931  1.00  0.00     0.012 C 
HETATM   40  C   UNL     1      48.969  32.359  40.273  1.00  0.00     0.012 C 
ENDBRANCH  16  38
BRANCH  18  41
HETATM   41  C   UNL     1      52.151  26.588  41.716  1.00  0.00     0.016 C 
HETATM   42  C   UNL     1      51.916  26.309  43.198  1.00  0.00     0.012 C 
HETATM   43  C   UNL     1      53.262  25.693  41.170  1.00  0.00     0.012 C 
ENDBRANCH  18  41
BRANCH  15  44
HETATM   44  C   UNL     1      51.583  31.260  44.821  1.00  0.00     0.010 C 
HETATM   45  C   UNL     1      50.468  31.053  45.842  1.00  0.00     0.012 C 
HETATM   46  C   UNL     1      52.228  32.631  44.997  1.00  0.00     0.012 C 
ENDBRANCH  15  44
TORSDOF 7
ENDMDL
MODEL 9
REMARK VINA RESULT:    -4.703      2.696      4.500
REMARK INTER + INTRA:          -5.698
REMARK INTER:                  -6.646
REMARK INTRA:                   0.949
REMARK UNBOUND:                 0.930
REMARK  7 active torsions:
REMARK  status: ('A' for Active; 'I' for Inactive)
REMARK    1  A    between atoms: C_13  and  C_14 
REMARK    2  A    between atoms: C_14  and  C_19 
REMARK    3  A    between atoms: C_15  and  C_20 
REMARK    4  A    between atoms: C_16  and  C_21 
REMARK    5  A    between atoms: C_17  and  C_23 
REMARK    6  A    between atoms: C_18  and  C_26 
REMARK    7  A    between atoms: C_22  and  C_28 
ROOT
HETATM    1  O   UNL     1      49.560  29.290  42.710  1.00  0.00    -0.304 OA
HETATM    2  O   UNL     1      53.244  27.449  39.496  1.00  0.00    -0.304 OA
HETATM    3  O   UNL     1      53.200  32.100  40.337  1.00  0.00    -0.304 OA
HETATM    4  O   UNL     1      50.076  27.343  39.893  1.00  0.00    -0.270 OA
HETATM    5  O   UNL     1      51.773  28.925  43.247  1.00  0.00    -0.263 OA
HETATM    6  O   UNL     1      50.078  30.251  40.359  1.00  0.00    -0.270 OA
HETATM    7  O   UNL     1      55.233  30.785  38.181  1.00  0.00    -0.270 OA
HETATM    8  O   UNL     1      54.851  26.010  38.705  1.00  0.00    -0.263 OA
HETATM    9  O   UNL     1      52.855  32.554  38.106  1.00  0.00    -0.263 OA
HETATM   10  N   UNL     1      51.351  26.591  41.681  1.00  0.00    -0.340 N 
HETATM   11  N   UNL     1      50.679  32.382  41.029  1.00  0.00    -0.340 N 
HETATM   12  N   UNL     1      54.965  29.428  40.052  1.00  0.00    -0.340 N 
HETATM   13  C   UNL     1      50.330  27.062  42.640  1.00  0.00     0.190 C 
HETATM   14  C   UNL     1      50.998  32.751  39.633  1.00  0.00     0.190 C 
HETATM   15  C   UNL     1      55.512  28.238  39.367  1.00  0.00     0.190 C 
HETATM   16  C   UNL     1      52.222  26.447  39.331  1.00  0.00     0.227 C 
HETATM   17  C   UNL     1      49.754  30.721  42.683  1.00  0.00     0.227 C 
HETATM   18  C   UNL     1      54.620  31.906  40.215  1.00  0.00     0.227 C 
HETATM   19  C   UNL     1      51.120  26.831  40.314  1.00  0.00     0.250 C 
HETATM   20  C   UNL     1      50.666  28.517  42.920  1.00  0.00     0.283 C 
HETATM   21  C   UNL     1      50.185  31.090  41.261  1.00  0.00     0.250 C 
HETATM   22  C   UNL     1      54.959  30.662  39.379  1.00  0.00     0.250 C 
HETATM   23  C   UNL     1      54.517  27.099  39.161  1.00  0.00     0.283 C 
HETATM   24  C   UNL     1      52.447  32.445  39.257  1.00  0.00     0.283 C 
HETATM   25  C   UNL     1      52.549  25.941  42.220  1.00  0.00     0.153 C 
HETATM   26  C   UNL     1      50.933  33.376  42.075  1.00  0.00     0.153 C 
HETATM   27  C   UNL     1      54.622  29.296  41.468  1.00  0.00     0.153 C 
ENDROOT
BRANCH  17  28
HETATM   28  C   UNL     1      48.412  31.355  43.019  1.00  0.00     0.016 C 
HETATM   29  C   UNL     1      47.405  31.111  41.896  1.00  0.00     0.012 C 
HETATM   30  C   UNL     1      47.877  30.815  44.344  1.00  0.00     0.012 C 
ENDBRANCH  17  28
BRANCH  13  31
HETATM   31  C   UNL     1      50.232  26.283  43.947  1.00  0.00     0.014 C 
HETATM   32  C   UNL     1      49.534  27.135  45.008  1.00  0.00     0.012 C 
BRANCH  31  33
HETATM   33  C   UNL     1      49.513  24.944  43.707  1.00  0.00     0.002 C 
HETATM   34  C   UNL     1      50.262  23.739  44.258  1.00  0.00     0.005 C 
ENDBRANCH  31  33
ENDBRANCH  13  31
BRANCH  14  35
HETATM   35  C   UNL     1      50.674  34.205  39.290  1.00  0.00     0.010 C 
HETATM   36  C   UNL     1      51.890  35.099  39.523  1.00  0.00     0.012 C 
HETATM   37  C   UNL     1      50.190  34.325  37.845  1.00  0.00     0.012 C 
ENDBRANCH  14  35
BRANCH  16  38
HETATM   38  C   UNL     1      51.728  26.484  37.887  1.00  0.00     0.016 C 
HETATM   39  C   UNL     1      52.190  25.243  37.126  1.00  0.00     0.012 C 
HETATM   40  C   UNL     1      52.211  27.752  37.185  1.00  0.00     0.012 C 
ENDBRANCH  16  38
BRANCH  18  41
HETATM   41  C   UNL     1      55.325  33.165  39.713  1.00  0.00     0.016 C 
HETATM   42  C   UNL     1      56.817  32.903  39.517  1.00  0.00     0.012 C 
HETATM   43  C   UNL     1      55.106  34.325  40.681  1.00  0.00     0.012 C 
ENDBRANCH  18  41
BRANCH  15  44
HETATM   44  C   UNL     1      56.774  27.728  40.064  1.00  0.00     0.010 C 
HETATM   45  C   UNL     1      57.648  28.896  40.511  1.00  0.00     0.012 C 
HETATM   46  C   UNL     1      57.552  26.795  39.141  1.00  0.00     0.012 C 
ENDBRANCH  15  44
TORSDOF 7
ENDMDL
MODEL 10
REMARK VINA RESULT:    -4.662      4.819      9.965
REMARK INTER + INTRA:          -5.639
REMARK INTER:                  -6.910
REMARK INTRA:                   1.270
REMARK UNBOUND:                 0.930
REMARK  7 active torsions:
REMARK  status: ('A' for Active; 'I' for Inactive)
REMARK    1  A    between atoms: C_13  and  C_14 
REMARK    2  A    between atoms: C_14  and  C_19 
REMARK    3  A    between atoms: C_15  and  C_20 
REMARK    4  A    between atoms: C_16  and  C_21 
REMARK    5  A    between atoms: C_17  and  C_23 
REMARK    6  A    between atoms: C_18  and  C_26 
REMARK    7  A    between atoms: C_22  and  C_28 
ROOT
HETATM    1  O   UNL     1      51.672  32.136  46.383  1.00  0.00    -0.304 OA
HETATM    2  O   UNL     1      48.652  27.887  46.030  1.00  0.00    -0.304 OA
HETATM    3  O   UNL     1      50.932  29.282  42.131  1.00  0.00    -0.304 OA
HETATM    4  O   UNL     1      48.493  30.918  47.026  1.00  0.00    -0.270 OA
HETATM    5  O   UNL     1      52.400  29.948  46.372  1.00  0.00    -0.263 OA
HETATM    6  O   UNL     1      49.869  31.758  44.560  1.00  0.00    -0.270 OA
HETATM    7  O   UNL     1      48.812  26.830  42.072  1.00  0.00    -0.270 OA
HETATM    8  O   UNL     1      47.700  25.896  46.666  1.00  0.00    -0.263 OA
HETATM    9  O   UNL     1      48.942  29.597  41.016  1.00  0.00    -0.263 OA
HETATM   10  N   UNL     1      50.119  29.601  48.031  1.00  0.00    -0.340 N 
HETATM   11  N   UNL     1      51.275  31.820  42.725  1.00  0.00    -0.340 N 
HETATM   12  N   UNL     1      50.079  26.826  44.023  1.00  0.00    -0.340 N 
HETATM   13  C   UNL     1      51.007  30.771  48.189  1.00  0.00     0.190 C 
HETATM   14  C   UNL     1      50.141  31.528  41.822  1.00  0.00     0.190 C 
HETATM   15  C   UNL     1      49.141  25.927  44.726  1.00  0.00     0.190 C 
HETATM   16  C   UNL     1      48.015  28.576  47.123  1.00  0.00     0.227 C 
HETATM   17  C   UNL     1      52.139  32.347  45.033  1.00  0.00     0.227 C 
HETATM   18  C   UNL     1      50.977  27.859  41.923  1.00  0.00     0.227 C 
HETATM   19  C   UNL     1      48.885  29.802  47.387  1.00  0.00     0.250 C 
HETATM   20  C   UNL     1      51.791  30.873  46.891  1.00  0.00     0.283 C 
HETATM   21  C   UNL     1      50.998  31.947  44.094  1.00  0.00     0.250 C 
HETATM   22  C   UNL     1      49.848  27.133  42.671  1.00  0.00     0.250 C 
HETATM   23  C   UNL     1      48.425  26.549  45.922  1.00  0.00     0.283 C 
HETATM   24  C   UNL     1      49.918  30.031  41.619  1.00  0.00     0.283 C 
HETATM   25  C   UNL     1      50.599  28.305  48.522  1.00  0.00     0.153 C 
HETATM   26  C   UNL     1      52.612  31.920  42.135  1.00  0.00     0.153 C 
HETATM   27  C   UNL     1      51.305  27.209  44.725  1.00  0.00     0.153 C 
ENDROOT
BRANCH  17  28
HETATM   28  C   UNL     1      52.447  33.832  44.901  1.00  0.00     0.016 C 
HETATM   29  C   UNL     1      51.822  34.617  46.053  1.00  0.00     0.012 C 
HETATM   30  C   UNL     1      53.956  34.067  44.850  1.00  0.00     0.012 C 
ENDBRANCH  17  28
BRANCH  13  31
HETATM   31  C   UNL     1      51.960  30.731  49.378  1.00  0.00     0.014 C 
HETATM   32  C   UNL     1      53.134  31.681  49.135  1.00  0.00     0.012 C 
BRANCH  31  33
HETATM   33  C   UNL     1      51.198  31.064  50.673  1.00  0.00     0.002 C 
HETATM   34  C   UNL     1      50.191  32.195  50.518  1.00  0.00     0.005 C 
ENDBRANCH  31  33
ENDBRANCH  13  31
BRANCH  14  35
HETATM   35  C   UNL     1      50.241  32.223  40.465  1.00  0.00     0.010 C 
HETATM   36  C   UNL     1      50.623  31.225  39.374  1.00  0.00     0.012 C 
HETATM   37  C   UNL     1      48.924  32.918  40.116  1.00  0.00     0.012 C 
ENDBRANCH  14  35
BRANCH  16  38
HETATM   38  C   UNL     1      46.602  28.968  46.698  1.00  0.00     0.016 C 
HETATM   39  C   UNL     1      46.644  30.001  45.573  1.00  0.00     0.012 C 
HETATM   40  C   UNL     1      45.810  29.506  47.889  1.00  0.00     0.012 C 
ENDBRANCH  16  38
BRANCH  18  41
HETATM   41  C   UNL     1      51.025  27.503  40.438  1.00  0.00     0.016 C 
HETATM   42  C   UNL     1      51.031  25.988  40.249  1.00  0.00     0.012 C 
HETATM   43  C   UNL     1      52.249  28.131  39.775  1.00  0.00     0.012 C 
ENDBRANCH  18  41
BRANCH  15  44
HETATM   44  C   UNL     1      49.823  24.619  45.131  1.00  0.00     0.010 C 
HETATM   45  C   UNL     1      50.564  24.013  43.943  1.00  0.00     0.012 C 
HETATM   46  C   UNL     1      48.800  23.634  45.689  1.00  0.00     0.012 C 
ENDBRANCH  15  44
TORSDOF 7
ENDMDL
MODEL 11
REMARK VINA RESULT:    -4.639      2.686      7.407
REMARK INTER + INTRA:          -5.608
REMARK INTER:                  -6.460
REMARK INTRA:                   0.852
REMARK UNBOUND:                 0.930
REMARK  7 active torsions:
REMARK  status: ('A' for Active; 'I' for Inactive)
REMARK    1  A    between atoms: C_13  and  C_14 
REMARK    2  A    between atoms: C_14  and  C_19 
REMARK    3  A    between atoms: C_15  and  C_20 
REMARK    4  A    between atoms: C_16  and  C_21 
REMARK    5  A    between atoms: C_17  and  C_23 
REMARK    6  A    between atoms: C_18  and  C_26 
REMARK    7  A    between atoms: C_22  and  C_28 
ROOT
HETATM    1  O   UNL     1      50.355  28.278  43.559  1.00  0.00    -0.304 OA
HETATM    2  O   UNL     1      52.321  32.739  41.682  1.00  0.00    -0.304 OA
HETATM    3  O   UNL     1      52.058  29.053  38.734  1.00  0.00    -0.304 OA
HETATM    4  O   UNL     1      52.713  30.745  44.147  1.00  0.00    -0.270 OA
HETATM    5  O   UNL     1      49.248  29.793  42.218  1.00  0.00    -0.263 OA
HETATM    6  O   UNL     1      52.598  28.473  42.275  1.00  0.00    -0.270 OA
HETATM    7  O   UNL     1      53.477  31.831  37.854  1.00  0.00    -0.270 OA
HETATM    8  O   UNL     1      52.519  35.004  41.352  1.00  0.00    -0.263 OA
HETATM    9  O   UNL     1      54.341  29.058  38.440  1.00  0.00    -0.263 OA
HETATM   10  N   UNL     1      50.591  31.651  43.899  1.00  0.00    -0.340 N 
HETATM   11  N   UNL     1      52.050  27.101  40.496  1.00  0.00    -0.340 N 
HETATM   12  N   UNL     1      51.588  32.205  39.159  1.00  0.00    -0.340 N 
HETATM   13  C   UNL     1      49.975  30.428  44.452  1.00  0.00     0.190 C 
HETATM   14  C   UNL     1      53.356  27.374  39.858  1.00  0.00     0.190 C 
HETATM   15  C   UNL     1      51.974  33.599  39.463  1.00  0.00     0.190 C 
HETATM   16  C   UNL     1      52.619  32.887  43.084  1.00  0.00     0.227 C 
HETATM   17  C   UNL     1      50.497  27.345  42.465  1.00  0.00     0.227 C 
HETATM   18  C   UNL     1      51.801  30.112  37.795  1.00  0.00     0.227 C 
HETATM   19  C   UNL     1      51.990  31.670  43.758  1.00  0.00     0.250 C 
HETATM   20  C   UNL     1      49.790  29.488  43.273  1.00  0.00     0.283 C 
HETATM   21  C   UNL     1      51.801  27.694  41.742  1.00  0.00     0.250 C 
HETATM   22  C   UNL     1      52.378  31.454  38.272  1.00  0.00     0.250 C 
HETATM   23  C   UNL     1      52.288  33.875  40.931  1.00  0.00     0.283 C 
HETATM   24  C   UNL     1      53.323  28.597  38.944  1.00  0.00     0.283 C 
HETATM   25  C   UNL     1      49.700  32.746  43.500  1.00  0.00     0.153 C 
HETATM   26  C   UNL     1      51.094  26.262  39.768  1.00  0.00     0.153 C 
HETATM   27  C   UNL     1      50.295  31.736  39.660  1.00  0.00     0.153 C 
ENDROOT
BRANCH  17  28
HETATM   28  C   UNL     1      50.579  25.955  43.080  1.00  0.00     0.016 C 
HETATM   29  C   UNL     1      50.952  26.041  44.560  1.00  0.00     0.012 C 
HETATM   30  C   UNL     1      49.258  25.208  42.904  1.00  0.00     0.012 C 
ENDBRANCH  17  28
BRANCH  13  31
HETATM   31  C   UNL     1      48.653  30.619  45.187  1.00  0.00     0.014 C 
HETATM   32  C   UNL     1      48.018  29.257  45.475  1.00  0.00     0.012 C 
BRANCH  31  33
HETATM   33  C   UNL     1      48.878  31.441  46.468  1.00  0.00     0.002 C 
HETATM   34  C   UNL     1      48.453  30.721  47.740  1.00  0.00     0.005 C 
ENDBRANCH  31  33
ENDBRANCH  13  31
BRANCH  14  35
HETATM   35  C   UNL     1      53.932  26.179  39.100  1.00  0.00     0.010 C 
HETATM   36  C   UNL     1      53.888  26.424  37.593  1.00  0.00     0.012 C 
HETATM   37  C   UNL     1      55.364  25.891  39.553  1.00  0.00     0.012 C 
ENDBRANCH  14  35
BRANCH  16  38
HETATM   38  C   UNL     1      54.135  32.911  43.263  1.00  0.00     0.016 C 
HETATM   39  C   UNL     1      54.602  34.293  43.716  1.00  0.00     0.012 C 
HETATM   40  C   UNL     1      54.837  32.505  41.969  1.00  0.00     0.012 C 
ENDBRANCH  16  38
BRANCH  18  41
HETATM   41  C   UNL     1      52.254  29.743  36.383  1.00  0.00     0.016 C 
HETATM   42  C   UNL     1      51.929  30.869  35.404  1.00  0.00     0.012 C 
HETATM   43  C   UNL     1      51.601  28.437  35.935  1.00  0.00     0.012 C 
ENDBRANCH  18  41
BRANCH  15  44
HETATM   44  C   UNL     1      50.932  34.590  38.943  1.00  0.00     0.010 C 
HETATM   45  C   UNL     1      49.691  34.576  39.830  1.00  0.00     0.012 C 
HETATM   46  C   UNL     1      50.565  34.268  37.497  1.00  0.00     0.012 C 
ENDBRANCH  15  44
TORSDOF 7
ENDMDL
MODEL 12
REMARK VINA RESULT:    -4.553      4.374      9.245
REMARK INTER + INTRA:          -5.486
REMARK INTER:                  -6.696
REMARK INTRA:                   1.210
REMARK UNBOUND:                 0.930
REMARK  7 active torsions:
REMARK  status: ('A' for Active; 'I' for Inactive)
REMARK    1  A    between atoms: C_13  and  C_14 
REMARK    2  A    between atoms: C_14  and  C_19 
REMARK    3  A    between atoms: C_15  and  C_20 
REMARK    4  A    between atoms: C_16  and  C_21 
REMARK    5  A    between atoms: C_17  and  C_23 
REMARK    6  A    between atoms: C_18  and  C_26 
REMARK    7  A    between atoms: C_22  and  C_28 
ROOT
HETATM    1  O   UNL     1      51.335  27.950  41.156  1.00  0.00    -0.304 OA
HETATM    2  O   UNL     1      51.443  24.539  45.112  1.00  0.00    -0.304 OA
HETATM    3  O   UNL     1      48.510  28.227  45.482  1.00  0.00    -0.304 OA
HETATM    4  O   UNL     1      53.445  26.302  43.354  1.00  0.00    -0.270 OA
HETATM    5  O   UNL     1      49.776  26.303  41.573  1.00  0.00    -0.263 OA
HETATM    6  O   UNL     1      51.620  28.596  43.649  1.00  0.00    -0.270 OA
HETATM    7  O   UNL     1      48.922  26.136  47.924  1.00  0.00    -0.270 OA
HETATM    8  O   UNL     1      51.537  22.495  46.156  1.00  0.00    -0.263 OA
HETATM    9  O   UNL     1      49.596  28.969  47.372  1.00  0.00    -0.263 OA
HETATM   10  N   UNL     1      52.113  24.805  42.184  1.00  0.00    -0.340 N 
HETATM   11  N   UNL     1      49.716  29.895  43.845  1.00  0.00    -0.340 N 
HETATM   12  N   UNL     1      48.923  25.061  45.860  1.00  0.00    -0.340 N 
HETATM   13  C   UNL     1      52.071  25.713  41.019  1.00  0.00     0.190 C 
HETATM   14  C   UNL     1      49.988  30.109  45.283  1.00  0.00     0.190 C 
HETATM   15  C   UNL     1      49.543  23.837  46.407  1.00  0.00     0.190 C 
HETATM   16  C   UNL     1      52.765  24.355  44.566  1.00  0.00     0.227 C 
HETATM   17  C   UNL     1      50.434  28.983  41.608  1.00  0.00     0.227 C 
HETATM   18  C   UNL     1      47.718  27.238  46.163  1.00  0.00     0.227 C 
HETATM   19  C   UNL     1      52.812  25.241  43.324  1.00  0.00     0.250 C 
HETATM   20  C   UNL     1      50.908  26.658  41.273  1.00  0.00     0.283 C 
HETATM   21  C   UNL     1      50.643  29.134  43.118  1.00  0.00     0.250 C 
HETATM   22  C   UNL     1      48.582  26.106  46.737  1.00  0.00     0.250 C 
HETATM   23  C   UNL     1      50.941  23.530  45.876  1.00  0.00     0.283 C 
HETATM   24  C   UNL     1      49.363  29.035  46.169  1.00  0.00     0.283 C 
HETATM   25  C   UNL     1      51.394  23.531  42.085  1.00  0.00     0.153 C 
HETATM   26  C   UNL     1      48.484  30.458  43.289  1.00  0.00     0.153 C 
HETATM   27  C   UNL     1      48.527  25.049  44.451  1.00  0.00     0.153 C 
ENDROOT
BRANCH  17  28
HETATM   28  C   UNL     1      50.827  30.261  40.881  1.00  0.00     0.016 C 
HETATM   29  C   UNL     1      52.209  30.733  41.331  1.00  0.00     0.012 C 
HETATM   30  C   UNL     1      50.800  30.051  39.368  1.00  0.00     0.012 C 
ENDBRANCH  17  28
BRANCH  13  31
HETATM   31  C   UNL     1      51.918  25.045  39.657  1.00  0.00     0.014 C 
HETATM   32  C   UNL     1      51.616  26.101  38.591  1.00  0.00     0.012 C 
BRANCH  31  33
HETATM   33  C   UNL     1      53.181  24.228  39.328  1.00  0.00     0.002 C 
HETATM   34  C   UNL     1      52.888  22.881  38.683  1.00  0.00     0.005 C 
ENDBRANCH  31  33
ENDBRANCH  13  31
BRANCH  14  35
HETATM   35  C   UNL     1      49.579  31.494  45.786  1.00  0.00     0.010 C 
HETATM   36  C   UNL     1      48.652  31.377  46.994  1.00  0.00     0.012 C 
HETATM   37  C   UNL     1      50.812  32.326  46.138  1.00  0.00     0.012 C 
ENDBRANCH  14  35
BRANCH  16  38
HETATM   38  C   UNL     1      53.790  24.791  45.609  1.00  0.00     0.016 C 
HETATM   39  C   UNL     1      54.578  23.588  46.126  1.00  0.00     0.012 C 
HETATM   40  C   UNL     1      53.107  25.521  46.764  1.00  0.00     0.012 C 
ENDBRANCH  16  38
BRANCH  18  41
HETATM   41  C   UNL     1      46.800  27.868  47.210  1.00  0.00     0.016 C 
HETATM   42  C   UNL     1      45.801  26.840  47.736  1.00  0.00     0.012 C 
HETATM   43  C   UNL     1      46.070  29.076  46.626  1.00  0.00     0.012 C 
ENDBRANCH  18  41
BRANCH  15  44
HETATM   44  C   UNL     1      48.627  22.625  46.234  1.00  0.00     0.010 C 
HETATM   45  C   UNL     1      47.410  22.740  47.148  1.00  0.00     0.012 C 
HETATM   46  C   UNL     1      49.391  21.334  46.513  1.00  0.00     0.012 C 
ENDBRANCH  15  44
TORSDOF 7
ENDMDL
MODEL 13
REMARK VINA RESULT:    -4.518      6.167     11.140
REMARK INTER + INTRA:          -5.437
REMARK INTER:                  -6.143
REMARK INTRA:                   0.706
REMARK UNBOUND:                 0.930
REMARK  7 active torsions:
REMARK  status: ('A' for Active; 'I' for Inactive)
REMARK    1  A    between atoms: C_13  and  C_14 
REMARK    2  A    between atoms: C_14  and  C_19 
REMARK    3  A    between atoms: C_15  and  C_20 
REMARK    4  A    between atoms: C_16  and  C_21 
REMARK    5  A    between atoms: C_17  and  C_23 
REMARK    6  A    between atoms: C_18  and  C_26 
REMARK    7  A    between atoms: C_22  and  C_28 
ROOT
HETATM    1  O   UNL     1      50.496  31.379  48.479  1.00  0.00    -0.304 OA
HETATM    2  O   UNL     1      48.027  26.894  47.438  1.00  0.00    -0.304 OA
HETATM    3  O   UNL     1      50.573  28.847  43.967  1.00  0.00    -0.304 OA
HETATM    4  O   UNL     1      47.419  29.795  48.630  1.00  0.00    -0.270 OA
HETATM    5  O   UNL     1      51.459  29.285  48.395  1.00  0.00    -0.263 OA
HETATM    6  O   UNL     1      48.968  30.982  46.423  1.00  0.00    -0.270 OA
HETATM    7  O   UNL     1      48.760  26.207  43.463  1.00  0.00    -0.270 OA
HETATM    8  O   UNL     1      47.234  24.769  47.801  1.00  0.00    -0.263 OA
HETATM    9  O   UNL     1      48.703  29.055  42.641  1.00  0.00    -0.263 OA
HETATM   10  N   UNL     1      49.053  28.566  49.728  1.00  0.00    -0.340 N 
HETATM   11  N   UNL     1      50.562  31.345  44.787  1.00  0.00    -0.340 N 
HETATM   12  N   UNL     1      49.784  26.162  45.551  1.00  0.00    -0.340 N 
HETATM   13  C   UNL     1      49.782  29.802  50.081  1.00  0.00     0.190 C 
HETATM   14  C   UNL     1      49.579  31.020  43.731  1.00  0.00     0.190 C 
HETATM   15  C   UNL     1      48.877  25.114  46.063  1.00  0.00     0.190 C 
HETATM   16  C   UNL     1      47.195  27.417  48.492  1.00  0.00     0.227 C 
HETATM   17  C   UNL     1      51.089  31.754  47.217  1.00  0.00     0.227 C 
HETATM   18  C   UNL     1      50.799  27.459  43.661  1.00  0.00     0.227 C 
HETATM   19  C   UNL     1      47.887  28.697  48.952  1.00  0.00     0.250 C 
HETATM   20  C   UNL     1      50.694  30.096  48.902  1.00  0.00     0.283 C 
HETATM   21  C   UNL     1      50.116  31.323  46.116  1.00  0.00     0.250 C 
HETATM   22  C   UNL     1      49.679  26.561  44.207  1.00  0.00     0.250 C 
HETATM   23  C   UNL     1      47.963  25.554  47.204  1.00  0.00     0.283 C 
HETATM   24  C   UNL     1      49.549  29.531  43.390  1.00  0.00     0.283 C 
HETATM   25  C   UNL     1      49.614  27.288  50.177  1.00  0.00     0.153 C 
HETATM   26  C   UNL     1      51.939  31.631  44.377  1.00  0.00     0.153 C 
HETATM   27  C   UNL     1      50.871  26.604  46.426  1.00  0.00     0.153 C 
ENDROOT
BRANCH  17  28
HETATM   28  C   UNL     1      51.244  33.267  47.235  1.00  0.00     0.016 C 
HETATM   29  C   UNL     1      50.440  33.878  48.382  1.00  0.00     0.012 C 
HETATM   30  C   UNL     1      52.717  33.658  47.348  1.00  0.00     0.012 C 
ENDBRANCH  17  28
BRANCH  13  31
HETATM   31  C   UNL     1      50.590  29.755  51.374  1.00  0.00     0.014 C 
HETATM   32  C   UNL     1      51.718  30.787  51.319  1.00  0.00     0.012 C 
BRANCH  31  33
HETATM   33  C   UNL     1      49.661  29.969  52.582  1.00  0.00     0.002 C 
HETATM   34  C   UNL     1      48.565  30.996  52.337  1.00  0.00     0.005 C 
ENDBRANCH  31  33
ENDBRANCH  13  31
BRANCH  14  35
HETATM   35  C   UNL     1      49.757  31.837  42.452  1.00  0.00     0.010 C 
HETATM   36  C   UNL     1      50.213  30.944  41.299  1.00  0.00     0.012 C 
HETATM   37  C   UNL     1      48.460  32.560  42.088  1.00  0.00     0.012 C 
ENDBRANCH  14  35
BRANCH  16  38
HETATM   38  C   UNL     1      45.806  27.700  47.925  1.00  0.00     0.016 C 
HETATM   39  C   UNL     1      44.786  26.704  48.475  1.00  0.00     0.012 C 
HETATM   40  C   UNL     1      45.828  27.654  46.398  1.00  0.00     0.012 C 
ENDBRANCH  16  38
BRANCH  18  41
HETATM   41  C   UNL     1      51.058  27.241  42.171  1.00  0.00     0.016 C 
HETATM   42  C   UNL     1      51.261  25.757  41.873  1.00  0.00     0.012 C 
HETATM   43  C   UNL     1      52.268  28.051  41.712  1.00  0.00     0.012 C 
ENDBRANCH  18  41
BRANCH  15  44
HETATM   44  C   UNL     1      49.649  23.852  46.451  1.00  0.00     0.010 C 
HETATM   45  C   UNL     1      50.524  24.115  47.673  1.00  0.00     0.012 C 
HETATM   46  C   UNL     1      50.493  23.361  45.279  1.00  0.00     0.012 C 
ENDBRANCH  15  44
TORSDOF 7
ENDMDL
MODEL 14
REMARK VINA RESULT:    -4.493      5.612      8.771
REMARK INTER + INTRA:          -5.402
REMARK INTER:                  -6.371
REMARK INTRA:                   0.969
REMARK UNBOUND:                 0.930
REMARK  7 active torsions:
REMARK  status: ('A' for Active; 'I' for Inactive)
REMARK    1  A    between atoms: C_13  and  C_14 
REMARK    2  A    between atoms: C_14  and  C_19 
REMARK    3  A    between atoms: C_15  and  C_20 
REMARK    4  A    between atoms: C_16  and  C_21 
REMARK    5  A    between atoms: C_17  and  C_23 
REMARK    6  A    between atoms: C_18  and  C_26 
REMARK    7  A    between atoms: C_22  and  C_28 
ROOT
HETATM    1  O   UNL     1      50.050  24.844  45.424  1.00  0.00    -0.304 OA
HETATM    2  O   UNL     1      50.541  29.859  44.048  1.00  0.00    -0.304 OA
HETATM    3  O   UNL     1      48.898  28.930  48.382  1.00  0.00    -0.304 OA
HETATM    4  O   UNL     1      49.239  27.149  42.969  1.00  0.00    -0.270 OA
HETATM    5  O   UNL     1      51.747  26.268  46.062  1.00  0.00    -0.263 OA
HETATM    6  O   UNL     1      48.186  26.627  45.670  1.00  0.00    -0.270 OA
HETATM    7  O   UNL     1      49.040  31.959  47.234  1.00  0.00    -0.270 OA
HETATM    8  O   UNL     1      51.492  31.720  43.093  1.00  0.00    -0.263 OA
HETATM    9  O   UNL     1      46.917  30.007  47.919  1.00  0.00    -0.263 OA
HETATM   10  N   UNL     1      51.528  27.096  43.352  1.00  0.00    -0.340 N 
HETATM   11  N   UNL     1      47.956  26.511  47.969  1.00  0.00    -0.340 N 
HETATM   12  N   UNL     1      50.880  30.700  46.571  1.00  0.00    -0.340 N 
HETATM   13  C   UNL     1      51.460  25.667  43.722  1.00  0.00     0.190 C 
HETATM   14  C   UNL     1      46.952  27.595  47.942  1.00  0.00     0.190 C 
HETATM   15  C   UNL     1      51.242  31.646  45.496  1.00  0.00     0.190 C 
HETATM   16  C   UNL     1      50.374  29.244  42.755  1.00  0.00     0.227 C 
HETATM   17  C   UNL     1      49.448  24.897  46.736  1.00  0.00     0.227 C 
HETATM   18  C   UNL     1      49.637  30.131  48.672  1.00  0.00     0.227 C 
HETATM   19  C   UNL     1      50.322  27.743  43.029  1.00  0.00     0.250 C 
HETATM   20  C   UNL     1      51.138  25.639  45.207  1.00  0.00     0.283 C 
HETATM   21  C   UNL     1      48.483  26.085  46.740  1.00  0.00     0.250 C 
HETATM   22  C   UNL     1      49.810  31.013  47.427  1.00  0.00     0.250 C 
HETATM   23  C   UNL     1      51.125  31.089  44.080  1.00  0.00     0.283 C 
HETATM   24  C   UNL     1      47.577  28.983  48.061  1.00  0.00     0.283 C 
HETATM   25  C   UNL     1      52.840  27.750  43.383  1.00  0.00     0.153 C 
HETATM   26  C   UNL     1      48.358  25.981  49.274  1.00  0.00     0.153 C 
HETATM   27  C   UNL     1      51.774  29.564  46.803  1.00  0.00     0.153 C 
ENDROOT
BRANCH  17  28
HETATM   28  C   UNL     1      48.693  23.590  46.928  1.00  0.00     0.016 C 
HETATM   29  C   UNL     1      48.867  22.683  45.711  1.00  0.00     0.012 C 
HETATM   30  C   UNL     1      49.161  22.878  48.197  1.00  0.00     0.012 C 
ENDBRANCH  17  28
BRANCH  13  31
HETATM   31  C   UNL     1      52.711  24.843  43.438  1.00  0.00     0.014 C 
HETATM   32  C   UNL     1      52.851  23.735  44.482  1.00  0.00     0.012 C 
BRANCH  31  33
HETATM   33  C   UNL     1      52.661  24.290  42.002  1.00  0.00     0.002 C 
HETATM   34  C   UNL     1      51.251  24.175  41.439  1.00  0.00     0.005 C 
ENDBRANCH  31  33
ENDBRANCH  13  31
BRANCH  14  35
HETATM   35  C   UNL     1      45.847  27.437  48.987  1.00  0.00     0.010 C 
HETATM   36  C   UNL     1      45.445  28.796  49.558  1.00  0.00     0.012 C 
HETATM   37  C   UNL     1      44.633  26.729  48.387  1.00  0.00     0.012 C 
ENDBRANCH  14  35
BRANCH  16  38
HETATM   38  C   UNL     1      49.073  29.750  42.137  1.00  0.00     0.016 C 
HETATM   39  C   UNL     1      49.358  30.581  40.887  1.00  0.00     0.012 C 
HETATM   40  C   UNL     1      48.275  30.567  43.152  1.00  0.00     0.012 C 
ENDBRANCH  16  38
BRANCH  18  41
HETATM   41  C   UNL     1      49.043  30.891  49.857  1.00  0.00     0.016 C 
HETATM   42  C   UNL     1      49.997  31.989  50.322  1.00  0.00     0.012 C 
HETATM   43  C   UNL     1      48.725  29.934  51.003  1.00  0.00     0.012 C 
ENDBRANCH  18  41
BRANCH  15  44
HETATM   44  C   UNL     1      52.633  32.241  45.724  1.00  0.00     0.010 C 
HETATM   45  C   UNL     1      52.606  33.754  45.525  1.00  0.00     0.012 C 
HETATM   46  C   UNL     1      53.650  31.592  44.790  1.00  0.00     0.012 C 
ENDBRANCH  15  44
TORSDOF 7
ENDMDL
MODEL 15
REMARK VINA RESULT:    -4.439      3.458      9.579
REMARK INTER + INTRA:          -5.326
REMARK INTER:                  -6.286
REMARK INTRA:                   0.961
REMARK UNBOUND:                 0.930
REMARK  7 active torsions:
REMARK  status: ('A' for Active; 'I' for Inactive)
REMARK    1  A    between atoms: C_13  and  C_14 
REMARK    2  A    between atoms: C_14  and  C_19 
REMARK    3  A    between atoms: C_15  and  C_20 
REMARK    4  A    between atoms: C_16  and  C_21 
REMARK    5  A    between atoms: C_17  and  C_23 
REMARK    6  A    between atoms: C_18  and  C_26 
REMARK    7  A    between atoms: C_22  and  C_28 
ROOT
HETATM    1  O   UNL     1      57.110  34.961  39.633  1.00  0.00    -0.304 OA
HETATM    2  O   UNL     1      52.032  35.153  40.844  1.00  0.00    -0.304 OA
HETATM    3  O   UNL     1      53.597  31.309  38.582  1.00  0.00    -0.304 OA
HETATM    4  O   UNL     1      54.264  36.920  39.395  1.00  0.00    -0.270 OA
HETATM    5  O   UNL     1      56.088  33.864  41.385  1.00  0.00    -0.263 OA
HETATM    6  O   UNL     1      55.180  34.515  37.962  1.00  0.00    -0.270 OA
HETATM    7  O   UNL     1      50.446  31.748  39.200  1.00  0.00    -0.270 OA
HETATM    8  O   UNL     1      50.161  35.580  42.107  1.00  0.00    -0.263 OA
HETATM    9  O   UNL     1      52.192  31.718  36.805  1.00  0.00    -0.263 OA
HETATM   10  N   UNL     1      54.701  36.335  41.598  1.00  0.00    -0.340 N 
HETATM   11  N   UNL     1      55.732  32.331  37.436  1.00  0.00    -0.340 N 
HETATM   12  N   UNL     1      51.779  32.487  40.957  1.00  0.00    -0.340 N 
HETATM   13  C   UNL     1      56.153  36.296  41.326  1.00  0.00     0.190 C 
HETATM   14  C   UNL     1      54.539  32.219  36.569  1.00  0.00     0.190 C 
HETATM   15  C   UNL     1      50.690  33.288  41.553  1.00  0.00     0.190 C 
HETATM   16  C   UNL     1      52.341  36.559  40.772  1.00  0.00     0.227 C 
HETATM   17  C   UNL     1      57.245  33.734  38.882  1.00  0.00     0.227 C 
HETATM   18  C   UNL     1      52.593  30.693  39.407  1.00  0.00     0.227 C 
HETATM   19  C   UNL     1      53.845  36.626  40.520  1.00  0.00     0.250 C 
HETATM   20  C   UNL     1      56.441  34.891  40.821  1.00  0.00     0.283 C 
HETATM   21  C   UNL     1      55.964  33.565  38.061  1.00  0.00     0.250 C 
HETATM   22  C   UNL     1      51.506  31.692  39.831  1.00  0.00     0.250 C 
HETATM   23  C   UNL     1      50.925  34.796  41.552  1.00  0.00     0.283 C 
HETATM   24  C   UNL     1      53.302  31.739  37.325  1.00  0.00     0.283 C 
HETATM   25  C   UNL     1      54.251  36.034  42.960  1.00  0.00     0.153 C 
HETATM   26  C   UNL     1      56.567  31.141  37.611  1.00  0.00     0.153 C 
HETATM   27  C   UNL     1      53.048  32.422  41.684  1.00  0.00     0.153 C 
ENDROOT
BRANCH  17  28
HETATM   28  C   UNL     1      58.450  33.907  37.969  1.00  0.00     0.016 C 
HETATM   29  C   UNL     1      58.799  35.387  37.810  1.00  0.00     0.012 C 
HETATM   30  C   UNL     1      59.651  33.129  38.505  1.00  0.00     0.012 C 
ENDBRANCH  17  28
BRANCH  13  31
HETATM   31  C   UNL     1      57.062  36.629  42.503  1.00  0.00     0.014 C 
HETATM   32  C   UNL     1      58.441  36.001  42.289  1.00  0.00     0.012 C 
BRANCH  31  33
HETATM   33  C   UNL     1      57.138  38.154  42.693  1.00  0.00     0.002 C 
HETATM   34  C   UNL     1      57.205  38.931  41.386  1.00  0.00     0.005 C 
ENDBRANCH  31  33
ENDBRANCH  13  31
BRANCH  14  35
HETATM   35  C   UNL     1      54.758  31.347  35.333  1.00  0.00     0.010 C 
HETATM   36  C   UNL     1      53.473  31.241  34.513  1.00  0.00     0.012 C 
HETATM   37  C   UNL     1      55.895  31.901  34.475  1.00  0.00     0.012 C 
ENDBRANCH  14  35
BRANCH  16  38
HETATM   38  C   UNL     1      51.549  37.177  39.623  1.00  0.00     0.016 C 
HETATM   39  C   UNL     1      50.609  38.265  40.139  1.00  0.00     0.012 C 
HETATM   40  C   UNL     1      50.763  36.103  38.872  1.00  0.00     0.012 C 
ENDBRANCH  16  38
BRANCH  18  41
HETATM   41  C   UNL     1      52.018  29.435  38.758  1.00  0.00     0.016 C 
HETATM   42  C   UNL     1      51.132  28.678  39.746  1.00  0.00     0.012 C 
HETATM   43  C   UNL     1      53.140  28.535  38.245  1.00  0.00     0.012 C 
ENDBRANCH  18  41
BRANCH  15  44
HETATM   44  C   UNL     1      50.347  32.800  42.962  1.00  0.00     0.010 C 
HETATM   45  C   UNL     1      48.866  32.448  43.060  1.00  0.00     0.012 C 
HETATM   46  C   UNL     1      50.721  33.856  43.998  1.00  0.00     0.012 C 
ENDBRANCH  15  44
TORSDOF 7
ENDMDL
MODEL 16
REMARK VINA RESULT:    -4.434      6.347     12.028
REMARK INTER + INTRA:          -5.319
REMARK INTER:                  -6.015
REMARK INTRA:                   0.696
REMARK UNBOUND:                 0.930
REMARK  7 active torsions:
REMARK  status: ('A' for Active; 'I' for Inactive)
REMARK    1  A    between atoms: C_13  and  C_14 
REMARK    2  A    between atoms: C_14  and  C_19 
REMARK    3  A    between atoms: C_15  and  C_20 
REMARK    4  A    between atoms: C_16  and  C_21 
REMARK    5  A    between atoms: C_17  and  C_23 
REMARK    6  A    between atoms: C_18  and  C_26 
REMARK    7  A    between atoms: C_22  and  C_28 
ROOT
HETATM    1  O   UNL     1      50.489  30.872  47.037  1.00  0.00    -0.304 OA
HETATM    2  O   UNL     1      47.731  26.633  48.346  1.00  0.00    -0.304 OA
HETATM    3  O   UNL     1      50.580  26.315  44.588  1.00  0.00    -0.304 OA
HETATM    4  O   UNL     1      47.295  29.742  47.758  1.00  0.00    -0.270 OA
HETATM    5  O   UNL     1      51.290  29.023  48.158  1.00  0.00    -0.263 OA
HETATM    6  O   UNL     1      49.033  29.497  45.392  1.00  0.00    -0.270 OA
HETATM    7  O   UNL     1      48.592  23.893  45.420  1.00  0.00    -0.270 OA
HETATM    8  O   UNL     1      46.759  25.067  49.719  1.00  0.00    -0.263 OA
HETATM    9  O   UNL     1      48.795  25.855  43.208  1.00  0.00    -0.263 OA
HETATM   10  N   UNL     1      48.776  29.228  49.470  1.00  0.00    -0.340 N 
HETATM   11  N   UNL     1      50.724  28.861  43.948  1.00  0.00    -0.340 N 
HETATM   12  N   UNL     1      49.512  24.932  47.287  1.00  0.00    -0.340 N 
HETATM   13  C   UNL     1      49.581  30.430  49.169  1.00  0.00     0.190 C 
HETATM   14  C   UNL     1      49.770  28.061  43.152  1.00  0.00     0.190 C 
HETATM   15  C   UNL     1      48.503  24.360  48.203  1.00  0.00     0.190 C 
HETATM   16  C   UNL     1      46.894  27.673  48.889  1.00  0.00     0.227 C 
HETATM   17  C   UNL     1      51.168  30.487  45.822  1.00  0.00     0.227 C 
HETATM   18  C   UNL     1      50.712  24.971  45.086  1.00  0.00     0.227 C 
HETATM   19  C   UNL     1      47.661  28.970  48.652  1.00  0.00     0.250 C 
HETATM   20  C   UNL     1      50.568  30.009  48.093  1.00  0.00     0.283 C 
HETATM   21  C   UNL     1      50.216  29.573  45.044  1.00  0.00     0.250 C 
HETATM   22  C   UNL     1      49.501  24.552  45.934  1.00  0.00     0.250 C 
HETATM   23  C   UNL     1      47.574  25.380  48.856  1.00  0.00     0.283 C 
HETATM   24  C   UNL     1      49.640  26.624  43.654  1.00  0.00     0.283 C 
HETATM   25  C   UNL     1      49.215  28.369  50.574  1.00  0.00     0.153 C 
HETATM   26  C   UNL     1      52.137  28.827  43.562  1.00  0.00     0.153 C 
HETATM   27  C   UNL     1      50.588  25.729  47.878  1.00  0.00     0.153 C 
ENDROOT
BRANCH  17  28
HETATM   28  C   UNL     1      51.439  31.767  45.044  1.00  0.00     0.016 C 
HETATM   29  C   UNL     1      50.556  32.905  45.554  1.00  0.00     0.012 C 
HETATM   30  C   UNL     1      52.915  32.152  45.138  1.00  0.00     0.012 C 
ENDBRANCH  17  28
BRANCH  13  31
HETATM   31  C   UNL     1      50.322  31.050  50.349  1.00  0.00     0.014 C 
HETATM   32  C   UNL     1      51.494  31.891  49.841  1.00  0.00     0.012 C 
BRANCH  31  33
HETATM   33  C   UNL     1      49.345  31.870  51.210  1.00  0.00     0.002 C 
HETATM   34  C   UNL     1      49.342  31.472  52.679  1.00  0.00     0.005 C 
ENDBRANCH  31  33
ENDBRANCH  13  31
BRANCH  14  35
HETATM   35  C   UNL     1      50.070  28.057  41.653  1.00  0.00     0.010 C 
HETATM   36  C   UNL     1      50.277  26.631  41.148  1.00  0.00     0.012 C 
HETATM   37  C   UNL     1      48.946  28.742  40.876  1.00  0.00     0.012 C 
ENDBRANCH  14  35
BRANCH  16  38
HETATM   38  C   UNL     1      45.559  27.663  48.148  1.00  0.00     0.016 C 
HETATM   39  C   UNL     1      44.469  27.026  49.009  1.00  0.00     0.012 C 
HETATM   40  C   UNL     1      45.687  26.927  46.816  1.00  0.00     0.012 C 
ENDBRANCH  16  38
BRANCH  18  41
HETATM   41  C   UNL     1      51.022  23.978  43.967  1.00  0.00     0.016 C 
HETATM   42  C   UNL     1      51.208  22.572  44.534  1.00  0.00     0.012 C 
HETATM   43  C   UNL     1      52.263  24.413  43.192  1.00  0.00     0.012 C 
ENDBRANCH  18  41
BRANCH  15  44
HETATM   44  C   UNL     1      49.156  23.473  49.264  1.00  0.00     0.010 C 
HETATM   45  C   UNL     1      48.394  22.157  49.403  1.00  0.00     0.012 C 
HETATM   46  C   UNL     1      49.222  24.202  50.602  1.00  0.00     0.012 C 
ENDBRANCH  15  44
TORSDOF 7
ENDMDL
MODEL 17
REMARK VINA RESULT:    -4.311      2.383      7.077
REMARK INTER + INTRA:          -5.145
REMARK INTER:                  -5.954
REMARK INTRA:                   0.809
REMARK UNBOUND:                 0.930
REMARK  7 active torsions:
REMARK  status: ('A' for Active; 'I' for Inactive)
REMARK    1  A    between atoms: C_13  and  C_14 
REMARK    2  A    between atoms: C_14  and  C_19 
REMARK    3  A    between atoms: C_15  and  C_20 
REMARK    4  A    between atoms: C_16  and  C_21 
REMARK    5  A    between atoms: C_17  and  C_23 
REMARK    6  A    between atoms: C_18  and  C_26 
REMARK    7  A    between atoms: C_22  and  C_28 
ROOT
HETATM    1  O   UNL     1      57.042  29.619  37.022  1.00  0.00    -0.304 OA
HETATM    2  O   UNL     1      52.537  32.252  37.275  1.00  0.00    -0.304 OA
HETATM    3  O   UNL     1      52.880  28.258  39.779  1.00  0.00    -0.304 OA
HETATM    4  O   UNL     1      54.551  31.065  35.098  1.00  0.00    -0.270 OA
HETATM    5  O   UNL     1      56.360  30.982  38.753  1.00  0.00    -0.263 OA
HETATM    6  O   UNL     1      54.701  28.570  36.656  1.00  0.00    -0.270 OA
HETATM    7  O   UNL     1      50.096  29.908  39.590  1.00  0.00    -0.270 OA
HETATM    8  O   UNL     1      51.141  34.072  37.403  1.00  0.00    -0.263 OA
HETATM    9  O   UNL     1      51.138  27.312  38.609  1.00  0.00    -0.263 OA
HETATM   10  N   UNL     1      55.454  32.594  36.593  1.00  0.00    -0.340 N 
HETATM   11  N   UNL     1      54.771  27.055  38.403  1.00  0.00    -0.340 N 
HETATM   12  N   UNL     1      51.933  31.330  39.719  1.00  0.00    -0.340 N 
HETATM   13  C   UNL     1      56.764  31.911  36.540  1.00  0.00     0.190 C 
HETATM   14  C   UNL     1      53.391  26.616  38.103  1.00  0.00     0.190 C 
HETATM   15  C   UNL     1      51.166  32.496  39.235  1.00  0.00     0.190 C 
HETATM   16  C   UNL     1      53.020  32.675  35.985  1.00  0.00     0.227 C 
HETATM   17  C   UNL     1      56.796  28.428  37.802  1.00  0.00     0.227 C 
HETATM   18  C   UNL     1      52.044  29.015  40.673  1.00  0.00     0.227 C 
HETATM   19  C   UNL     1      54.400  32.039  35.845  1.00  0.00     0.250 C 
HETATM   20  C   UNL     1      56.701  30.814  37.590  1.00  0.00     0.283 C 
HETATM   21  C   UNL     1      55.336  28.032  37.570  1.00  0.00     0.250 C 
HETATM   22  C   UNL     1      51.263  30.113  39.937  1.00  0.00     0.250 C 
HETATM   23  C   UNL     1      51.612  33.045  37.882  1.00  0.00     0.283 C 
HETATM   24  C   UNL     1      52.336  27.439  38.839  1.00  0.00     0.283 C 
HETATM   25  C   UNL     1      55.333  33.778  37.450  1.00  0.00     0.153 C 
HETATM   26  C   UNL     1      55.438  26.469  39.568  1.00  0.00     0.153 C 
HETATM   27  C   UNL     1      53.323  31.552  40.119  1.00  0.00     0.153 C 
ENDROOT
BRANCH  17  28
HETATM   28  C   UNL     1      57.735  27.354  37.273  1.00  0.00     0.016 C 
HETATM   29  C   UNL     1      58.238  27.718  35.876  1.00  0.00     0.012 C 
HETATM   30  C   UNL     1      58.910  27.145  38.227  1.00  0.00     0.012 C 
ENDBRANCH  17  28
BRANCH  13  31
HETATM   31  C   UNL     1      57.986  32.793  36.772  1.00  0.00     0.014 C 
HETATM   32  C   UNL     1      59.140  31.948  37.316  1.00  0.00     0.012 C 
BRANCH  31  33
HETATM   33  C   UNL     1      58.361  33.524  35.471  1.00  0.00     0.002 C 
HETATM   34  C   UNL     1      58.711  34.992  35.673  1.00  0.00     0.005 C 
ENDBRANCH  31  33
ENDBRANCH  13  31
BRANCH  14  35
HETATM   35  C   UNL     1      53.151  25.128  38.353  1.00  0.00     0.010 C 
HETATM   36  C   UNL     1      52.169  24.925  39.505  1.00  0.00     0.012 C 
HETATM   37  C   UNL     1      52.637  24.443  37.086  1.00  0.00     0.012 C 
ENDBRANCH  14  35
BRANCH  16  38
HETATM   38  C   UNL     1      52.057  32.174  34.912  1.00  0.00     0.016 C 
HETATM   39  C   UNL     1      51.061  33.267  34.528  1.00  0.00     0.012 C 
HETATM   40  C   UNL     1      51.320  30.924  35.391  1.00  0.00     0.012 C 
ENDBRANCH  16  38
BRANCH  18  41
HETATM   41  C   UNL     1      51.142  28.109  41.511  1.00  0.00     0.016 C 
HETATM   42  C   UNL     1      50.258  28.941  42.437  1.00  0.00     0.012 C 
HETATM   43  C   UNL     1      51.977  27.116  42.316  1.00  0.00     0.012 C 
ENDBRANCH  18  41
BRANCH  15  44
HETATM   44  C   UNL     1      51.132  33.612  40.281  1.00  0.00     0.010 C 
HETATM   45  C   UNL     1      49.716  34.159  40.433  1.00  0.00     0.012 C 
HETATM   46  C   UNL     1      52.103  34.726  39.904  1.00  0.00     0.012 C 
ENDBRANCH  15  44
TORSDOF 7
ENDMDL
MODEL 18
REMARK VINA RESULT:    -4.279      2.467      8.875
REMARK INTER + INTRA:          -5.100
REMARK INTER:                  -5.796
REMARK INTRA:                   0.696
REMARK UNBOUND:                 0.930
REMARK  7 active torsions:
REMARK  status: ('A' for Active; 'I' for Inactive)
REMARK    1  A    between atoms: C_13  and  C_14 
REMARK    2  A    between atoms: C_14  and  C_19 
REMARK    3  A    between atoms: C_15  and  C_20 
REMARK    4  A    between atoms: C_16  and  C_21 
REMARK    5  A    between atoms: C_17  and  C_23 
REMARK    6  A    between atoms: C_18  and  C_26 
REMARK    7  A    between atoms: C_22  and  C_28 
ROOT
HETATM    1  O   UNL     1      55.539  34.133  39.260  1.00  0.00    -0.304 OA
HETATM    2  O   UNL     1      51.049  32.640  41.474  1.00  0.00    -0.304 OA
HETATM    3  O   UNL     1      53.350  29.463  38.835  1.00  0.00    -0.304 OA
HETATM    4  O   UNL     1      52.208  34.996  39.655  1.00  0.00    -0.270 OA
HETATM    5  O   UNL     1      55.323  32.830  41.150  1.00  0.00    -0.263 OA
HETATM    6  O   UNL     1      53.586  32.987  38.000  1.00  0.00    -0.270 OA
HETATM    7  O   UNL     1      50.427  28.831  40.088  1.00  0.00    -0.270 OA
HETATM    8  O   UNL     1      49.435  32.460  43.099  1.00  0.00    -0.263 OA
HETATM    9  O   UNL     1      51.566  29.293  37.390  1.00  0.00    -0.263 OA
HETATM   10  N   UNL     1      53.247  34.690  41.707  1.00  0.00    -0.340 N 
HETATM   11  N   UNL     1      54.734  31.100  37.313  1.00  0.00    -0.340 N 
HETATM   12  N   UNL     1      51.749  30.053  41.561  1.00  0.00    -0.340 N 
HETATM   13  C   UNL     1      54.541  35.134  41.148  1.00  0.00     0.190 C 
HETATM   14  C   UNL     1      53.505  30.551  36.701  1.00  0.00     0.190 C 
HETATM   15  C   UNL     1      50.593  30.462  42.386  1.00  0.00     0.190 C 
HETATM   16  C   UNL     1      50.839  34.063  41.380  1.00  0.00     0.227 C 
HETATM   17  C   UNL     1      55.933  32.994  38.464  1.00  0.00     0.227 C 
HETATM   18  C   UNL     1      52.801  28.578  39.829  1.00  0.00     0.227 C 
HETATM   19  C   UNL     1      52.148  34.626  40.833  1.00  0.00     0.250 C 
HETATM   20  C   UNL     1      55.184  33.891  40.556  1.00  0.00     0.283 C 
HETATM   21  C   UNL     1      54.650  32.365  37.913  1.00  0.00     0.250 C 
HETATM   22  C   UNL     1      51.546  29.166  40.490  1.00  0.00     0.250 C 
HETATM   23  C   UNL     1      50.294  31.959  42.380  1.00  0.00     0.283 C 
HETATM   24  C   UNL     1      52.682  29.712  37.676  1.00  0.00     0.283 C 
HETATM   25  C   UNL     1      53.207  34.312  43.124  1.00  0.00     0.153 C 
HETATM   26  C   UNL     1      55.942  30.272  37.283  1.00  0.00     0.153 C 
HETATM   27  C   UNL     1      53.081  30.455  42.015  1.00  0.00     0.153 C 
ENDROOT
BRANCH  17  28
HETATM   28  C   UNL     1      56.799  33.527  37.331  1.00  0.00     0.016 C 
HETATM   29  C   UNL     1      55.945  34.263  36.300  1.00  0.00     0.012 C 
HETATM   30  C   UNL     1      57.892  34.446  37.875  1.00  0.00     0.012 C 
ENDBRANCH  17  28
BRANCH  13  31
HETATM   31  C   UNL     1      55.496  35.807  42.127  1.00  0.00     0.014 C 
HETATM   32  C   UNL     1      56.936  35.663  41.630  1.00  0.00     0.012 C 
BRANCH  31  33
HETATM   33  C   UNL     1      55.093  37.278  42.329  1.00  0.00     0.002 C 
HETATM   34  C   UNL     1      54.616  37.962  41.055  1.00  0.00     0.005 C 
ENDBRANCH  31  33
ENDBRANCH  13  31
BRANCH  14  35
HETATM   35  C   UNL     1      53.757  29.753  35.422  1.00  0.00     0.010 C 
HETATM   36  C   UNL     1      53.440  28.275  35.636  1.00  0.00     0.012 C 
HETATM   37  C   UNL     1      52.933  30.315  34.263  1.00  0.00     0.012 C 
ENDBRANCH  14  35
BRANCH  16  38
HETATM   38  C   UNL     1      49.672  34.324  40.432  1.00  0.00     0.016 C 
HETATM   39  C   UNL     1      48.456  34.836  41.202  1.00  0.00     0.012 C 
HETATM   40  C   UNL     1      49.317  33.059  39.652  1.00  0.00     0.012 C 
ENDBRANCH  16  38
BRANCH  18  41
HETATM   41  C   UNL     1      52.573  27.173  39.274  1.00  0.00     0.016 C 
HETATM   42  C   UNL     1      51.954  26.269  40.338  1.00  0.00     0.012 C 
HETATM   43  C   UNL     1      53.884  26.579  38.762  1.00  0.00     0.012 C 
ENDBRANCH  18  41
BRANCH  15  44
HETATM   44  C   UNL     1      50.725  29.948  43.820  1.00  0.00     0.010 C 
HETATM   45  C   UNL     1      49.413  29.324  44.287  1.00  0.00     0.012 C 
HETATM   46  C   UNL     1      51.148  31.077  44.755  1.00  0.00     0.012 C 
ENDBRANCH  15  44
TORSDOF 7
ENDMDL
MODEL 19
REMARK VINA RESULT:    -4.171      7.496     12.129
REMARK INTER + INTRA:          -4.948
REMARK INTER:                  -5.497
REMARK INTRA:                   0.549
REMARK UNBOUND:                 0.930
REMARK  7 active torsions:
REMARK  status: ('A' for Active; 'I' for Inactive)
REMARK    1  A    between atoms: C_13  and  C_14 
REMARK    2  A    between atoms: C_14  and  C_19 
REMARK    3  A    between atoms: C_15  and  C_20 
REMARK    4  A    between atoms: C_16  and  C_21 
REMARK    5  A    between atoms: C_17  and  C_23 
REMARK    6  A    between atoms: C_18  and  C_26 
REMARK    7  A    between atoms: C_22  and  C_28 
ROOT
HETATM    1  O   UNL     1      50.507  23.221  45.534  1.00  0.00    -0.304 OA
HETATM    2  O   UNL     1      48.299  25.200  49.835  1.00  0.00    -0.304 OA
HETATM    3  O   UNL     1      48.903  28.102  46.152  1.00  0.00    -0.304 OA
HETATM    4  O   UNL     1      50.888  23.546  48.961  1.00  0.00    -0.270 OA
HETATM    5  O   UNL     1      48.257  23.621  45.845  1.00  0.00    -0.263 OA
HETATM    6  O   UNL     1      51.265  25.404  46.707  1.00  0.00    -0.270 OA
HETATM    7  O   UNL     1      47.790  29.182  48.999  1.00  0.00    -0.270 OA
HETATM    8  O   UNL     1      46.943  25.275  51.689  1.00  0.00    -0.263 OA
HETATM    9  O   UNL     1      50.265  29.480  47.394  1.00  0.00    -0.263 OA
HETATM   10  N   UNL     1      48.841  22.589  48.428  1.00  0.00    -0.340 N 
HETATM   11  N   UNL     1      50.872  26.848  44.943  1.00  0.00    -0.340 N 
HETATM   12  N   UNL     1      46.942  27.078  48.486  1.00  0.00    -0.340 N 
HETATM   13  C   UNL     1      49.415  21.975  47.213  1.00  0.00     0.190 C 
HETATM   14  C   UNL     1      51.272  28.003  45.776  1.00  0.00     0.190 C 
HETATM   15  C   UNL     1      46.521  26.819  49.878  1.00  0.00     0.190 C 
HETATM   16  C   UNL     1      49.068  24.122  50.403  1.00  0.00     0.227 C 
HETATM   17  C   UNL     1      50.634  24.357  44.651  1.00  0.00     0.227 C 
HETATM   18  C   UNL     1      47.669  28.638  46.663  1.00  0.00     0.227 C 
HETATM   19  C   UNL     1      49.686  23.398  49.210  1.00  0.00     0.250 C 
HETATM   20  C   UNL     1      49.289  23.024  46.121  1.00  0.00     0.283 C 
HETATM   21  C   UNL     1      50.947  25.574  45.525  1.00  0.00     0.250 C 
HETATM   22  C   UNL     1      47.485  28.332  48.157  1.00  0.00     0.250 C 
HETATM   23  C   UNL     1      47.257  25.675  50.572  1.00  0.00     0.283 C 
HETATM   24  C   UNL     1      50.102  28.607  46.549  1.00  0.00     0.283 C 
HETATM   25  C   UNL     1      47.425  22.343  48.716  1.00  0.00     0.153 C 
HETATM   26  C   UNL     1      50.393  27.115  43.585  1.00  0.00     0.153 C 
HETATM   27  C   UNL     1      46.602  26.073  47.477  1.00  0.00     0.153 C 
ENDROOT
BRANCH  17  28
HETATM   28  C   UNL     1      51.794  24.057  43.712  1.00  0.00     0.016 C 
HETATM   29  C   UNL     1      52.687  22.961  44.291  1.00  0.00     0.012 C 
HETATM   30  C   UNL     1      51.280  23.653  42.331  1.00  0.00     0.012 C 
ENDBRANCH  17  28
BRANCH  13  31
HETATM   31  C   UNL     1      48.778  20.666  46.762  1.00  0.00     0.014 C 
HETATM   32  C   UNL     1      49.115  20.404  45.293  1.00  0.00     0.012 C 
BRANCH  31  33
HETATM   33  C   UNL     1      49.233  19.516  47.679  1.00  0.00     0.002 C 
HETATM   34  C   UNL     1      50.724  19.528  47.982  1.00  0.00     0.005 C 
ENDBRANCH  31  33
ENDBRANCH  13  31
BRANCH  14  35
HETATM   35  C   UNL     1      51.996  29.101  44.997  1.00  0.00     0.010 C 
HETATM   36  C   UNL     1      51.110  30.336  44.854  1.00  0.00     0.012 C 
HETATM   37  C   UNL     1      53.315  29.466  45.679  1.00  0.00     0.012 C 
ENDBRANCH  14  35
BRANCH  16  38
HETATM   38  C   UNL     1      50.136  24.713  51.319  1.00  0.00     0.016 C 
HETATM   39  C   UNL     1      49.842  24.373  52.780  1.00  0.00     0.012 C 
HETATM   40  C   UNL     1      50.231  26.226  51.131  1.00  0.00     0.012 C 
ENDBRANCH  16  38
BRANCH  18  41
HETATM   41  C   UNL     1      47.519  30.124  46.343  1.00  0.00     0.016 C 
HETATM   42  C   UNL     1      46.217  30.670  46.923  1.00  0.00     0.012 C 
HETATM   43  C   UNL     1      47.573  30.356  44.834  1.00  0.00     0.012 C 
ENDBRANCH  18  41
BRANCH  15  44
HETATM   44  C   UNL     1      45.008  26.618  49.973  1.00  0.00     0.010 C 
HETATM   45  C   UNL     1      44.429  27.448  51.115  1.00  0.00     0.012 C 
HETATM   46  C   UNL     1      44.676  25.140  50.159  1.00  0.00     0.012 C 
ENDBRANCH  15  44
TORSDOF 7
ENDMDL
MODEL 20
REMARK VINA RESULT:    -3.887      0.978      1.154
REMARK INTER + INTRA:          -4.548
REMARK INTER:                  -5.257
REMARK INTRA:                   0.710
REMARK UNBOUND:                 0.930
REMARK  7 active torsions:
REMARK  status: ('A' for Active; 'I' for Inactive)
REMARK    1  A    between atoms: C_13  and  C_14 
REMARK    2  A    between atoms: C_14  and  C_19 
REMARK    3  A    between atoms: C_15  and  C_20 
REMARK    4  A    between atoms: C_16  and  C_21 
REMARK    5  A    between atoms: C_17  and  C_23 
REMARK    6  A    between atoms: C_18  and  C_26 
REMARK    7  A    between atoms: C_22  and  C_28 
ROOT
HETATM    1  O   UNL     1      52.192  26.728  40.288  1.00  0.00    -0.304 OA
HETATM    2  O   UNL     1      53.244  28.261  35.406  1.00  0.00    -0.304 OA
HETATM    3  O   UNL     1      53.262  31.564  38.787  1.00  0.00    -0.304 OA
HETATM    4  O   UNL     1      51.039  26.610  37.024  1.00  0.00    -0.270 OA
HETATM    5  O   UNL     1      54.282  27.190  39.429  1.00  0.00    -0.263 OA
HETATM    6  O   UNL     1      51.037  28.713  39.087  1.00  0.00    -0.270 OA
HETATM    7  O   UNL     1      53.635  32.335  35.661  1.00  0.00    -0.270 OA
HETATM    8  O   UNL     1      54.146  28.168  33.295  1.00  0.00    -0.263 OA
HETATM    9  O   UNL     1      51.563  32.715  37.746  1.00  0.00    -0.263 OA
HETATM   10  N   UNL     1      53.216  25.821  37.177  1.00  0.00    -0.340 N 
HETATM   11  N   UNL     1      51.705  30.380  40.545  1.00  0.00    -0.340 N 
HETATM   12  N   UNL     1      54.726  30.351  36.195  1.00  0.00    -0.340 N 
HETATM   13  C   UNL     1      52.972  25.336  38.551  1.00  0.00     0.190 C 
HETATM   14  C   UNL     1      51.049  31.405  39.704  1.00  0.00     0.190 C 
HETATM   15  C   UNL     1      54.846  29.941  34.780  1.00  0.00     0.190 C 
HETATM   16  C   UNL     1      52.448  27.087  35.150  1.00  0.00     0.227 C 
HETATM   17  C   UNL     1      52.182  27.957  41.047  1.00  0.00     0.227 C 
HETATM   18  C   UNL     1      54.310  32.089  37.952  1.00  0.00     0.227 C 
HETATM   19  C   UNL     1      52.164  26.488  36.525  1.00  0.00     0.250 C 
HETATM   20  C   UNL     1      53.260  26.517  39.464  1.00  0.00     0.283 C 
HETATM   21  C   UNL     1      51.596  29.042  40.139  1.00  0.00     0.250 C 
HETATM   22  C   UNL     1      54.179  31.609  36.499  1.00  0.00     0.250 C 
HETATM   23  C   UNL     1      54.059  28.689  34.403  1.00  0.00     0.283 C 
HETATM   24  C   UNL     1      51.972  31.961  38.622  1.00  0.00     0.283 C 
HETATM   25  C   UNL     1      54.548  25.607  36.602  1.00  0.00     0.153 C 
HETATM   26  C   UNL     1      52.452  30.835  41.720  1.00  0.00     0.153 C 
HETATM   27  C   UNL     1      55.353  29.494  37.203  1.00  0.00     0.153 C 
ENDROOT
BRANCH  17  28
HETATM   28  C   UNL     1      51.284  27.723  42.253  1.00  0.00     0.016 C 
HETATM   29  C   UNL     1      49.969  27.072  41.827  1.00  0.00     0.012 C 
HETATM   30  C   UNL     1      51.994  26.862  43.296  1.00  0.00     0.012 C 
ENDBRANCH  17  28
BRANCH  13  31
HETATM   31  C   UNL     1      53.786  24.123  38.986  1.00  0.00     0.014 C 
HETATM   32  C   UNL     1      53.887  24.085  40.512  1.00  0.00     0.012 C 
BRANCH  31  33
HETATM   33  C   UNL     1      53.164  22.839  38.410  1.00  0.00     0.002 C 
HETATM   34  C   UNL     1      52.622  21.892  39.471  1.00  0.00     0.005 C 
ENDBRANCH  31  33
ENDBRANCH  13  31
BRANCH  14  35
HETATM   35  C   UNL     1      50.437  32.556  40.502  1.00  0.00     0.010 C 
HETATM   36  C   UNL     1      51.206  33.852  40.256  1.00  0.00     0.012 C 
HETATM   37  C   UNL     1      48.961  32.735  40.147  1.00  0.00     0.012 C 
ENDBRANCH  14  35
BRANCH  16  38
HETATM   38  C   UNL     1      51.163  27.511  34.443  1.00  0.00     0.016 C 
HETATM   39  C   UNL     1      51.151  27.010  33.000  1.00  0.00     0.012 C 
HETATM   40  C   UNL     1      51.001  29.030  34.483  1.00  0.00     0.012 C 
ENDBRANCH  16  38
BRANCH  18  41
HETATM   41  C   UNL     1      54.419  33.609  38.065  1.00  0.00     0.016 C 
HETATM   42  C   UNL     1      55.573  34.129  37.213  1.00  0.00     0.012 C 
HETATM   43  C   UNL     1      54.597  34.027  39.523  1.00  0.00     0.012 C 
ENDBRANCH  18  41
BRANCH  15  44
HETATM   44  C   UNL     1      56.311  29.800  34.364  1.00  0.00     0.010 C 
HETATM   45  C   UNL     1      56.573  30.553  33.064  1.00  0.00     0.012 C 
HETATM   46  C   UNL     1      56.684  28.327  34.219  1.00  0.00     0.012 C 
ENDBRANCH  15  44
TORSDOF 7
ENDMDL
