MODEL 1
REMARK VINA RESULT:    -7.698      0.000      0.000
REMARK INTER + INTRA:          -9.967
REMARK INTER:                 -10.848
REMARK INTRA:                   0.880
REMARK UNBOUND:                 0.880
REMARK  7 active torsions:
REMARK  status: ('A' for Active; 'I' for Inactive)
REMARK    1  A    between atoms: C_13  and  C_14 
REMARK    2  A    between atoms: C_14  and  C_19 
REMARK    3  A    between atoms: C_15  and  C_20 
REMARK    4  A    between atoms: C_16  and  C_21 
REMARK    5  A    between atoms: C_17  and  C_23 
REMARK    6  A    between atoms: C_18  and  C_26 
REMARK    7  A    between atoms: C_22  and  C_28 
ROOT
HETATM    1  O   UNL     1      26.067  21.975  35.774  1.00  0.00    -0.304 OA
HETATM    2  O   UNL     1      26.607  26.198  32.746  1.00  0.00    -0.304 OA
HETATM    3  O   UNL     1      28.854  22.256  31.423  1.00  0.00    -0.304 OA
HETATM    4  O   UNL     1      26.893  25.339  35.809  1.00  0.00    -0.270 OA
HETATM    5  O   UNL     1      24.978  22.365  33.779  1.00  0.00    -0.263 OA
HETATM    6  O   UNL     1      28.337  22.918  34.953  1.00  0.00    -0.270 OA
HETATM    7  O   UNL     1      29.256  25.053  29.835  1.00  0.00    -0.270 OA
HETATM    8  O   UNL     1      25.986  28.105  31.625  1.00  0.00    -0.263 OA
HETATM    9  O   UNL     1      30.897  23.306  31.578  1.00  0.00    -0.263 OA
HETATM   10  N   UNL     1      24.810  24.994  34.847  1.00  0.00    -0.340 N 
HETATM   11  N   UNL     1      29.024  21.060  33.759  1.00  0.00    -0.340 N 
HETATM   12  N   UNL     1      27.054  24.764  30.526  1.00  0.00    -0.340 N 
HETATM   13  C   UNL     1      24.584  23.808  35.699  1.00  0.00     0.190 C 
HETATM   14  C   UNL     1      30.244  21.770  33.320  1.00  0.00     0.190 C 
HETATM   15  C   UNL     1      26.725  26.193  30.345  1.00  0.00     0.190 C 
HETATM   16  C   UNL     1      26.323  26.816  34.017  1.00  0.00     0.227 C 
HETATM   17  C   UNL     1      26.933  20.993  35.164  1.00  0.00     0.227 C 
HETATM   18  C   UNL     1      28.533  22.781  30.123  1.00  0.00     0.227 C 
HETATM   19  C   UNL     1      26.042  25.660  34.972  1.00  0.00     0.250 C 
HETATM   20  C   UNL     1      25.202  22.638  34.951  1.00  0.00     0.283 C 
HETATM   21  C   UNL     1      28.151  21.744  34.617  1.00  0.00     0.250 C 
HETATM   22  C   UNL     1      28.328  24.303  30.153  1.00  0.00     0.250 C 
HETATM   23  C   UNL     1      26.382  26.944  31.629  1.00  0.00     0.283 C 
HETATM   24  C   UNL     1      30.041  22.547  32.021  1.00  0.00     0.283 C 
HETATM   25  C   UNL     1      23.751  25.373  33.906  1.00  0.00     0.153 C 
HETATM   26  C   UNL     1      28.792  19.710  33.240  1.00  0.00     0.153 C 
HETATM   27  C   UNL     1      25.969  23.864  30.918  1.00  0.00     0.153 C 
ENDROOT
BRANCH  17  28
HETATM   28  C   UNL     1      27.346  20.026  36.263  1.00  0.00     0.016 C 
HETATM   29  C   UNL     1      26.993  20.590  37.639  1.00  0.00     0.012 C 
HETATM   30  C   UNL     1      26.687  18.662  36.059  1.00  0.00     0.012 C 
ENDBRANCH  17  28
BRANCH  13  31
HETATM   31  C   UNL     1      23.131  23.502  36.047  1.00  0.00     0.014 C 
HETATM   32  C   UNL     1      22.816  22.041  35.722  1.00  0.00     0.012 C 
BRANCH  31  33
HETATM   33  C   UNL     1      22.862  23.843  37.523  1.00  0.00     0.002 C 
HETATM   34  C   UNL     1      22.847  25.337  37.814  1.00  0.00     0.005 C 
ENDBRANCH  31  33
ENDBRANCH  13  31
BRANCH  14  35
HETATM   35  C   UNL     1      31.470  20.865  33.192  1.00  0.00     0.010 C 
HETATM   36  C   UNL     1      31.913  20.758  31.734  1.00  0.00     0.012 C 
HETATM   37  C   UNL     1      32.615  21.381  34.063  1.00  0.00     0.012 C 
ENDBRANCH  14  35
BRANCH  16  38
HETATM   38  C   UNL     1      27.543  27.624  34.452  1.00  0.00     0.016 C 
HETATM   39  C   UNL     1      27.305  29.118  34.240  1.00  0.00     0.012 C 
HETATM   40  C   UNL     1      28.789  27.168  33.694  1.00  0.00     0.012 C 
ENDBRANCH  16  38
BRANCH  18  41
HETATM   41  C   UNL     1      29.547  22.343  29.067  1.00  0.00     0.016 C 
HETATM   42  C   UNL     1      29.197  22.940  27.706  1.00  0.00     0.012 C 
HETATM   43  C   UNL     1      29.611  20.820  28.984  1.00  0.00     0.012 C 
ENDBRANCH  18  41
BRANCH  15  44
HETATM   44  C   UNL     1      25.620  26.382  29.304  1.00  0.00     0.010 C 
HETATM   45  C   UNL     1      26.032  27.426  28.270  1.00  0.00     0.012 C 
HETATM   46  C   UNL     1      24.312  26.779  29.980  1.00  0.00     0.012 C 
ENDBRANCH  15  44
TORSDOF 7
ENDMDL
MODEL 2
REMARK VINA RESULT:    -7.607      2.057      6.455
REMARK INTER + INTRA:          -9.839
REMARK INTER:                 -11.283
REMARK INTRA:                   1.444
REMARK UNBOUND:                 0.880
REMARK  7 active torsions:
REMARK  status: ('A' for Active; 'I' for Inactive)
REMARK    1  A    between atoms: C_13  and  C_14 
REMARK    2  A    between atoms: C_14  and  C_19 
REMARK    3  A    between atoms: C_15  and  C_20 
REMARK    4  A    between atoms: C_16  and  C_21 
REMARK    5  A    between atoms: C_17  and  C_23 
REMARK    6  A    between atoms: C_18  and  C_26 
REMARK    7  A    between atoms: C_22  and  C_28 
ROOT
HETATM    1  O   UNL     1      26.594  26.315  29.548  1.00  0.00    -0.304 OA
HETATM    2  O   UNL     1      26.303  23.839  34.139  1.00  0.00    -0.304 OA
HETATM    3  O   UNL     1      29.185  22.031  30.856  1.00  0.00    -0.304 OA
HETATM    4  O   UNL     1      24.384  24.958  31.844  1.00  0.00    -0.270 OA
HETATM    5  O   UNL     1      28.142  26.429  31.253  1.00  0.00    -0.263 OA
HETATM    6  O   UNL     1      26.173  23.773  29.826  1.00  0.00    -0.270 OA
HETATM    7  O   UNL     1      28.661  20.516  33.674  1.00  0.00    -0.270 OA
HETATM    8  O   UNL     1      26.170  23.595  36.419  1.00  0.00    -0.263 OA
HETATM    9  O   UNL     1      27.995  20.061  30.821  1.00  0.00    -0.263 OA
HETATM   10  N   UNL     1      25.787  26.513  32.843  1.00  0.00    -0.340 N 
HETATM   11  N   UNL     1      28.054  23.030  28.703  1.00  0.00    -0.340 N 
HETATM   12  N   UNL     1      28.777  22.824  33.945  1.00  0.00    -0.340 N 
HETATM   13  C   UNL     1      25.884  27.275  31.582  1.00  0.00     0.190 C 
HETATM   14  C   UNL     1      27.705  21.626  29.009  1.00  0.00     0.190 C 
HETATM   15  C   UNL     1      28.138  22.780  35.277  1.00  0.00     0.190 C 
HETATM   16  C   UNL     1      25.014  24.482  34.102  1.00  0.00     0.227 C 
HETATM   17  C   UNL     1      27.462  25.479  28.753  1.00  0.00     0.227 C 
HETATM   18  C   UNL     1      29.948  21.705  32.032  1.00  0.00     0.227 C 
HETATM   19  C   UNL     1      25.026  25.330  32.833  1.00  0.00     0.250 C 
HETATM   20  C   UNL     1      27.024  26.642  30.802  1.00  0.00     0.283 C 
HETATM   21  C   UNL     1      27.173  24.027  29.145  1.00  0.00     0.250 C 
HETATM   22  C   UNL     1      29.063  21.617  33.284  1.00  0.00     0.250 C 
HETATM   23  C   UNL     1      26.773  23.458  35.359  1.00  0.00     0.283 C 
HETATM   24  C   UNL     1      28.291  21.147  30.336  1.00  0.00     0.283 C 
HETATM   25  C   UNL     1      26.520  27.019  34.008  1.00  0.00     0.153 C 
HETATM   26  C   UNL     1      29.310  23.285  27.993  1.00  0.00     0.153 C 
HETATM   27  C   UNL     1      29.246  24.123  33.462  1.00  0.00     0.153 C 
ENDROOT
BRANCH  17  28
HETATM   28  C   UNL     1      27.098  25.724  27.296  1.00  0.00     0.016 C 
HETATM   29  C   UNL     1      26.243  26.983  27.159  1.00  0.00     0.012 C 
HETATM   30  C   UNL     1      28.356  25.836  26.436  1.00  0.00     0.012 C 
ENDBRANCH  17  28
BRANCH  13  31
HETATM   31  C   UNL     1      26.113  28.776  31.724  1.00  0.00     0.014 C 
HETATM   32  C   UNL     1      26.667  29.343  30.416  1.00  0.00     0.012 C 
BRANCH  31  33
HETATM   33  C   UNL     1      24.807  29.468  32.154  1.00  0.00     0.002 C 
HETATM   34  C   UNL     1      24.930  30.256  33.451  1.00  0.00     0.005 C 
ENDBRANCH  31  33
ENDBRANCH  13  31
BRANCH  14  35
HETATM   35  C   UNL     1      28.076  20.643  27.898  1.00  0.00     0.010 C 
HETATM   36  C   UNL     1      29.532  20.203  28.031  1.00  0.00     0.012 C 
HETATM   37  C   UNL     1      27.147  19.430  27.919  1.00  0.00     0.012 C 
ENDBRANCH  14  35
BRANCH  16  38
HETATM   38  C   UNL     1      23.932  23.407  34.053  1.00  0.00     0.016 C 
HETATM   39  C   UNL     1      23.129  23.391  35.353  1.00  0.00     0.012 C 
HETATM   40  C   UNL     1      24.547  22.035  33.786  1.00  0.00     0.012 C 
ENDBRANCH  16  38
BRANCH  18  41
HETATM   41  C   UNL     1      30.805  20.457  31.825  1.00  0.00     0.016 C 
HETATM   42  C   UNL     1      31.554  20.102  33.107  1.00  0.00     0.012 C 
HETATM   43  C   UNL     1      31.783  20.663  30.671  1.00  0.00     0.012 C 
ENDBRANCH  18  41
BRANCH  15  44
HETATM   44  C   UNL     1      29.072  23.324  36.359  1.00  0.00     0.010 C 
HETATM   45  C   UNL     1      29.372  24.800  36.113  1.00  0.00     0.012 C 
HETATM   46  C   UNL     1      30.362  22.512  36.409  1.00  0.00     0.012 C 
ENDBRANCH  15  44
TORSDOF 7
ENDMDL
MODEL 3
REMARK VINA RESULT:    -7.432      2.084      7.633
REMARK INTER + INTRA:          -9.593
REMARK INTER:                 -10.487
REMARK INTRA:                   0.895
REMARK UNBOUND:                 0.880
REMARK  7 active torsions:
REMARK  status: ('A' for Active; 'I' for Inactive)
REMARK    1  A    between atoms: C_13  and  C_14 
REMARK    2  A    between atoms: C_14  and  C_19 
REMARK    3  A    between atoms: C_15  and  C_20 
REMARK    4  A    between atoms: C_16  and  C_21 
REMARK    5  A    between atoms: C_17  and  C_23 
REMARK    6  A    between atoms: C_18  and  C_26 
REMARK    7  A    between atoms: C_22  and  C_28 
ROOT
HETATM    1  O   UNL     1      26.824  26.818  30.468  1.00  0.00    -0.304 OA
HETATM    2  O   UNL     1      28.907  22.027  30.488  1.00  0.00    -0.304 OA
HETATM    3  O   UNL     1      25.987  23.158  34.029  1.00  0.00    -0.304 OA
HETATM    4  O   UNL     1      29.813  25.081  30.254  1.00  0.00    -0.270 OA
HETATM    5  O   UNL     1      25.762  24.872  29.834  1.00  0.00    -0.263 OA
HETATM    6  O   UNL     1      28.023  25.742  32.498  1.00  0.00    -0.270 OA
HETATM    7  O   UNL     1      27.584  20.337  33.982  1.00  0.00    -0.270 OA
HETATM    8  O   UNL     1      29.643  20.024  29.637  1.00  0.00    -0.263 OA
HETATM    9  O   UNL     1      27.657  22.833  35.580  1.00  0.00    -0.263 OA
HETATM   10  N   UNL     1      28.296  24.345  28.659  1.00  0.00    -0.340 N 
HETATM   11  N   UNL     1      26.231  25.775  33.961  1.00  0.00    -0.340 N 
HETATM   12  N   UNL     1      26.866  20.956  31.858  1.00  0.00    -0.340 N 
HETATM   13  C   UNL     1      27.684  25.688  28.584  1.00  0.00     0.190 C 
HETATM   14  C   UNL     1      27.038  25.089  34.993  1.00  0.00     0.190 C 
HETATM   15  C   UNL     1      27.787  20.016  31.185  1.00  0.00     0.190 C 
HETATM   16  C   UNL     1      29.904  22.747  29.737  1.00  0.00     0.227 C 
HETATM   17  C   UNL     1      26.075  26.880  31.701  1.00  0.00     0.227 C 
HETATM   18  C   UNL     1      25.655  21.764  33.897  1.00  0.00     0.227 C 
HETATM   19  C   UNL     1      29.345  24.158  29.578  1.00  0.00     0.250 C 
HETATM   20  C   UNL     1      26.628  25.722  29.676  1.00  0.00     0.283 C 
HETATM   21  C   UNL     1      26.861  26.082  32.746  1.00  0.00     0.250 C 
HETATM   22  C   UNL     1      26.798  20.959  33.261  1.00  0.00     0.250 C 
HETATM   23  C   UNL     1      28.874  20.674  30.338  1.00  0.00     0.283 C 
HETATM   24  C   UNL     1      26.950  23.568  34.898  1.00  0.00     0.283 C 
HETATM   25  C   UNL     1      27.746  23.293  27.800  1.00  0.00     0.153 C 
HETATM   26  C   UNL     1      24.825  26.053  34.262  1.00  0.00     0.153 C 
HETATM   27  C   UNL     1      25.937  21.712  31.017  1.00  0.00     0.153 C 
ENDROOT
BRANCH  17  28
HETATM   28  C   UNL     1      25.995  28.348  32.095  1.00  0.00     0.016 C 
HETATM   29  C   UNL     1      27.383  28.892  32.433  1.00  0.00     0.012 C 
HETATM   30  C   UNL     1      25.355  29.172  30.979  1.00  0.00     0.012 C 
ENDBRANCH  17  28
BRANCH  13  31
HETATM   31  C   UNL     1      27.067  26.067  27.243  1.00  0.00     0.014 C 
HETATM   32  C   UNL     1      26.226  27.335  27.398  1.00  0.00     0.012 C 
BRANCH  31  33
HETATM   33  C   UNL     1      28.171  26.225  26.183  1.00  0.00     0.002 C 
HETATM   34  C   UNL     1      27.714  26.951  24.926  1.00  0.00     0.005 C 
ENDBRANCH  31  33
ENDBRANCH  13  31
BRANCH  14  35
HETATM   35  C   UNL     1      26.718  25.535  36.420  1.00  0.00     0.010 C 
HETATM   36  C   UNL     1      25.737  24.569  37.081  1.00  0.00     0.012 C 
HETATM   37  C   UNL     1      27.997  25.650  37.250  1.00  0.00     0.012 C 
ENDBRANCH  14  35
BRANCH  16  38
HETATM   38  C   UNL     1      31.210  22.743  30.528  1.00  0.00     0.016 C 
HETATM   39  C   UNL     1      32.262  21.884  29.829  1.00  0.00     0.012 C 
HETATM   40  C   UNL     1      30.975  22.247  31.954  1.00  0.00     0.012 C 
ENDBRANCH  16  38
BRANCH  18  41
HETATM   41  C   UNL     1      25.177  21.167  35.220  1.00  0.00     0.016 C 
HETATM   42  C   UNL     1      25.028  19.652  35.102  1.00  0.00     0.012 C 
HETATM   43  C   UNL     1      23.857  21.804  35.651  1.00  0.00     0.012 C 
ENDBRANCH  18  41
BRANCH  15  44
HETATM   44  C   UNL     1      27.020  18.980  30.362  1.00  0.00     0.010 C 
HETATM   45  C   UNL     1      27.604  17.587  30.579  1.00  0.00     0.012 C 
HETATM   46  C   UNL     1      27.045  19.350  28.882  1.00  0.00     0.012 C 
ENDBRANCH  15  44
TORSDOF 7
ENDMDL
MODEL 4
REMARK VINA RESULT:    -7.186      1.948      6.819
REMARK INTER + INTRA:          -9.246
REMARK INTER:                 -10.156
REMARK INTRA:                   0.911
REMARK UNBOUND:                 0.880
REMARK  7 active torsions:
REMARK  status: ('A' for Active; 'I' for Inactive)
REMARK    1  A    between atoms: C_13  and  C_14 
REMARK    2  A    between atoms: C_14  and  C_19 
REMARK    3  A    between atoms: C_15  and  C_20 
REMARK    4  A    between atoms: C_16  and  C_21 
REMARK    5  A    between atoms: C_17  and  C_23 
REMARK    6  A    between atoms: C_18  and  C_26 
REMARK    7  A    between atoms: C_22  and  C_28 
ROOT
HETATM    1  O   UNL     1      29.617  21.468  34.727  1.00  0.00    -0.304 OA
HETATM    2  O   UNL     1      27.922  22.206  29.841  1.00  0.00    -0.304 OA
HETATM    3  O   UNL     1      26.201  25.046  33.206  1.00  0.00    -0.304 OA
HETATM    4  O   UNL     1      28.247  19.859  31.983  1.00  0.00    -0.270 OA
HETATM    5  O   UNL     1      30.312  23.127  33.284  1.00  0.00    -0.263 OA
HETATM    6  O   UNL     1      27.122  21.637  34.044  1.00  0.00    -0.270 OA
HETATM    7  O   UNL     1      25.097  25.162  30.160  1.00  0.00    -0.270 OA
HETATM    8  O   UNL     1      28.035  22.371  27.552  1.00  0.00    -0.263 OA
HETATM    9  O   UNL     1      24.057  24.312  32.802  1.00  0.00    -0.263 OA
HETATM   10  N   UNL     1      30.191  20.991  31.411  1.00  0.00    -0.340 N 
HETATM   11  N   UNL     1      26.590  23.505  35.301  1.00  0.00    -0.340 N 
HETATM   12  N   UNL     1      27.395  24.806  30.230  1.00  0.00    -0.340 N 
HETATM   13  C   UNL     1      30.740  20.787  32.768  1.00  0.00     0.190 C 
HETATM   14  C   UNL     1      25.214  23.502  34.757  1.00  0.00     0.190 C 
HETATM   15  C   UNL     1      27.447  24.336  28.830  1.00  0.00     0.190 C 
HETATM   16  C   UNL     1      28.284  20.812  29.789  1.00  0.00     0.227 C 
HETATM   17  C   UNL     1      28.848  22.408  35.510  1.00  0.00     0.227 C 
HETATM   18  C   UNL     1      26.230  25.981  32.113  1.00  0.00     0.227 C 
HETATM   19  C   UNL     1      28.896  20.506  31.153  1.00  0.00     0.250 C 
HETATM   20  C   UNL     1      30.224  21.948  33.602  1.00  0.00     0.283 C 
HETATM   21  C   UNL     1      27.453  22.481  34.884  1.00  0.00     0.250 C 
HETATM   22  C   UNL     1      26.176  25.274  30.751  1.00  0.00     0.250 C 
HETATM   23  C   UNL     1      27.846  22.873  28.656  1.00  0.00     0.283 C 
HETATM   24  C   UNL     1      25.086  24.314  33.470  1.00  0.00     0.283 C 
HETATM   25  C   UNL     1      31.016  21.717  30.441  1.00  0.00     0.153 C 
HETATM   26  C   UNL     1      26.966  24.593  36.205  1.00  0.00     0.153 C 
HETATM   27  C   UNL     1      28.664  24.930  30.950  1.00  0.00     0.153 C 
ENDROOT
BRANCH  17  28
HETATM   28  C   UNL     1      28.774  21.847  36.923  1.00  0.00     0.016 C 
HETATM   29  C   UNL     1      27.492  21.038  37.116  1.00  0.00     0.012 C 
HETATM   30  C   UNL     1      30.000  20.986  37.227  1.00  0.00     0.012 C 
ENDBRANCH  17  28
BRANCH  13  31
HETATM   31  C   UNL     1      32.259  20.701  32.868  1.00  0.00     0.014 C 
HETATM   32  C   UNL     1      32.707  21.062  34.285  1.00  0.00     0.012 C 
BRANCH  31  33
HETATM   33  C   UNL     1      32.734  19.300  32.444  1.00  0.00     0.002 C 
HETATM   34  C   UNL     1      33.805  19.318  31.362  1.00  0.00     0.005 C 
ENDBRANCH  31  33
ENDBRANCH  13  31
BRANCH  14  35
HETATM   35  C   UNL     1      24.155  23.956  35.761  1.00  0.00     0.010 C 
HETATM   36  C   UNL     1      23.628  25.343  35.400  1.00  0.00     0.012 C 
HETATM   37  C   UNL     1      23.007  22.949  35.827  1.00  0.00     0.012 C 
ENDBRANCH  14  35
BRANCH  16  38
HETATM   38  C   UNL     1      27.023  19.988  29.539  1.00  0.00     0.016 C 
HETATM   39  C   UNL     1      27.089  19.303  28.175  1.00  0.00     0.012 C 
HETATM   40  C   UNL     1      25.777  20.866  29.637  1.00  0.00     0.012 C 
ENDBRANCH  16  38
BRANCH  18  41
HETATM   41  C   UNL     1      25.158  27.060  32.260  1.00  0.00     0.016 C 
HETATM   42  C   UNL     1      25.168  27.995  31.053  1.00  0.00     0.012 C 
HETATM   43  C   UNL     1      25.365  27.849  33.551  1.00  0.00     0.012 C 
ENDBRANCH  18  41
BRANCH  15  44
HETATM   44  C   UNL     1      28.335  25.239  27.973  1.00  0.00     0.010 C 
HETATM   45  C   UNL     1      27.623  25.612  26.676  1.00  0.00     0.012 C 
HETATM   46  C   UNL     1      29.667  24.555  27.680  1.00  0.00     0.012 C 
ENDBRANCH  15  44
TORSDOF 7
ENDMDL
MODEL 5
REMARK VINA RESULT:    -7.102     21.178     23.553
REMARK INTER + INTRA:          -9.127
REMARK INTER:                 -11.981
REMARK INTRA:                   2.853
REMARK UNBOUND:                 0.880
REMARK  7 active torsions:
REMARK  status: ('A' for Active; 'I' for Inactive)
REMARK    1  A    between atoms: C_13  and  C_14 
REMARK    2  A    between atoms: C_14  and  C_19 
REMARK    3  A    between atoms: C_15  and  C_20 
REMARK    4  A    between atoms: C_16  and  C_21 
REMARK    5  A    between atoms: C_17  and  C_23 
REMARK    6  A    between atoms: C_18  and  C_26 
REMARK    7  A    between atoms: C_22  and  C_28 
ROOT
HETATM    1  O   UNL     1      37.069  23.084  12.056  1.00  0.00    -0.304 OA
HETATM    2  O   UNL     1      34.679  27.651  11.205  1.00  0.00    -0.304 OA
HETATM    3  O   UNL     1      32.006  23.752  11.219  1.00  0.00    -0.304 OA
HETATM    4  O   UNL     1      37.156  25.953  10.118  1.00  0.00    -0.270 OA
HETATM    5  O   UNL     1      35.836  24.280  13.595  1.00  0.00    -0.263 OA
HETATM    6  O   UNL     1      35.448  23.554  10.089  1.00  0.00    -0.270 OA
HETATM    7  O   UNL     1      30.772  26.652  10.461  1.00  0.00    -0.270 OA
HETATM    8  O   UNL     1      34.203  29.883  11.465  1.00  0.00    -0.263 OA
HETATM    9  O   UNL     1      31.365  24.119   9.039  1.00  0.00    -0.263 OA
HETATM   10  N   UNL     1      37.189  26.465  12.381  1.00  0.00    -0.340 N 
HETATM   11  N   UNL     1      33.849  21.972  10.629  1.00  0.00    -0.340 N 
HETATM   12  N   UNL     1      32.330  26.803  12.182  1.00  0.00    -0.340 N 
HETATM   13  C   UNL     1      37.895  25.203  12.683  1.00  0.00     0.190 C 
HETATM   14  C   UNL     1      33.005  22.411   9.497  1.00  0.00     0.190 C 
HETATM   15  C   UNL     1      32.497  28.261  12.012  1.00  0.00     0.190 C 
HETATM   16  C   UNL     1      36.009  27.957  10.743  1.00  0.00     0.227 C 
HETATM   17  C   UNL     1      36.018  22.105  11.905  1.00  0.00     0.227 C 
HETATM   18  C   UNL     1      31.063  24.675  11.793  1.00  0.00     0.227 C 
HETATM   19  C   UNL     1      36.835  26.709  11.042  1.00  0.00     0.250 C 
HETATM   20  C   UNL     1      36.809  24.155  12.863  1.00  0.00     0.283 C 
HETATM   21  C   UNL     1      35.086  22.611  10.801  1.00  0.00     0.250 C 
HETATM   22  C   UNL     1      31.373  26.128  11.404  1.00  0.00     0.250 C 
HETATM   23  C   UNL     1      33.883  28.702  11.547  1.00  0.00     0.283 C 
HETATM   24  C   UNL     1      32.043  23.534   9.877  1.00  0.00     0.283 C 
HETATM   25  C   UNL     1      36.875  27.359  13.501  1.00  0.00     0.153 C 
HETATM   26  C   UNL     1      33.322  20.929  11.512  1.00  0.00     0.153 C 
HETATM   27  C   UNL     1      33.048  26.163  13.285  1.00  0.00     0.153 C 
ENDROOT
BRANCH  17  28
HETATM   28  C   UNL     1      36.686  20.802  11.489  1.00  0.00     0.016 C 
HETATM   29  C   UNL     1      38.191  20.999  11.317  1.00  0.00     0.012 C 
HETATM   30  C   UNL     1      36.403  19.701  12.510  1.00  0.00     0.012 C 
ENDBRANCH  17  28
BRANCH  13  31
HETATM   31  C   UNL     1      38.812  25.225  13.901  1.00  0.00     0.014 C 
HETATM   32  C   UNL     1      38.988  23.806  14.445  1.00  0.00     0.012 C 
BRANCH  31  33
HETATM   33  C   UNL     1      40.156  25.880  13.534  1.00  0.00     0.002 C 
HETATM   34  C   UNL     1      40.267  27.334  13.971  1.00  0.00     0.005 C 
ENDBRANCH  31  33
ENDBRANCH  13  31
BRANCH  14  35
HETATM   35  C   UNL     1      32.232  21.274   8.829  1.00  0.00     0.010 C 
HETATM   36  C   UNL     1      31.720  20.283   9.872  1.00  0.00     0.012 C 
HETATM   37  C   UNL     1      31.071  21.825   8.000  1.00  0.00     0.012 C 
ENDBRANCH  14  35
BRANCH  16  38
HETATM   38  C   UNL     1      35.952  28.251   9.247  1.00  0.00     0.016 C 
HETATM   39  C   UNL     1      36.413  29.679   8.959  1.00  0.00     0.012 C 
HETATM   40  C   UNL     1      34.541  28.025   8.706  1.00  0.00     0.012 C 
ENDBRANCH  16  38
BRANCH  18  41
HETATM   41  C   UNL     1      29.620  24.277  11.486  1.00  0.00     0.016 C 
HETATM   42  C   UNL     1      28.644  25.138  12.285  1.00  0.00     0.012 C 
HETATM   43  C   UNL     1      29.397  22.796  11.784  1.00  0.00     0.012 C 
ENDBRANCH  18  41
BRANCH  15  44
HETATM   44  C   UNL     1      32.091  29.018  13.277  1.00  0.00     0.010 C 
HETATM   45  C   UNL     1      31.521  30.388  12.921  1.00  0.00     0.012 C 
HETATM   46  C   UNL     1      33.282  29.158  14.220  1.00  0.00     0.012 C 
ENDBRANCH  15  44
TORSDOF 7
ENDMDL
MODEL 6
REMARK VINA RESULT:    -6.968      2.171      6.843
REMARK INTER + INTRA:          -8.939
REMARK INTER:                 -10.042
REMARK INTRA:                   1.103
REMARK UNBOUND:                 0.880
REMARK  7 active torsions:
REMARK  status: ('A' for Active; 'I' for Inactive)
REMARK    1  A    between atoms: C_13  and  C_14 
REMARK    2  A    between atoms: C_14  and  C_19 
REMARK    3  A    between atoms: C_15  and  C_20 
REMARK    4  A    between atoms: C_16  and  C_21 
REMARK    5  A    between atoms: C_17  and  C_23 
REMARK    6  A    between atoms: C_18  and  C_26 
REMARK    7  A    between atoms: C_22  and  C_28 
ROOT
HETATM    1  O   UNL     1      27.546  20.668  30.416  1.00  0.00    -0.304 OA
HETATM    2  O   UNL     1      26.956  25.817  31.077  1.00  0.00    -0.304 OA
HETATM    3  O   UNL     1      26.298  23.038  34.843  1.00  0.00    -0.304 OA
HETATM    4  O   UNL     1      25.941  23.470  29.163  1.00  0.00    -0.270 OA
HETATM    5  O   UNL     1      29.076  22.098  31.381  1.00  0.00    -0.263 OA
HETATM    6  O   UNL     1      25.492  21.783  31.535  1.00  0.00    -0.270 OA
HETATM    7  O   UNL     1      25.735  26.228  34.969  1.00  0.00    -0.270 OA
HETATM    8  O   UNL     1      27.404  28.057  30.835  1.00  0.00    -0.263 OA
HETATM    9  O   UNL     1      24.117  23.745  35.050  1.00  0.00    -0.263 OA
HETATM   10  N   UNL     1      28.238  23.786  29.253  1.00  0.00    -0.340 N 
HETATM   11  N   UNL     1      25.703  20.791  33.614  1.00  0.00    -0.340 N 
HETATM   12  N   UNL     1      27.605  25.734  33.677  1.00  0.00    -0.340 N 
HETATM   13  C   UNL     1      28.471  22.343  29.037  1.00  0.00     0.190 C 
HETATM   14  C   UNL     1      24.548  21.562  34.121  1.00  0.00     0.190 C 
HETATM   15  C   UNL     1      27.608  27.062  33.028  1.00  0.00     0.190 C 
HETATM   16  C   UNL     1      26.661  25.693  29.671  1.00  0.00     0.227 C 
HETATM   17  C   UNL     1      27.191  20.107  31.699  1.00  0.00     0.227 C 
HETATM   18  C   UNL     1      26.872  24.181  35.503  1.00  0.00     0.227 C 
HETATM   19  C   UNL     1      26.904  24.224  29.338  1.00  0.00     0.250 C 
HETATM   20  C   UNL     1      28.433  21.707  30.416  1.00  0.00     0.283 C 
HETATM   21  C   UNL     1      26.061  20.969  32.270  1.00  0.00     0.250 C 
HETATM   22  C   UNL     1      26.671  25.471  34.693  1.00  0.00     0.250 C 
HETATM   23  C   UNL     1      27.329  27.047  31.527  1.00  0.00     0.283 C 
HETATM   24  C   UNL     1      24.950  22.912  34.709  1.00  0.00     0.283 C 
HETATM   25  C   UNL     1      29.410  24.655  29.401  1.00  0.00     0.153 C 
HETATM   26  C   UNL     1      26.416  19.925  34.557  1.00  0.00     0.153 C 
HETATM   27  C   UNL     1      28.699  24.818  33.349  1.00  0.00     0.153 C 
ENDROOT
BRANCH  17  28
HETATM   28  C   UNL     1      26.706  18.688  31.440  1.00  0.00     0.016 C 
HETATM   29  C   UNL     1      25.944  18.611  30.118  1.00  0.00     0.012 C 
HETATM   30  C   UNL     1      27.879  17.709  31.439  1.00  0.00     0.012 C 
ENDBRANCH  17  28
BRANCH  13  31
HETATM   31  C   UNL     1      29.768  21.976  28.323  1.00  0.00     0.014 C 
HETATM   32  C   UNL     1      30.122  20.515  28.610  1.00  0.00     0.012 C 
BRANCH  31  33
HETATM   33  C   UNL     1      29.637  22.260  26.817  1.00  0.00     0.002 C 
HETATM   34  C   UNL     1      30.723  21.607  25.974  1.00  0.00     0.005 C 
ENDBRANCH  31  33
ENDBRANCH  13  31
BRANCH  14  35
HETATM   35  C   UNL     1      23.691  20.796  35.129  1.00  0.00     0.010 C 
HETATM   36  C   UNL     1      23.674  21.512  36.477  1.00  0.00     0.012 C 
HETATM   37  C   UNL     1      22.268  20.615  34.601  1.00  0.00     0.012 C 
ENDBRANCH  14  35
BRANCH  16  38
HETATM   38  C   UNL     1      25.205  26.091  29.441  1.00  0.00     0.016 C 
HETATM   39  C   UNL     1      25.121  27.441  28.731  1.00  0.00     0.012 C 
HETATM   40  C   UNL     1      24.441  26.132  30.763  1.00  0.00     0.012 C 
ENDBRANCH  16  38
BRANCH  18  41
HETATM   41  C   UNL     1      26.385  24.308  36.946  1.00  0.00     0.016 C 
HETATM   42  C   UNL     1      27.194  25.366  37.693  1.00  0.00     0.012 C 
HETATM   43  C   UNL     1      26.472  22.962  37.661  1.00  0.00     0.012 C 
ENDBRANCH  18  41
BRANCH  15  44
HETATM   44  C   UNL     1      28.900  27.823  33.325  1.00  0.00     0.010 C 
HETATM   45  C   UNL     1      29.702  27.111  34.411  1.00  0.00     0.012 C 
HETATM   46  C   UNL     1      28.592  29.259  33.736  1.00  0.00     0.012 C 
ENDBRANCH  15  44
TORSDOF 7
ENDMDL
MODEL 7
REMARK VINA RESULT:    -6.964      2.293      6.971
REMARK INTER + INTRA:          -8.934
REMARK INTER:                 -10.401
REMARK INTRA:                   1.467
REMARK UNBOUND:                 0.880
REMARK  7 active torsions:
REMARK  status: ('A' for Active; 'I' for Inactive)
REMARK    1  A    between atoms: C_13  and  C_14 
REMARK    2  A    between atoms: C_14  and  C_19 
REMARK    3  A    between atoms: C_15  and  C_20 
REMARK    4  A    between atoms: C_16  and  C_21 
REMARK    5  A    between atoms: C_17  and  C_23 
REMARK    6  A    between atoms: C_18  and  C_26 
REMARK    7  A    between atoms: C_22  and  C_28 
ROOT
HETATM    1  O   UNL     1      30.983  21.691  32.054  1.00  0.00    -0.304 OA
HETATM    2  O   UNL     1      26.578  22.888  29.513  1.00  0.00    -0.304 OA
HETATM    3  O   UNL     1      27.464  25.176  33.553  1.00  0.00    -0.304 OA
HETATM    4  O   UNL     1      28.143  20.330  30.614  1.00  0.00    -0.270 OA
HETATM    5  O   UNL     1      30.635  23.556  30.742  1.00  0.00    -0.263 OA
HETATM    6  O   UNL     1      28.631  21.765  33.139  1.00  0.00    -0.270 OA
HETATM    7  O   UNL     1      24.674  25.578  31.953  1.00  0.00    -0.270 OA
HETATM    8  O   UNL     1      25.210  23.333  27.722  1.00  0.00    -0.263 OA
HETATM    9  O   UNL     1      25.539  24.347  34.506  1.00  0.00    -0.263 OA
HETATM   10  N   UNL     1      29.300  21.657  29.101  1.00  0.00    -0.340 N 
HETATM   11  N   UNL     1      29.064  23.426  34.690  1.00  0.00    -0.340 N 
HETATM   12  N   UNL     1      26.480  25.379  30.499  1.00  0.00    -0.340 N 
HETATM   13  C   UNL     1      30.583  21.331  29.757  1.00  0.00     0.190 C 
HETATM   14  C   UNL     1      27.659  23.391  35.148  1.00  0.00     0.190 C 
HETATM   15  C   UNL     1      25.616  25.085  29.337  1.00  0.00     0.190 C 
HETATM   16  C   UNL     1      26.793  21.539  29.053  1.00  0.00     0.227 C 
HETATM   17  C   UNL     1      30.913  22.474  33.266  1.00  0.00     0.227 C 
HETATM   18  C   UNL     1      26.810  26.235  32.832  1.00  0.00     0.227 C 
HETATM   19  C   UNL     1      28.128  21.116  29.659  1.00  0.00     0.250 C 
HETATM   20  C   UNL     1      30.744  22.344  30.878  1.00  0.00     0.283 C 
HETATM   21  C   UNL     1      29.441  22.523  33.685  1.00  0.00     0.250 C 
HETATM   22  C   UNL     1      25.884  25.694  31.733  1.00  0.00     0.250 C 
HETATM   23  C   UNL     1      25.779  23.685  28.751  1.00  0.00     0.283 C 
HETATM   24  C   UNL     1      26.757  24.341  34.362  1.00  0.00     0.283 C 
HETATM   25  C   UNL     1      29.332  22.549  27.939  1.00  0.00     0.153 C 
HETATM   26  C   UNL     1      29.956  24.423  35.288  1.00  0.00     0.153 C 
HETATM   27  C   UNL     1      27.918  25.505  30.259  1.00  0.00     0.153 C 
ENDROOT
BRANCH  17  28
HETATM   28  C   UNL     1      31.744  21.744  34.311  1.00  0.00     0.016 C 
HETATM   29  C   UNL     1      31.018  20.490  34.798  1.00  0.00     0.012 C 
HETATM   30  C   UNL     1      33.119  21.382  33.750  1.00  0.00     0.012 C 
ENDBRANCH  17  28
BRANCH  13  31
HETATM   31  C   UNL     1      31.814  21.340  28.858  1.00  0.00     0.014 C 
HETATM   32  C   UNL     1      33.062  21.643  29.690  1.00  0.00     0.012 C 
BRANCH  31  33
HETATM   33  C   UNL     1      31.925  20.003  28.105  1.00  0.00     0.002 C 
HETATM   34  C   UNL     1      33.331  19.420  28.095  1.00  0.00     0.005 C 
ENDBRANCH  31  33
ENDBRANCH  13  31
BRANCH  14  35
HETATM   35  C   UNL     1      27.494  23.646  36.646  1.00  0.00     0.010 C 
HETATM   36  C   UNL     1      26.885  25.024  36.895  1.00  0.00     0.012 C 
HETATM   37  C   UNL     1      26.633  22.558  37.287  1.00  0.00     0.012 C 
ENDBRANCH  14  35
BRANCH  16  38
HETATM   38  C   UNL     1      25.644  20.664  29.548  1.00  0.00     0.016 C 
HETATM   39  C   UNL     1      25.467  20.812  31.058  1.00  0.00     0.012 C 
HETATM   40  C   UNL     1      25.883  19.201  29.178  1.00  0.00     0.012 C 
ENDBRANCH  16  38
BRANCH  18  41
HETATM   41  C   UNL     1      26.102  27.211  33.772  1.00  0.00     0.016 C 
HETATM   42  C   UNL     1      25.251  28.199  32.979  1.00  0.00     0.012 C 
HETATM   43  C   UNL     1      27.118  27.952  34.639  1.00  0.00     0.012 C 
ENDBRANCH  18  41
BRANCH  15  44
HETATM   44  C   UNL     1      25.773  26.144  28.246  1.00  0.00     0.010 C 
HETATM   45  C   UNL     1      27.108  25.977  27.526  1.00  0.00     0.012 C 
HETATM   46  C   UNL     1      25.652  27.544  28.840  1.00  0.00     0.012 C 
ENDBRANCH  15  44
TORSDOF 7
ENDMDL
MODEL 8
REMARK VINA RESULT:    -6.678      1.731      8.082
REMARK INTER + INTRA:          -8.530
REMARK INTER:                  -9.163
REMARK INTRA:                   0.633
REMARK UNBOUND:                 0.880
REMARK  7 active torsions:
REMARK  status: ('A' for Active; 'I' for Inactive)
REMARK    1  A    between atoms: C_13  and  C_14 
REMARK    2  A    between atoms: C_14  and  C_19 
REMARK    3  A    between atoms: C_15  and  C_20 
REMARK    4  A    between atoms: C_16  and  C_21 
REMARK    5  A    between atoms: C_17  and  C_23 
REMARK    6  A    between atoms: C_18  and  C_26 
REMARK    7  A    between atoms: C_22  and  C_28 
ROOT
HETATM    1  O   UNL     1      28.569  23.088  29.507  1.00  0.00    -0.304 OA
HETATM    2  O   UNL     1      29.019  21.307  34.397  1.00  0.00    -0.304 OA
HETATM    3  O   UNL     1      26.041  24.899  33.643  1.00  0.00    -0.304 OA
HETATM    4  O   UNL     1      30.858  22.320  31.990  1.00  0.00    -0.270 OA
HETATM    5  O   UNL     1      27.077  21.705  30.592  1.00  0.00    -0.263 OA
HETATM    6  O   UNL     1      29.010  24.577  31.582  1.00  0.00    -0.270 OA
HETATM    7  O   UNL     1      26.664  23.811  36.632  1.00  0.00    -0.270 OA
HETATM    8  O   UNL     1      29.228  19.767  36.090  1.00  0.00    -0.263 OA
HETATM    9  O   UNL     1      27.238  26.259  35.063  1.00  0.00    -0.263 OA
HETATM   10  N   UNL     1      29.481  20.511  31.526  1.00  0.00    -0.340 N 
HETATM   11  N   UNL     1      27.097  25.870  31.439  1.00  0.00    -0.340 N 
HETATM   12  N   UNL     1      26.545  22.073  35.090  1.00  0.00    -0.340 N 
HETATM   13  C   UNL     1      29.340  20.945  30.121  1.00  0.00     0.190 C 
HETATM   14  C   UNL     1      27.462  26.580  32.684  1.00  0.00     0.190 C 
HETATM   15  C   UNL     1      27.227  21.120  35.990  1.00  0.00     0.190 C 
HETATM   16  C   UNL     1      30.304  20.935  33.860  1.00  0.00     0.227 C 
HETATM   17  C   UNL     1      27.679  24.219  29.626  1.00  0.00     0.227 C 
HETATM   18  C   UNL     1      25.318  24.221  34.686  1.00  0.00     0.227 C 
HETATM   19  C   UNL     1      30.247  21.320  32.384  1.00  0.00     0.250 C 
HETATM   20  C   UNL     1      28.178  21.924  30.105  1.00  0.00     0.283 C 
HETATM   21  C   UNL     1      27.988  24.896  30.965  1.00  0.00     0.250 C 
HETATM   22  C   UNL     1      26.244  23.362  35.561  1.00  0.00     0.250 C 
HETATM   23  C   UNL     1      28.592  20.638  35.504  1.00  0.00     0.283 C 
HETATM   24  C   UNL     1      26.922  25.894  33.936  1.00  0.00     0.283 C 
HETATM   25  C   UNL     1      28.784  19.288  31.938  1.00  0.00     0.153 C 
HETATM   26  C   UNL     1      25.818  26.205  30.809  1.00  0.00     0.153 C 
HETATM   27  C   UNL     1      26.055  21.562  33.809  1.00  0.00     0.153 C 
ENDROOT
BRANCH  17  28
HETATM   28  C   UNL     1      27.995  25.153  28.467  1.00  0.00     0.016 C 
HETATM   29  C   UNL     1      29.300  24.744  27.786  1.00  0.00     0.012 C 
HETATM   30  C   UNL     1      26.847  25.169  27.458  1.00  0.00     0.012 C 
ENDBRANCH  17  28
BRANCH  13  31
HETATM   31  C   UNL     1      29.109  19.837  29.099  1.00  0.00     0.014 C 
HETATM   32  C   UNL     1      28.327  20.387  27.905  1.00  0.00     0.012 C 
BRANCH  31  33
HETATM   33  C   UNL     1      30.455  19.220  28.681  1.00  0.00     0.002 C 
HETATM   34  C   UNL     1      31.596  20.225  28.616  1.00  0.00     0.005 C 
ENDBRANCH  31  33
ENDBRANCH  13  31
BRANCH  14  35
HETATM   35  C   UNL     1      27.060  28.055  32.691  1.00  0.00     0.010 C 
HETATM   36  C   UNL     1      25.839  28.278  33.581  1.00  0.00     0.012 C 
HETATM   37  C   UNL     1      28.225  28.930  33.152  1.00  0.00     0.012 C 
ENDBRANCH  14  35
BRANCH  16  38
HETATM   38  C   UNL     1      31.389  21.708  34.604  1.00  0.00     0.016 C 
HETATM   39  C   UNL     1      32.298  20.753  35.376  1.00  0.00     0.012 C 
HETATM   40  C   UNL     1      30.767  22.736  35.548  1.00  0.00     0.012 C 
ENDBRANCH  16  38
BRANCH  18  41
HETATM   41  C   UNL     1      24.461  25.186  35.503  1.00  0.00     0.016 C 
HETATM   42  C   UNL     1      23.642  24.426  36.544  1.00  0.00     0.012 C 
HETATM   43  C   UNL     1      23.546  25.998  34.589  1.00  0.00     0.012 C 
ENDBRANCH  18  41
BRANCH  15  44
HETATM   44  C   UNL     1      26.327  19.930  36.325  1.00  0.00     0.010 C 
HETATM   45  C   UNL     1      26.491  19.531  37.789  1.00  0.00     0.012 C 
HETATM   46  C   UNL     1      26.637  18.751  35.407  1.00  0.00     0.012 C 
ENDBRANCH  15  44
TORSDOF 7
ENDMDL
MODEL 9
REMARK VINA RESULT:    -6.537      2.210      7.055
REMARK INTER + INTRA:          -8.331
REMARK INTER:                  -9.745
REMARK INTRA:                   1.414
REMARK UNBOUND:                 0.880
REMARK  7 active torsions:
REMARK  status: ('A' for Active; 'I' for Inactive)
REMARK    1  A    between atoms: C_13  and  C_14 
REMARK    2  A    between atoms: C_14  and  C_19 
REMARK    3  A    between atoms: C_15  and  C_20 
REMARK    4  A    between atoms: C_16  and  C_21 
REMARK    5  A    between atoms: C_17  and  C_23 
REMARK    6  A    between atoms: C_18  and  C_26 
REMARK    7  A    between atoms: C_22  and  C_28 
ROOT
HETATM    1  O   UNL     1      31.114  21.316  32.124  1.00  0.00    -0.304 OA
HETATM    2  O   UNL     1      26.388  22.250  30.103  1.00  0.00    -0.304 OA
HETATM    3  O   UNL     1      26.974  23.000  34.733  1.00  0.00    -0.304 OA
HETATM    4  O   UNL     1      28.590  19.938  30.194  1.00  0.00    -0.270 OA
HETATM    5  O   UNL     1      30.242  23.388  31.609  1.00  0.00    -0.263 OA
HETATM    6  O   UNL     1      28.892  20.395  33.089  1.00  0.00    -0.270 OA
HETATM    7  O   UNL     1      24.067  23.270  33.325  1.00  0.00    -0.270 OA
HETATM    8  O   UNL     1      24.834  22.981  28.577  1.00  0.00    -0.263 OA
HETATM    9  O   UNL     1      25.373  21.427  35.244  1.00  0.00    -0.263 OA
HETATM   10  N   UNL     1      29.291  21.976  29.333  1.00  0.00    -0.340 N 
HETATM   11  N   UNL     1      29.020  21.405  35.165  1.00  0.00    -0.340 N 
HETATM   12  N   UNL     1      25.765  24.083  31.958  1.00  0.00    -0.340 N 
HETATM   13  C   UNL     1      30.656  21.755  29.853  1.00  0.00     0.190 C 
HETATM   14  C   UNL     1      27.698  20.856  35.536  1.00  0.00     0.190 C 
HETATM   15  C   UNL     1      24.919  24.042  30.747  1.00  0.00     0.190 C 
HETATM   16  C   UNL     1      26.887  21.270  29.171  1.00  0.00     0.227 C 
HETATM   17  C   UNL     1      30.941  21.544  33.540  1.00  0.00     0.227 C 
HETATM   18  C   UNL     1      26.038  24.055  34.450  1.00  0.00     0.227 C 
HETATM   19  C   UNL     1      28.322  20.994  29.610  1.00  0.00     0.250 C 
HETATM   20  C   UNL     1      30.646  22.281  31.279  1.00  0.00     0.283 C 
HETATM   21  C   UNL     1      29.532  21.068  33.904  1.00  0.00     0.250 C 
HETATM   22  C   UNL     1      25.196  23.755  33.201  1.00  0.00     0.250 C 
HETATM   23  C   UNL     1      25.372  23.051  29.678  1.00  0.00     0.283 C 
HETATM   24  C   UNL     1      26.544  21.776  35.144  1.00  0.00     0.283 C 
HETATM   25  C   UNL     1      29.030  23.217  28.598  1.00  0.00     0.153 C 
HETATM   26  C   UNL     1      29.686  22.292  36.123  1.00  0.00     0.153 C 
HETATM   27  C   UNL     1      27.111  24.640  31.825  1.00  0.00     0.153 C 
ENDROOT
BRANCH  17  28
HETATM   28  C   UNL     1      31.992  20.705  34.253  1.00  0.00     0.016 C 
HETATM   29  C   UNL     1      31.748  19.216  34.012  1.00  0.00     0.012 C 
HETATM   30  C   UNL     1      33.396  21.098  33.797  1.00  0.00     0.012 C 
ENDBRANCH  17  28
BRANCH  13  31
HETATM   31  C   UNL     1      31.785  22.404  29.060  1.00  0.00     0.014 C 
HETATM   32  C   UNL     1      33.103  22.267  29.826  1.00  0.00     0.012 C 
BRANCH  31  33
HETATM   33  C   UNL     1      31.861  21.788  27.652  1.00  0.00     0.002 C 
HETATM   34  C   UNL     1      32.282  20.325  27.647  1.00  0.00     0.005 C 
ENDBRANCH  31  33
ENDBRANCH  13  31
BRANCH  14  35
HETATM   35  C   UNL     1      27.579  20.481  37.013  1.00  0.00     0.010 C 
HETATM   36  C   UNL     1      26.671  21.465  37.748  1.00  0.00     0.012 C 
HETATM   37  C   UNL     1      27.057  19.053  37.168  1.00  0.00     0.012 C 
ENDBRANCH  14  35
BRANCH  16  38
HETATM   38  C   UNL     1      26.017  20.019  29.265  1.00  0.00     0.016 C 
HETATM   39  C   UNL     1      25.864  19.576  30.719  1.00  0.00     0.012 C 
HETATM   40  C   UNL     1      26.605  18.890  28.420  1.00  0.00     0.012 C 
ENDBRANCH  16  38
BRANCH  18  41
HETATM   41  C   UNL     1      25.184  24.400  35.669  1.00  0.00     0.016 C 
HETATM   42  C   UNL     1      24.128  25.441  35.307  1.00  0.00     0.012 C 
HETATM   43  C   UNL     1      26.062  24.902  36.814  1.00  0.00     0.012 C 
ENDBRANCH  18  41
BRANCH  15  44
HETATM   44  C   UNL     1      24.744  25.436  30.145  1.00  0.00     0.010 C 
HETATM   45  C   UNL     1      26.040  25.902  29.487  1.00  0.00     0.012 C 
HETATM   46  C   UNL     1      24.296  26.428  31.215  1.00  0.00     0.012 C 
ENDBRANCH  15  44
TORSDOF 7
ENDMDL
MODEL 10
REMARK VINA RESULT:    -6.422      2.328      5.755
REMARK INTER + INTRA:          -8.170
REMARK INTER:                  -8.941
REMARK INTRA:                   0.771
REMARK UNBOUND:                 0.880
REMARK  7 active torsions:
REMARK  status: ('A' for Active; 'I' for Inactive)
REMARK    1  A    between atoms: C_13  and  C_14 
REMARK    2  A    between atoms: C_14  and  C_19 
REMARK    3  A    between atoms: C_15  and  C_20 
REMARK    4  A    between atoms: C_16  and  C_21 
REMARK    5  A    between atoms: C_17  and  C_23 
REMARK    6  A    between atoms: C_18  and  C_26 
REMARK    7  A    between atoms: C_22  and  C_28 
ROOT
HETATM    1  O   UNL     1      28.721  18.699  30.797  1.00  0.00    -0.304 OA
HETATM    2  O   UNL     1      27.147  22.528  33.984  1.00  0.00    -0.304 OA
HETATM    3  O   UNL     1      28.059  23.661  29.486  1.00  0.00    -0.304 OA
HETATM    4  O   UNL     1      29.343  20.212  33.850  1.00  0.00    -0.270 OA
HETATM    5  O   UNL     1      26.601  19.602  30.893  1.00  0.00    -0.263 OA
HETATM    6  O   UNL     1      29.924  20.979  31.066  1.00  0.00    -0.270 OA
HETATM    7  O   UNL     1      27.319  25.922  31.688  1.00  0.00    -0.270 OA
HETATM    8  O   UNL     1      25.932  23.548  35.646  1.00  0.00    -0.263 OA
HETATM    9  O   UNL     1      29.714  25.124  30.134  1.00  0.00    -0.263 OA
HETATM   10  N   UNL     1      27.132  19.528  33.685  1.00  0.00    -0.340 N 
HETATM   11  N   UNL     1      29.701  21.699  28.879  1.00  0.00    -0.340 N 
HETATM   12  N   UNL     1      26.078  23.979  31.998  1.00  0.00    -0.340 N 
HETATM   13  C   UNL     1      27.517  18.406  32.804  1.00  0.00     0.190 C 
HETATM   14  C   UNL     1      30.347  22.985  29.217  1.00  0.00     0.190 C 
HETATM   15  C   UNL     1      25.695  24.347  33.377  1.00  0.00     0.190 C 
HETATM   16  C   UNL     1      27.740  21.620  34.932  1.00  0.00     0.227 C 
HETATM   17  C   UNL     1      29.001  19.373  29.551  1.00  0.00     0.227 C 
HETATM   18  C   UNL     1      26.973  24.572  29.733  1.00  0.00     0.227 C 
HETATM   19  C   UNL     1      28.150  20.398  34.115  1.00  0.00     0.250 C 
HETATM   20  C   UNL     1      27.522  18.970  31.393  1.00  0.00     0.283 C 
HETATM   21  C   UNL     1      29.577  20.748  29.902  1.00  0.00     0.250 C 
HETATM   22  C   UNL     1      26.820  24.891  31.227  1.00  0.00     0.250 C 
HETATM   23  C   UNL     1      26.250  23.432  34.466  1.00  0.00     0.283 C 
HETATM   24  C   UNL     1      29.350  24.044  29.681  1.00  0.00     0.283 C 
HETATM   25  C   UNL     1      25.712  19.680  34.019  1.00  0.00     0.153 C 
HETATM   26  C   UNL     1      29.204  21.520  27.513  1.00  0.00     0.153 C 
HETATM   27  C   UNL     1      25.507  22.751  31.442  1.00  0.00     0.153 C 
ENDROOT
BRANCH  17  28
HETATM   28  C   UNL     1      30.035  18.530  28.817  1.00  0.00     0.016 C 
HETATM   29  C   UNL     1      30.734  17.574  29.782  1.00  0.00     0.012 C 
HETATM   30  C   UNL     1      29.384  17.754  27.673  1.00  0.00     0.012 C 
ENDBRANCH  17  28
BRANCH  13  31
HETATM   31  C   UNL     1      26.631  17.168  32.873  1.00  0.00     0.014 C 
HETATM   32  C   UNL     1      26.593  16.479  31.508  1.00  0.00     0.012 C 
BRANCH  31  33
HETATM   33  C   UNL     1      27.126  16.228  33.987  1.00  0.00     0.002 C 
HETATM   34  C   UNL     1      26.196  16.161  35.190  1.00  0.00     0.005 C 
ENDBRANCH  31  33
ENDBRANCH  13  31
BRANCH  14  35
HETATM   35  C   UNL     1      31.214  23.553  28.092  1.00  0.00     0.010 C 
HETATM   36  C   UNL     1      30.933  25.041  27.893  1.00  0.00     0.012 C 
HETATM   37  C   UNL     1      32.696  23.322  28.384  1.00  0.00     0.012 C 
ENDBRANCH  14  35
BRANCH  16  38
HETATM   38  C   UNL     1      28.946  22.300  35.574  1.00  0.00     0.016 C 
HETATM   39  C   UNL     1      28.678  22.594  37.049  1.00  0.00     0.012 C 
HETATM   40  C   UNL     1      29.300  23.586  34.828  1.00  0.00     0.012 C 
ENDBRANCH  16  38
BRANCH  18  41
HETATM   41  C   UNL     1      27.076  25.828  28.869  1.00  0.00     0.016 C 
HETATM   42  C   UNL     1      25.813  26.675  29.001  1.00  0.00     0.012 C 
HETATM   43  C   UNL     1      27.322  25.455  27.408  1.00  0.00     0.012 C 
ENDBRANCH  18  41
BRANCH  15  44
HETATM   44  C   UNL     1      24.178  24.484  33.515  1.00  0.00     0.010 C 
HETATM   45  C   UNL     1      23.822  25.783  34.233  1.00  0.00     0.012 C 
HETATM   46  C   UNL     1      23.599  23.282  34.255  1.00  0.00     0.012 C 
ENDBRANCH  15  44
TORSDOF 7
ENDMDL
MODEL 11
REMARK VINA RESULT:    -6.398      2.147      6.642
REMARK INTER + INTRA:          -8.137
REMARK INTER:                  -8.953
REMARK INTRA:                   0.816
REMARK UNBOUND:                 0.880
REMARK  7 active torsions:
REMARK  status: ('A' for Active; 'I' for Inactive)
REMARK    1  A    between atoms: C_13  and  C_14 
REMARK    2  A    between atoms: C_14  and  C_19 
REMARK    3  A    between atoms: C_15  and  C_20 
REMARK    4  A    between atoms: C_16  and  C_21 
REMARK    5  A    between atoms: C_17  and  C_23 
REMARK    6  A    between atoms: C_18  and  C_26 
REMARK    7  A    between atoms: C_22  and  C_28 
ROOT
HETATM    1  O   UNL     1      27.039  25.102  30.505  1.00  0.00    -0.304 OA
HETATM    2  O   UNL     1      28.160  22.109  34.637  1.00  0.00    -0.304 OA
HETATM    3  O   UNL     1      29.870  20.771  30.438  1.00  0.00    -0.304 OA
HETATM    4  O   UNL     1      25.635  23.429  33.193  1.00  0.00    -0.270 OA
HETATM    5  O   UNL     1      29.039  25.063  31.652  1.00  0.00    -0.263 OA
HETATM    6  O   UNL     1      26.702  22.534  30.597  1.00  0.00    -0.270 OA
HETATM    7  O   UNL     1      30.228  18.928  33.081  1.00  0.00    -0.270 OA
HETATM    8  O   UNL     1      28.736  21.602  36.802  1.00  0.00    -0.263 OA
HETATM    9  O   UNL     1      28.710  18.785  30.540  1.00  0.00    -0.263 OA
HETATM   10  N   UNL     1      27.292  24.898  33.888  1.00  0.00    -0.340 N 
HETATM   11  N   UNL     1      28.137  21.977  28.871  1.00  0.00    -0.340 N 
HETATM   12  N   UNL     1      30.444  21.192  33.574  1.00  0.00    -0.340 N 
HETATM   13  C   UNL     1      27.001  25.802  32.757  1.00  0.00     0.190 C 
HETATM   14  C   UNL     1      27.888  20.538  29.102  1.00  0.00     0.190 C 
HETATM   15  C   UNL     1      30.247  20.978  35.023  1.00  0.00     0.190 C 
HETATM   16  C   UNL     1      26.928  22.716  35.075  1.00  0.00     0.227 C 
HETATM   17  C   UNL     1      27.612  24.387  29.388  1.00  0.00     0.227 C 
HETATM   18  C   UNL     1      30.956  20.333  31.275  1.00  0.00     0.227 C 
HETATM   19  C   UNL     1      26.554  23.703  33.973  1.00  0.00     0.250 C 
HETATM   20  C   UNL     1      27.839  25.295  31.595  1.00  0.00     0.283 C 
HETATM   21  C   UNL     1      27.445  22.892  29.677  1.00  0.00     0.250 C 
HETATM   22  C   UNL     1      30.500  20.077  32.719  1.00  0.00     0.250 C 
HETATM   23  C   UNL     1      28.980  21.603  35.600  1.00  0.00     0.283 C 
HETATM   24  C   UNL     1      28.851  19.928  30.118  1.00  0.00     0.283 C 
HETATM   25  C   UNL     1      28.353  25.288  34.821  1.00  0.00     0.153 C 
HETATM   26  C   UNL     1      29.114  22.347  27.844  1.00  0.00     0.153 C 
HETATM   27  C   UNL     1      30.752  22.551  33.125  1.00  0.00     0.153 C 
ENDROOT
BRANCH  17  28
HETATM   28  C   UNL     1      26.817  24.788  28.154  1.00  0.00     0.016 C 
HETATM   29  C   UNL     1      25.550  25.544  28.550  1.00  0.00     0.012 C 
HETATM   30  C   UNL     1      27.673  25.634  27.212  1.00  0.00     0.012 C 
ENDBRANCH  17  28
BRANCH  13  31
HETATM   31  C   UNL     1      27.276  27.283  32.997  1.00  0.00     0.014 C 
HETATM   32  C   UNL     1      27.294  28.031  31.663  1.00  0.00     0.012 C 
BRANCH  31  33
HETATM   33  C   UNL     1      26.237  27.858  33.976  1.00  0.00     0.002 C 
HETATM   34  C   UNL     1      24.818  27.869  33.424  1.00  0.00     0.005 C 
ENDBRANCH  31  33
ENDBRANCH  13  31
BRANCH  14  35
HETATM   35  C   UNL     1      27.889  19.700  27.824  1.00  0.00     0.010 C 
HETATM   36  C   UNL     1      29.255  19.054  27.602  1.00  0.00     0.012 C 
HETATM   37  C   UNL     1      26.795  18.634  27.877  1.00  0.00     0.012 C 
ENDBRANCH  14  35
BRANCH  16  38
HETATM   38  C   UNL     1      25.874  21.624  35.235  1.00  0.00     0.016 C 
HETATM   39  C   UNL     1      25.524  21.424  36.709  1.00  0.00     0.012 C 
HETATM   40  C   UNL     1      26.358  20.312  34.618  1.00  0.00     0.012 C 
ENDBRANCH  16  38
BRANCH  18  41
HETATM   41  C   UNL     1      31.696  19.142  30.669  1.00  0.00     0.016 C 
HETATM   42  C   UNL     1      32.787  18.649  31.616  1.00  0.00     0.012 C 
HETATM   43  C   UNL     1      32.290  19.513  29.312  1.00  0.00     0.012 C 
ENDBRANCH  18  41
BRANCH  15  44
HETATM   44  C   UNL     1      31.474  21.421  35.821  1.00  0.00     0.010 C 
HETATM   45  C   UNL     1      32.755  21.091  35.059  1.00  0.00     0.012 C 
HETATM   46  C   UNL     1      31.481  20.763  37.197  1.00  0.00     0.012 C 
ENDBRANCH  15  44
TORSDOF 7
ENDMDL
MODEL 12
REMARK VINA RESULT:    -6.372      3.358      8.021
REMARK INTER + INTRA:          -8.099
REMARK INTER:                  -9.237
REMARK INTRA:                   1.138
REMARK UNBOUND:                 0.880
REMARK  7 active torsions:
REMARK  status: ('A' for Active; 'I' for Inactive)
REMARK    1  A    between atoms: C_13  and  C_14 
REMARK    2  A    between atoms: C_14  and  C_19 
REMARK    3  A    between atoms: C_15  and  C_20 
REMARK    4  A    between atoms: C_16  and  C_21 
REMARK    5  A    between atoms: C_17  and  C_23 
REMARK    6  A    between atoms: C_18  and  C_26 
REMARK    7  A    between atoms: C_22  and  C_28 
ROOT
HETATM    1  O   UNL     1      30.542  21.524  27.411  1.00  0.00    -0.304 OA
HETATM    2  O   UNL     1      26.908  23.272  30.732  1.00  0.00    -0.304 OA
HETATM    3  O   UNL     1      27.448  18.592  30.345  1.00  0.00    -0.304 OA
HETATM    4  O   UNL     1      27.808  23.632  27.689  1.00  0.00    -0.270 OA
HETATM    5  O   UNL     1      30.743  21.644  29.705  1.00  0.00    -0.263 OA
HETATM    6  O   UNL     1      28.083  20.708  27.466  1.00  0.00    -0.270 OA
HETATM    7  O   UNL     1      25.085  19.884  32.150  1.00  0.00    -0.270 OA
HETATM    8  O   UNL     1      25.965  24.618  32.338  1.00  0.00    -0.263 OA
HETATM    9  O   UNL     1      25.276  18.348  29.622  1.00  0.00    -0.263 OA
HETATM   10  N   UNL     1      29.416  24.123  29.289  1.00  0.00    -0.340 N 
HETATM   11  N   UNL     1      28.512  18.485  27.943  1.00  0.00    -0.340 N 
HETATM   12  N   UNL     1      27.057  21.108  32.308  1.00  0.00    -0.340 N 
HETATM   13  C   UNL     1      30.492  23.672  28.384  1.00  0.00     0.190 C 
HETATM   14  C   UNL     1      27.062  18.200  28.008  1.00  0.00     0.190 C 
HETATM   15  C   UNL     1      26.372  22.294  32.863  1.00  0.00     0.190 C 
HETATM   16  C   UNL     1      26.971  24.372  29.804  1.00  0.00     0.227 C 
HETATM   17  C   UNL     1      30.394  20.087  27.453  1.00  0.00     0.227 C 
HETATM   18  C   UNL     1      27.115  18.667  31.743  1.00  0.00     0.227 C 
HETATM   19  C   UNL     1      28.091  24.012  28.831  1.00  0.00     0.250 C 
HETATM   20  C   UNL     1      30.623  22.175  28.609  1.00  0.00     0.283 C 
HETATM   21  C   UNL     1      28.901  19.794  27.624  1.00  0.00     0.250 C 
HETATM   22  C   UNL     1      26.317  19.936  32.076  1.00  0.00     0.250 C 
HETATM   23  C   UNL     1      26.398  23.531  31.968  1.00  0.00     0.283 C 
HETATM   24  C   UNL     1      26.482  18.402  29.406  1.00  0.00     0.283 C 
HETATM   25  C   UNL     1      29.798  24.618  30.615  1.00  0.00     0.153 C 
HETATM   26  C   UNL     1      29.439  17.394  28.251  1.00  0.00     0.153 C 
HETATM   27  C   UNL     1      28.516  21.159  32.199  1.00  0.00     0.153 C 
ENDROOT
BRANCH  17  28
HETATM   28  C   UNL     1      30.897  19.553  26.120  1.00  0.00     0.016 C 
HETATM   29  C   UNL     1      30.056  20.100  24.968  1.00  0.00     0.012 C 
HETATM   30  C   UNL     1      32.371  19.904  25.920  1.00  0.00     0.012 C 
ENDBRANCH  17  28
BRANCH  13  31
HETATM   31  C   UNL     1      31.845  24.351  28.564  1.00  0.00     0.014 C 
HETATM   32  C   UNL     1      32.961  23.426  28.075  1.00  0.00     0.012 C 
BRANCH  31  33
HETATM   33  C   UNL     1      31.852  25.709  27.839  1.00  0.00     0.002 C 
HETATM   34  C   UNL     1      32.985  26.629  28.272  1.00  0.00     0.005 C 
ENDBRANCH  31  33
ENDBRANCH  13  31
BRANCH  14  35
HETATM   35  C   UNL     1      26.684  16.812  27.490  1.00  0.00     0.010 C 
HETATM   36  C   UNL     1      25.570  16.204  28.338  1.00  0.00     0.012 C 
HETATM   37  C   UNL     1      26.262  16.881  26.022  1.00  0.00     0.012 C 
ENDBRANCH  14  35
BRANCH  16  38
HETATM   38  C   UNL     1      25.625  24.493  29.095  1.00  0.00     0.016 C 
HETATM   39  C   UNL     1      24.893  25.758  29.539  1.00  0.00     0.012 C 
HETATM   40  C   UNL     1      24.765  23.257  29.358  1.00  0.00     0.012 C 
ENDBRANCH  16  38
BRANCH  18  41
HETATM   41  C   UNL     1      26.428  17.392  32.233  1.00  0.00     0.016 C 
HETATM   42  C   UNL     1      26.440  17.329  33.758  1.00  0.00     0.012 C 
HETATM   43  C   UNL     1      27.103  16.158  31.639  1.00  0.00     0.012 C 
ENDBRANCH  18  41
BRANCH  15  44
HETATM   44  C   UNL     1      26.890  22.633  34.261  1.00  0.00     0.010 C 
HETATM   45  C   UNL     1      27.124  21.358  35.067  1.00  0.00     0.012 C 
HETATM   46  C   UNL     1      25.914  23.556  34.983  1.00  0.00     0.012 C 
ENDBRANCH  15  44
TORSDOF 7
ENDMDL
MODEL 13
REMARK VINA RESULT:    -6.236      2.297      6.861
REMARK INTER + INTRA:          -7.908
REMARK INTER:                  -9.213
REMARK INTRA:                   1.305
REMARK UNBOUND:                 0.880
REMARK  7 active torsions:
REMARK  status: ('A' for Active; 'I' for Inactive)
REMARK    1  A    between atoms: C_13  and  C_14 
REMARK    2  A    between atoms: C_14  and  C_19 
REMARK    3  A    between atoms: C_15  and  C_20 
REMARK    4  A    between atoms: C_16  and  C_21 
REMARK    5  A    between atoms: C_17  and  C_23 
REMARK    6  A    between atoms: C_18  and  C_26 
REMARK    7  A    between atoms: C_22  and  C_28 
ROOT
HETATM    1  O   UNL     1      27.325  19.264  30.734  1.00  0.00    -0.304 OA
HETATM    2  O   UNL     1      29.171  22.391  34.490  1.00  0.00    -0.304 OA
HETATM    3  O   UNL     1      26.399  24.335  31.192  1.00  0.00    -0.304 OA
HETATM    4  O   UNL     1      30.219  20.257  32.358  1.00  0.00    -0.270 OA
HETATM    5  O   UNL     1      26.153  20.020  32.571  1.00  0.00    -0.263 OA
HETATM    6  O   UNL     1      28.520  21.525  30.313  1.00  0.00    -0.270 OA
HETATM    7  O   UNL     1      27.855  26.135  33.461  1.00  0.00    -0.270 OA
HETATM    8  O   UNL     1      29.787  23.039  36.607  1.00  0.00    -0.263 OA
HETATM    9  O   UNL     1      28.089  25.751  30.531  1.00  0.00    -0.263 OA
HETATM   10  N   UNL     1      28.629  19.491  33.865  1.00  0.00    -0.340 N 
HETATM   11  N   UNL     1      26.769  22.601  29.251  1.00  0.00    -0.340 N 
HETATM   12  N   UNL     1      27.115  24.103  34.318  1.00  0.00    -0.340 N 
HETATM   13  C   UNL     1      28.082  18.562  32.855  1.00  0.00     0.190 C 
HETATM   14  C   UNL     1      27.566  23.842  29.153  1.00  0.00     0.190 C 
HETATM   15  C   UNL     1      27.972  24.205  35.518  1.00  0.00     0.190 C 
HETATM   16  C   UNL     1      30.183  21.365  34.477  1.00  0.00     0.227 C 
HETATM   17  C   UNL     1      26.611  20.159  29.853  1.00  0.00     0.227 C 
HETATM   18  C   UNL     1      25.996  25.128  32.323  1.00  0.00     0.227 C 
HETATM   19  C   UNL     1      29.690  20.328  33.472  1.00  0.00     0.250 C 
HETATM   20  C   UNL     1      27.056  19.362  32.070  1.00  0.00     0.283 C 
HETATM   21  C   UNL     1      27.383  21.481  29.832  1.00  0.00     0.250 C 
HETATM   22  C   UNL     1      27.082  25.174  33.408  1.00  0.00     0.250 C 
HETATM   23  C   UNL     1      29.068  23.147  35.618  1.00  0.00     0.283 C 
HETATM   24  C   UNL     1      27.402  24.748  30.371  1.00  0.00     0.283 C 
HETATM   25  C   UNL     1      28.006  19.505  35.192  1.00  0.00     0.153 C 
HETATM   26  C   UNL     1      25.386  22.635  28.769  1.00  0.00     0.153 C 
HETATM   27  C   UNL     1      26.204  22.961  34.232  1.00  0.00     0.153 C 
ENDROOT
BRANCH  17  28
HETATM   28  C   UNL     1      26.613  19.514  28.475  1.00  0.00     0.016 C 
HETATM   29  C   UNL     1      27.997  19.613  27.835  1.00  0.00     0.012 C 
HETATM   30  C   UNL     1      26.166  18.055  28.561  1.00  0.00     0.012 C 
ENDBRANCH  17  28
BRANCH  13  31
HETATM   31  C   UNL     1      27.450  17.284  33.396  1.00  0.00     0.014 C 
HETATM   32  C   UNL     1      26.523  16.676  32.342  1.00  0.00     0.012 C 
BRANCH  31  33
HETATM   33  C   UNL     1      28.549  16.303  33.842  1.00  0.00     0.002 C 
HETATM   34  C   UNL     1      29.728  16.227  32.882  1.00  0.00     0.005 C 
ENDBRANCH  31  33
ENDBRANCH  13  31
BRANCH  14  35
HETATM   35  C   UNL     1      27.305  24.643  27.877  1.00  0.00     0.010 C 
HETATM   36  C   UNL     1      26.504  25.906  28.187  1.00  0.00     0.012 C 
HETATM   37  C   UNL     1      28.619  24.999  27.184  1.00  0.00     0.012 C 
ENDBRANCH  14  35
BRANCH  16  38
HETATM   38  C   UNL     1      31.507  21.988  34.040  1.00  0.00     0.016 C 
HETATM   39  C   UNL     1      31.426  22.466  32.592  1.00  0.00     0.012 C 
HETATM   40  C   UNL     1      32.654  20.994  34.213  1.00  0.00     0.012 C 
ENDBRANCH  16  38
BRANCH  18  41
HETATM   41  C   UNL     1      25.523  26.519  31.902  1.00  0.00     0.016 C 
HETATM   42  C   UNL     1      25.156  27.354  33.126  1.00  0.00     0.012 C 
HETATM   43  C   UNL     1      24.335  26.415  30.948  1.00  0.00     0.012 C 
ENDBRANCH  18  41
BRANCH  15  44
HETATM   44  C   UNL     1      27.136  24.233  36.797  1.00  0.00     0.010 C 
HETATM   45  C   UNL     1      27.552  25.405  37.682  1.00  0.00     0.012 C 
HETATM   46  C   UNL     1      27.269  22.914  37.552  1.00  0.00     0.012 C 
ENDBRANCH  15  44
TORSDOF 7
ENDMDL
MODEL 14
REMARK VINA RESULT:    -5.557      3.599      8.044
REMARK INTER + INTRA:          -6.950
REMARK INTER:                  -7.660
REMARK INTRA:                   0.709
REMARK UNBOUND:                 0.880
REMARK  7 active torsions:
REMARK  status: ('A' for Active; 'I' for Inactive)
REMARK    1  A    between atoms: C_13  and  C_14 
REMARK    2  A    between atoms: C_14  and  C_19 
REMARK    3  A    between atoms: C_15  and  C_20 
REMARK    4  A    between atoms: C_16  and  C_21 
REMARK    5  A    between atoms: C_17  and  C_23 
REMARK    6  A    between atoms: C_18  and  C_26 
REMARK    7  A    between atoms: C_22  and  C_28 
ROOT
HETATM    1  O   UNL     1      30.208  22.748  28.983  1.00  0.00    -0.304 OA
HETATM    2  O   UNL     1      28.400  19.550  32.698  1.00  0.00    -0.304 OA
HETATM    3  O   UNL     1      33.022  20.538  32.721  1.00  0.00    -0.304 OA
HETATM    4  O   UNL     1      28.341  19.880  29.521  1.00  0.00    -0.270 OA
HETATM    5  O   UNL     1      29.784  23.316  31.177  1.00  0.00    -0.263 OA
HETATM    6  O   UNL     1      31.233  20.440  29.566  1.00  0.00    -0.270 OA
HETATM    7  O   UNL     1      31.738  18.382  34.773  1.00  0.00    -0.270 OA
HETATM    8  O   UNL     1      26.957  18.745  34.294  1.00  0.00    -0.263 OA
HETATM    9  O   UNL     1      33.552  18.317  32.430  1.00  0.00    -0.263 OA
HETATM   10  N   UNL     1      27.509  21.668  30.745  1.00  0.00    -0.340 N 
HETATM   11  N   UNL     1      33.330  21.189  30.192  1.00  0.00    -0.340 N 
HETATM   12  N   UNL     1      30.328  20.203  34.443  1.00  0.00    -0.340 N 
HETATM   13  C   UNL     1      27.968  22.621  29.714  1.00  0.00     0.190 C 
HETATM   14  C   UNL     1      33.736  19.812  30.547  1.00  0.00     0.190 C 
HETATM   15  C   UNL     1      29.150  19.491  34.982  1.00  0.00     0.190 C 
HETATM   16  C   UNL     1      27.423  19.332  31.661  1.00  0.00     0.227 C 
HETATM   17  C   UNL     1      31.635  22.770  29.204  1.00  0.00     0.227 C 
HETATM   18  C   UNL     1      32.805  20.438  34.140  1.00  0.00     0.227 C 
HETATM   19  C   UNL     1      27.797  20.305  30.546  1.00  0.00     0.250 C 
HETATM   20  C   UNL     1      29.408  22.955  30.070  1.00  0.00     0.283 C 
HETATM   21  C   UNL     1      32.040  21.369  29.671  1.00  0.00     0.250 C 
HETATM   22  C   UNL     1      31.582  19.570  34.473  1.00  0.00     0.250 C 
HETATM   23  C   UNL     1      28.037  19.229  33.970  1.00  0.00     0.283 C 
HETATM   24  C   UNL     1      33.415  19.456  31.997  1.00  0.00     0.283 C 
HETATM   25  C   UNL     1      26.819  22.209  31.920  1.00  0.00     0.153 C 
HETATM   26  C   UNL     1      34.284  22.271  30.443  1.00  0.00     0.153 C 
HETATM   27  C   UNL     1      30.157  21.607  34.068  1.00  0.00     0.153 C 
ENDROOT
BRANCH  17  28
HETATM   28  C   UNL     1      32.283  23.100  27.867  1.00  0.00     0.016 C 
HETATM   29  C   UNL     1      31.503  22.460  26.718  1.00  0.00     0.012 C 
HETATM   30  C   UNL     1      32.378  24.612  27.672  1.00  0.00     0.012 C 
ENDBRANCH  17  28
BRANCH  13  31
HETATM   31  C   UNL     1      27.150  23.900  29.575  1.00  0.00     0.014 C 
HETATM   32  C   UNL     1      28.085  25.096  29.380  1.00  0.00     0.012 C 
BRANCH  31  33
HETATM   33  C   UNL     1      26.140  23.755  28.423  1.00  0.00     0.002 C 
HETATM   34  C   UNL     1      24.692  23.678  28.885  1.00  0.00     0.005 C 
ENDBRANCH  31  33
ENDBRANCH  13  31
BRANCH  14  35
HETATM   35  C   UNL     1      35.206  19.510  30.256  1.00  0.00     0.010 C 
HETATM   36  C   UNL     1      35.990  19.338  31.555  1.00  0.00     0.012 C 
HETATM   37  C   UNL     1      35.339  18.263  29.382  1.00  0.00     0.012 C 
ENDBRANCH  14  35
BRANCH  16  38
HETATM   38  C   UNL     1      27.516  17.881  31.197  1.00  0.00     0.016 C 
HETATM   39  C   UNL     1      26.268  17.102  31.611  1.00  0.00     0.012 C 
HETATM   40  C   UNL     1      28.772  17.216  31.757  1.00  0.00     0.012 C 
ENDBRANCH  16  38
BRANCH  18  41
HETATM   41  C   UNL     1      34.066  19.991  34.878  1.00  0.00     0.016 C 
HETATM   42  C   UNL     1      33.797  19.873  36.377  1.00  0.00     0.012 C 
HETATM   43  C   UNL     1      35.215  20.961  34.613  1.00  0.00     0.012 C 
ENDBRANCH  18  41
BRANCH  15  44
HETATM   44  C   UNL     1      28.593  20.196  36.220  1.00  0.00     0.010 C 
HETATM   45  C   UNL     1      28.310  19.186  37.328  1.00  0.00     0.012 C 
HETATM   46  C   UNL     1      27.331  20.977  35.867  1.00  0.00     0.012 C 
ENDBRANCH  15  44
TORSDOF 7
ENDMDL
MODEL 15
REMARK VINA RESULT:    -5.461      2.345      7.145
REMARK INTER + INTRA:          -6.815
REMARK INTER:                  -7.576
REMARK INTRA:                   0.761
REMARK UNBOUND:                 0.880
REMARK  7 active torsions:
REMARK  status: ('A' for Active; 'I' for Inactive)
REMARK    1  A    between atoms: C_13  and  C_14 
REMARK    2  A    between atoms: C_14  and  C_19 
REMARK    3  A    between atoms: C_15  and  C_20 
REMARK    4  A    between atoms: C_16  and  C_21 
REMARK    5  A    between atoms: C_17  and  C_23 
REMARK    6  A    between atoms: C_18  and  C_26 
REMARK    7  A    between atoms: C_22  and  C_28 
ROOT
HETATM    1  O   UNL     1      31.142  20.225  30.596  1.00  0.00    -0.304 OA
HETATM    2  O   UNL     1      27.140  23.566  30.930  1.00  0.00    -0.304 OA
HETATM    3  O   UNL     1      27.847  20.629  34.565  1.00  0.00    -0.304 OA
HETATM    4  O   UNL     1      28.336  21.383  28.928  1.00  0.00    -0.270 OA
HETATM    5  O   UNL     1      31.104  22.182  31.815  1.00  0.00    -0.263 OA
HETATM    6  O   UNL     1      28.714  19.557  31.209  1.00  0.00    -0.270 OA
HETATM    7  O   UNL     1      25.277  22.601  34.453  1.00  0.00    -0.270 OA
HETATM    8  O   UNL     1      26.001  25.549  30.710  1.00  0.00    -0.263 OA
HETATM    9  O   UNL     1      25.768  19.684  34.275  1.00  0.00    -0.263 OA
HETATM   10  N   UNL     1      29.757  23.128  29.498  1.00  0.00    -0.340 N 
HETATM   11  N   UNL     1      29.154  18.717  33.319  1.00  0.00    -0.340 N 
HETATM   12  N   UNL     1      27.187  23.627  33.610  1.00  0.00    -0.340 N 
HETATM   13  C   UNL     1      30.933  22.240  29.388  1.00  0.00     0.190 C 
HETATM   14  C   UNL     1      27.714  18.463  33.538  1.00  0.00     0.190 C 
HETATM   15  C   UNL     1      26.416  24.688  32.930  1.00  0.00     0.190 C 
HETATM   16  C   UNL     1      27.267  23.445  29.500  1.00  0.00     0.227 C 
HETATM   17  C   UNL     1      31.030  19.423  31.792  1.00  0.00     0.227 C 
HETATM   18  C   UNL     1      27.371  21.777  35.291  1.00  0.00     0.227 C 
HETATM   19  C   UNL     1      28.489  22.559  29.279  1.00  0.00     0.250 C 
HETATM   20  C   UNL     1      31.082  21.580  30.749  1.00  0.00     0.283 C 
HETATM   21  C   UNL     1      29.536  19.245  32.077  1.00  0.00     0.250 C 
HETATM   22  C   UNL     1      26.508  22.694  34.412  1.00  0.00     0.250 C 
HETATM   23  C   UNL     1      26.499  24.670  31.406  1.00  0.00     0.283 C 
HETATM   24  C   UNL     1      26.988  19.659  34.150  1.00  0.00     0.283 C 
HETATM   25  C   UNL     1      29.988  24.529  29.862  1.00  0.00     0.153 C 
HETATM   26  C   UNL     1      30.075  18.437  34.422  1.00  0.00     0.153 C 
HETATM   27  C   UNL     1      28.648  23.713  33.558  1.00  0.00     0.153 C 
ENDROOT
BRANCH  17  28
HETATM   28  C   UNL     1      31.682  18.082  31.486  1.00  0.00     0.016 C 
HETATM   29  C   UNL     1      31.765  17.855  29.978  1.00  0.00     0.012 C 
HETATM   30  C   UNL     1      33.072  18.002  32.117  1.00  0.00     0.012 C 
ENDBRANCH  17  28
BRANCH  13  31
HETATM   31  C   UNL     1      32.241  22.911  28.983  1.00  0.00     0.014 C 
HETATM   32  C   UNL     1      33.426  22.076  29.472  1.00  0.00     0.012 C 
BRANCH  31  33
HETATM   33  C   UNL     1      32.269  23.128  27.459  1.00  0.00     0.002 C 
HETATM   34  C   UNL     1      31.629  21.997  26.667  1.00  0.00     0.005 C 
ENDBRANCH  31  33
ENDBRANCH  13  31
BRANCH  14  35
HETATM   35  C   UNL     1      27.429  17.210  34.366  1.00  0.00     0.010 C 
HETATM   36  C   UNL     1      26.741  17.575  35.679  1.00  0.00     0.012 C 
HETATM   37  C   UNL     1      26.576  16.220  33.573  1.00  0.00     0.012 C 
ENDBRANCH  14  35
BRANCH  16  38
HETATM   38  C   UNL     1      25.997  22.803  28.948  1.00  0.00     0.016 C 
HETATM   39  C   UNL     1      25.121  23.846  28.257  1.00  0.00     0.012 C 
HETATM   40  C   UNL     1      25.219  22.104  30.062  1.00  0.00     0.012 C 
ENDBRANCH  16  38
BRANCH  18  41
HETATM   41  C   UNL     1      26.674  21.378  36.591  1.00  0.00     0.016 C 
HETATM   42  C   UNL     1      26.231  22.618  37.365  1.00  0.00     0.012 C 
HETATM   43  C   UNL     1      27.593  20.510  37.448  1.00  0.00     0.012 C 
ENDBRANCH  18  41
BRANCH  15  44
HETATM   44  C   UNL     1      26.779  26.072  33.470  1.00  0.00     0.010 C 
HETATM   45  C   UNL     1      28.133  26.519  32.926  1.00  0.00     0.012 C 
HETATM   46  C   UNL     1      26.786  26.065  34.995  1.00  0.00     0.012 C 
ENDBRANCH  15  44
TORSDOF 7
ENDMDL
MODEL 16
REMARK VINA RESULT:    -5.385      2.493      8.052
REMARK INTER + INTRA:          -6.709
REMARK INTER:                  -8.847
REMARK INTRA:                   2.138
REMARK UNBOUND:                 0.880
REMARK  7 active torsions:
REMARK  status: ('A' for Active; 'I' for Inactive)
REMARK    1  A    between atoms: C_13  and  C_14 
REMARK    2  A    between atoms: C_14  and  C_19 
REMARK    3  A    between atoms: C_15  and  C_20 
REMARK    4  A    between atoms: C_16  and  C_21 
REMARK    5  A    between atoms: C_17  and  C_23 
REMARK    6  A    between atoms: C_18  and  C_26 
REMARK    7  A    between atoms: C_22  and  C_28 
ROOT
HETATM    1  O   UNL     1      26.170  22.048  29.411  1.00  0.00    -0.304 OA
HETATM    2  O   UNL     1      29.806  20.517  32.836  1.00  0.00    -0.304 OA
HETATM    3  O   UNL     1      26.719  23.807  34.246  1.00  0.00    -0.304 OA
HETATM    4  O   UNL     1      29.577  21.583  29.833  1.00  0.00    -0.270 OA
HETATM    5  O   UNL     1      25.853  20.589  31.168  1.00  0.00    -0.263 OA
HETATM    6  O   UNL     1      27.696  23.655  30.755  1.00  0.00    -0.270 OA
HETATM    7  O   UNL     1      29.206  22.901  36.117  1.00  0.00    -0.270 OA
HETATM    8  O   UNL     1      31.189  19.072  33.966  1.00  0.00    -0.263 OA
HETATM    9  O   UNL     1      28.415  25.322  34.601  1.00  0.00    -0.263 OA
HETATM   10  N   UNL     1      28.396  19.644  30.317  1.00  0.00    -0.340 N 
HETATM   11  N   UNL     1      26.026  24.772  31.900  1.00  0.00    -0.340 N 
HETATM   12  N   UNL     1      28.290  21.097  34.970  1.00  0.00    -0.340 N 
HETATM   13  C   UNL     1      27.349  20.006  29.339  1.00  0.00     0.190 C 
HETATM   14  C   UNL     1      27.035  25.562  32.638  1.00  0.00     0.190 C 
HETATM   15  C   UNL     1      29.474  20.244  35.202  1.00  0.00     0.190 C 
HETATM   16  C   UNL     1      30.476  20.234  31.592  1.00  0.00     0.227 C 
HETATM   17  C   UNL     1      25.463  23.103  30.098  1.00  0.00     0.227 C 
HETATM   18  C   UNL     1      26.897  23.114  35.494  1.00  0.00     0.227 C 
HETATM   19  C   UNL     1      29.454  20.551  30.504  1.00  0.00     0.250 C 
HETATM   20  C   UNL     1      26.362  20.881  30.094  1.00  0.00     0.283 C 
HETATM   21  C   UNL     1      26.492  23.859  30.943  1.00  0.00     0.250 C 
HETATM   22  C   UNL     1      28.242  22.375  35.553  1.00  0.00     0.250 C 
HETATM   23  C   UNL     1      30.249  19.861  33.944  1.00  0.00     0.283 C 
HETATM   24  C   UNL     1      27.487  24.885  33.930  1.00  0.00     0.283 C 
HETATM   25  C   UNL     1      28.240  18.385  31.052  1.00  0.00     0.153 C 
HETATM   26  C   UNL     1      24.616  24.970  32.243  1.00  0.00     0.153 C 
HETATM   27  C   UNL     1      27.144  20.493  34.289  1.00  0.00     0.153 C 
ENDROOT
BRANCH  17  28
HETATM   28  C   UNL     1      24.877  24.011  29.027  1.00  0.00     0.016 C 
HETATM   29  C   UNL     1      25.988  24.709  28.244  1.00  0.00     0.012 C 
HETATM   30  C   UNL     1      23.973  23.219  28.083  1.00  0.00     0.012 C 
ENDBRANCH  17  28
BRANCH  13  31
HETATM   31  C   UNL     1      26.622  18.841  28.677  1.00  0.00     0.014 C 
HETATM   32  C   UNL     1      27.599  18.042  27.814  1.00  0.00     0.012 C 
BRANCH  31  33
HETATM   33  C   UNL     1      25.942  17.971  29.749  1.00  0.00     0.002 C 
HETATM   34  C   UNL     1      25.650  16.549  29.288  1.00  0.00     0.005 C 
ENDBRANCH  31  33
ENDBRANCH  13  31
BRANCH  14  35
HETATM   35  C   UNL     1      26.596  26.996  32.935  1.00  0.00     0.010 C 
HETATM   36  C   UNL     1      26.386  27.198  34.434  1.00  0.00     0.012 C 
HETATM   37  C   UNL     1      27.621  27.996  32.399  1.00  0.00     0.012 C 
ENDBRANCH  14  35
BRANCH  16  38
HETATM   38  C   UNL     1      31.709  21.128  31.486  1.00  0.00     0.016 C 
HETATM   39  C   UNL     1      32.986  20.309  31.670  1.00  0.00     0.012 C 
HETATM   40  C   UNL     1      31.646  22.258  32.512  1.00  0.00     0.012 C 
ENDBRANCH  16  38
BRANCH  18  41
HETATM   41  C   UNL     1      26.676  24.035  36.693  1.00  0.00     0.016 C 
HETATM   42  C   UNL     1      26.937  23.289  37.999  1.00  0.00     0.012 C 
HETATM   43  C   UNL     1      25.260  24.608  36.676  1.00  0.00     0.012 C 
ENDBRANCH  18  41
BRANCH  15  44
HETATM   44  C   UNL     1      29.111  18.997  36.008  1.00  0.00     0.010 C 
HETATM   45  C   UNL     1      30.042  18.845  37.208  1.00  0.00     0.012 C 
HETATM   46  C   UNL     1      29.165  17.755  35.123  1.00  0.00     0.012 C 
ENDBRANCH  15  44
TORSDOF 7
ENDMDL
MODEL 17
REMARK VINA RESULT:    -5.328      2.708      7.322
REMARK INTER + INTRA:          -6.628
REMARK INTER:                  -7.281
REMARK INTRA:                   0.653
REMARK UNBOUND:                 0.880
REMARK  7 active torsions:
REMARK  status: ('A' for Active; 'I' for Inactive)
REMARK    1  A    between atoms: C_13  and  C_14 
REMARK    2  A    between atoms: C_14  and  C_19 
REMARK    3  A    between atoms: C_15  and  C_20 
REMARK    4  A    between atoms: C_16  and  C_21 
REMARK    5  A    between atoms: C_17  and  C_23 
REMARK    6  A    between atoms: C_18  and  C_26 
REMARK    7  A    between atoms: C_22  and  C_28 
ROOT
HETATM    1  O   UNL     1      29.592  20.886  28.931  1.00  0.00    -0.304 OA
HETATM    2  O   UNL     1      27.167  23.372  32.834  1.00  0.00    -0.304 OA
HETATM    3  O   UNL     1      28.241  18.813  33.476  1.00  0.00    -0.304 OA
HETATM    4  O   UNL     1      26.851  22.860  29.697  1.00  0.00    -0.270 OA
HETATM    5  O   UNL     1      30.581  21.685  30.855  1.00  0.00    -0.263 OA
HETATM    6  O   UNL     1      27.472  20.014  30.139  1.00  0.00    -0.270 OA
HETATM    7  O   UNL     1      26.514  20.474  35.660  1.00  0.00    -0.270 OA
HETATM    8  O   UNL     1      26.668  25.087  34.278  1.00  0.00    -0.263 OA
HETATM    9  O   UNL     1      26.019  18.272  33.738  1.00  0.00    -0.263 OA
HETATM   10  N   UNL     1      28.829  23.870  30.368  1.00  0.00    -0.340 N 
HETATM   11  N   UNL     1      28.377  18.052  30.963  1.00  0.00    -0.340 N 
HETATM   12  N   UNL     1      28.199  21.776  34.725  1.00  0.00    -0.340 N 
HETATM   13  C   UNL     1      29.566  23.221  29.264  1.00  0.00     0.190 C 
HETATM   14  C   UNL     1      27.109  17.734  31.654  1.00  0.00     0.190 C 
HETATM   15  C   UNL     1      27.585  23.041  35.179  1.00  0.00     0.190 C 
HETATM   16  C   UNL     1      26.724  24.152  31.706  1.00  0.00     0.227 C 
HETATM   17  C   UNL     1      29.690  19.521  29.392  1.00  0.00     0.227 C 
HETATM   18  C   UNL     1      28.424  19.281  34.824  1.00  0.00     0.227 C 
HETATM   19  C   UNL     1      27.462  23.571  30.502  1.00  0.00     0.250 C 
HETATM   20  C   UNL     1      29.996  21.864  29.795  1.00  0.00     0.283 C 
HETATM   21  C   UNL     1      28.421  19.225  30.196  1.00  0.00     0.250 C 
HETATM   22  C   UNL     1      27.614  20.556  35.104  1.00  0.00     0.250 C 
HETATM   23  C   UNL     1      27.100  23.960  34.060  1.00  0.00     0.283 C 
HETATM   24  C   UNL     1      27.044  18.313  33.066  1.00  0.00     0.283 C 
HETATM   25  C   UNL     1      29.581  24.750  31.268  1.00  0.00     0.153 C 
HETATM   26  C   UNL     1      29.508  17.141  31.155  1.00  0.00     0.153 C 
HETATM   27  C   UNL     1      29.496  21.857  34.050  1.00  0.00     0.153 C 
ENDROOT
BRANCH  17  28
HETATM   28  C   UNL     1      29.758  18.641  28.152  1.00  0.00     0.016 C 
HETATM   29  C   UNL     1      29.046  19.309  26.977  1.00  0.00     0.012 C 
HETATM   30  C   UNL     1      31.210  18.329  27.791  1.00  0.00     0.012 C 
ENDBRANCH  17  28
BRANCH  13  31
HETATM   31  C   UNL     1      30.773  23.983  28.727  1.00  0.00     0.014 C 
HETATM   32  C   UNL     1      31.737  23.012  28.043  1.00  0.00     0.012 C 
BRANCH  31  33
HETATM   33  C   UNL     1      30.308  25.106  27.783  1.00  0.00     0.002 C 
HETATM   34  C   UNL     1      28.974  24.824  27.106  1.00  0.00     0.005 C 
ENDBRANCH  31  33
ENDBRANCH  13  31
BRANCH  14  35
HETATM   35  C   UNL     1      26.787  16.241  31.695  1.00  0.00     0.010 C 
HETATM   36  C   UNL     1      26.650  15.757  33.137  1.00  0.00     0.012 C 
HETATM   37  C   UNL     1      25.512  15.941  30.907  1.00  0.00     0.012 C 
ENDBRANCH  14  35
BRANCH  16  38
HETATM   38  C   UNL     1      25.212  23.999  31.568  1.00  0.00     0.016 C 
HETATM   39  C   UNL     1      24.507  25.322  31.864  1.00  0.00     0.012 C 
HETATM   40  C   UNL     1      24.695  22.899  32.494  1.00  0.00     0.012 C 
ENDBRANCH  16  38
BRANCH  18  41
HETATM   41  C   UNL     1      28.162  18.178  35.849  1.00  0.00     0.016 C 
HETATM   42  C   UNL     1      28.396  18.696  37.266  1.00  0.00     0.012 C 
HETATM   43  C   UNL     1      29.044  16.964  35.568  1.00  0.00     0.012 C 
ENDBRANCH  18  41
BRANCH  15  44
HETATM   44  C   UNL     1      28.512  23.799  36.130  1.00  0.00     0.010 C 
HETATM   45  C   UNL     1      27.714  24.414  37.276  1.00  0.00     0.012 C 
HETATM   46  C   UNL     1      29.288  24.874  35.376  1.00  0.00     0.012 C 
ENDBRANCH  15  44
TORSDOF 7
ENDMDL
MODEL 18
REMARK VINA RESULT:    -5.202      3.780      8.747
REMARK INTER + INTRA:          -6.450
REMARK INTER:                  -7.210
REMARK INTRA:                   0.760
REMARK UNBOUND:                 0.880
REMARK  7 active torsions:
REMARK  status: ('A' for Active; 'I' for Inactive)
REMARK    1  A    between atoms: C_13  and  C_14 
REMARK    2  A    between atoms: C_14  and  C_19 
REMARK    3  A    between atoms: C_15  and  C_20 
REMARK    4  A    between atoms: C_16  and  C_21 
REMARK    5  A    between atoms: C_17  and  C_23 
REMARK    6  A    between atoms: C_18  and  C_26 
REMARK    7  A    between atoms: C_22  and  C_28 
ROOT
HETATM    1  O   UNL     1      28.171  17.794  29.155  1.00  0.00    -0.304 OA
HETATM    2  O   UNL     1      31.838  21.394  30.097  1.00  0.00    -0.304 OA
HETATM    3  O   UNL     1      28.725  20.489  33.537  1.00  0.00    -0.304 OA
HETATM    4  O   UNL     1      29.629  20.676  27.904  1.00  0.00    -0.270 OA
HETATM    5  O   UNL     1      30.080  17.492  30.412  1.00  0.00    -0.263 OA
HETATM    6  O   UNL     1      27.699  20.172  30.071  1.00  0.00    -0.270 OA
HETATM    7  O   UNL     1      30.919  22.860  33.814  1.00  0.00    -0.270 OA
HETATM    8  O   UNL     1      33.919  22.365  30.076  1.00  0.00    -0.263 OA
HETATM    9  O   UNL     1      27.977  22.666  33.505  1.00  0.00    -0.263 OA
HETATM   10  N   UNL     1      31.220  19.038  28.318  1.00  0.00    -0.340 N 
HETATM   11  N   UNL     1      26.751  19.538  32.084  1.00  0.00    -0.340 N 
HETATM   12  N   UNL     1      31.801  20.990  32.747  1.00  0.00    -0.340 N 
HETATM   13  C   UNL     1      30.237  17.973  28.032  1.00  0.00     0.190 C 
HETATM   14  C   UNL     1      26.616  20.954  32.488  1.00  0.00     0.190 C 
HETATM   15  C   UNL     1      32.949  21.744  32.200  1.00  0.00     0.190 C 
HETATM   16  C   UNL     1      31.756  21.467  28.660  1.00  0.00     0.227 C 
HETATM   17  C   UNL     1      27.341  17.821  30.337  1.00  0.00     0.227 C 
HETATM   18  C   UNL     1      29.884  20.759  34.346  1.00  0.00     0.227 C 
HETATM   19  C   UNL     1      30.773  20.370  28.257  1.00  0.00     0.250 C 
HETATM   20  C   UNL     1      29.520  17.709  29.346  1.00  0.00     0.283 C 
HETATM   21  C   UNL     1      27.285  19.275  30.815  1.00  0.00     0.250 C 
HETATM   22  C   UNL     1      30.904  21.642  33.611  1.00  0.00     0.250 C 
HETATM   23  C   UNL     1      32.976  21.862  30.679  1.00  0.00     0.283 C 
HETATM   24  C   UNL     1      27.850  21.481  33.219  1.00  0.00     0.283 C 
HETATM   25  C   UNL     1      32.583  18.634  28.680  1.00  0.00     0.153 C 
HETATM   26  C   UNL     1      26.352  18.510  33.048  1.00  0.00     0.153 C 
HETATM   27  C   UNL     1      31.760  19.548  32.502  1.00  0.00     0.153 C 
ENDROOT
BRANCH  17  28
HETATM   28  C   UNL     1      25.959  17.340  29.917  1.00  0.00     0.016 C 
HETATM   29  C   UNL     1      25.864  17.239  28.395  1.00  0.00     0.012 C 
HETATM   30  C   UNL     1      25.636  15.995  30.564  1.00  0.00     0.012 C 
ENDBRANCH  17  28
BRANCH  13  31
HETATM   31  C   UNL     1      30.804  16.674  27.471  1.00  0.00     0.014 C 
HETATM   32  C   UNL     1      29.802  15.537  27.679  1.00  0.00     0.012 C 
BRANCH  31  33
HETATM   33  C   UNL     1      31.176  16.860  25.989  1.00  0.00     0.002 C 
HETATM   34  C   UNL     1      32.590  16.410  25.652  1.00  0.00     0.005 C 
ENDBRANCH  31  33
ENDBRANCH  13  31
BRANCH  14  35
HETATM   35  C   UNL     1      25.365  21.242  33.318  1.00  0.00     0.010 C 
HETATM   36  C   UNL     1      25.722  21.408  34.793  1.00  0.00     0.012 C 
HETATM   37  C   UNL     1      24.646  22.487  32.798  1.00  0.00     0.012 C 
ENDBRANCH  14  35
BRANCH  16  38
HETATM   38  C   UNL     1      31.247  22.852  28.268  1.00  0.00     0.016 C 
HETATM   39  C   UNL     1      32.360  23.672  27.619  1.00  0.00     0.012 C 
HETATM   40  C   UNL     1      30.684  23.583  29.486  1.00  0.00     0.012 C 
ENDBRANCH  16  38
BRANCH  18  41
HETATM   41  C   UNL     1      29.504  21.313  35.718  1.00  0.00     0.016 C 
HETATM   42  C   UNL     1      30.754  21.680  36.514  1.00  0.00     0.012 C 
HETATM   43  C   UNL     1      28.654  20.304  36.488  1.00  0.00     0.012 C 
ENDBRANCH  18  41
BRANCH  15  44
HETATM   44  C   UNL     1      34.276  21.187  32.718  1.00  0.00     0.010 C 
HETATM   45  C   UNL     1      34.596  19.855  32.046  1.00  0.00     0.012 C 
HETATM   46  C   UNL     1      34.233  21.029  34.235  1.00  0.00     0.012 C 
ENDBRANCH  15  44
TORSDOF 7
ENDMDL
MODEL 19
REMARK VINA RESULT:    -4.990      2.856      7.301
REMARK INTER + INTRA:          -6.152
REMARK INTER:                  -7.988
REMARK INTRA:                   1.836
REMARK UNBOUND:                 0.880
REMARK  7 active torsions:
REMARK  status: ('A' for Active; 'I' for Inactive)
REMARK    1  A    between atoms: C_13  and  C_14 
REMARK    2  A    between atoms: C_14  and  C_19 
REMARK    3  A    between atoms: C_15  and  C_20 
REMARK    4  A    between atoms: C_16  and  C_21 
REMARK    5  A    between atoms: C_17  and  C_23 
REMARK    6  A    between atoms: C_18  and  C_26 
REMARK    7  A    between atoms: C_22  and  C_28 
ROOT
HETATM    1  O   UNL     1      30.186  22.408  28.830  1.00  0.00    -0.304 OA
HETATM    2  O   UNL     1      26.903  21.388  32.763  1.00  0.00    -0.304 OA
HETATM    3  O   UNL     1      31.481  20.415  33.426  1.00  0.00    -0.304 OA
HETATM    4  O   UNL     1      27.227  20.801  29.640  1.00  0.00    -0.270 OA
HETATM    5  O   UNL     1      29.892  23.693  30.722  1.00  0.00    -0.263 OA
HETATM    6  O   UNL     1      30.063  20.150  30.097  1.00  0.00    -0.270 OA
HETATM    7  O   UNL     1      29.241  19.626  35.633  1.00  0.00    -0.270 OA
HETATM    8  O   UNL     1      25.140  21.711  34.201  1.00  0.00    -0.263 OA
HETATM    9  O   UNL     1      31.015  18.183  33.746  1.00  0.00    -0.263 OA
HETATM   10  N   UNL     1      27.165  23.039  30.253  1.00  0.00    -0.340 N 
HETATM   11  N   UNL     1      32.225  20.145  30.919  1.00  0.00    -0.340 N 
HETATM   12  N   UNL     1      28.789  21.682  34.645  1.00  0.00    -0.340 N 
HETATM   13  C   UNL     1      28.067  23.396  29.139  1.00  0.00     0.190 C 
HETATM   14  C   UNL     1      31.967  18.882  31.643  1.00  0.00     0.190 C 
HETATM   15  C   UNL     1      27.383  21.683  35.100  1.00  0.00     0.190 C 
HETATM   16  C   UNL     1      26.007  21.294  31.638  1.00  0.00     0.227 C 
HETATM   17  C   UNL     1      31.462  21.921  29.302  1.00  0.00     0.227 C 
HETATM   18  C   UNL     1      31.138  20.816  34.765  1.00  0.00     0.227 C 
HETATM   19  C   UNL     1      26.847  21.679  30.423  1.00  0.00     0.250 C 
HETATM   20  C   UNL     1      29.478  23.214  29.674  1.00  0.00     0.283 C 
HETATM   21  C   UNL     1      31.184  20.669  30.139  1.00  0.00     0.250 C 
HETATM   22  C   UNL     1      29.639  20.639  35.051  1.00  0.00     0.250 C 
HETATM   23  C   UNL     1      26.344  21.612  33.984  1.00  0.00     0.283 C 
HETATM   24  C   UNL     1      31.418  19.109  33.050  1.00  0.00     0.283 C 
HETATM   25  C   UNL     1      26.694  24.118  31.126  1.00  0.00     0.153 C 
HETATM   26  C   UNL     1      33.533  20.780  31.094  1.00  0.00     0.153 C 
HETATM   27  C   UNL     1      29.273  22.870  33.940  1.00  0.00     0.153 C 
ENDROOT
BRANCH  17  28
HETATM   28  C   UNL     1      32.284  21.573  28.070  1.00  0.00     0.016 C 
HETATM   29  C   UNL     1      32.097  20.103  27.695  1.00  0.00     0.012 C 
HETATM   30  C   UNL     1      31.909  22.477  26.897  1.00  0.00     0.012 C 
ENDBRANCH  17  28
BRANCH  13  31
HETATM   31  C   UNL     1      27.898  24.799  28.566  1.00  0.00     0.014 C 
HETATM   32  C   UNL     1      29.005  25.082  27.549  1.00  0.00     0.012 C 
BRANCH  31  33
HETATM   33  C   UNL     1      26.493  24.951  27.957  1.00  0.00     0.002 C 
HETATM   34  C   UNL     1      25.866  26.317  28.198  1.00  0.00     0.005 C 
ENDBRANCH  31  33
ENDBRANCH  13  31
BRANCH  14  35
HETATM   35  C   UNL     1      33.177  17.951  31.707  1.00  0.00     0.010 C 
HETATM   36  C   UNL     1      33.683  17.820  33.142  1.00  0.00     0.012 C 
HETATM   37  C   UNL     1      32.832  16.577  31.135  1.00  0.00     0.012 C 
ENDBRANCH  14  35
BRANCH  16  38
HETATM   38  C   UNL     1      25.495  19.859  31.538  1.00  0.00     0.016 C 
HETATM   39  C   UNL     1      26.570  18.870  31.985  1.00  0.00     0.012 C 
HETATM   40  C   UNL     1      25.041  19.547  30.113  1.00  0.00     0.012 C 
ENDBRANCH  16  38
BRANCH  18  41
HETATM   41  C   UNL     1      32.022  20.131  35.807  1.00  0.00     0.016 C 
HETATM   42  C   UNL     1      31.695  20.643  37.208  1.00  0.00     0.012 C 
HETATM   43  C   UNL     1      33.498  20.353  35.486  1.00  0.00     0.012 C 
ENDBRANCH  18  41
BRANCH  15  44
HETATM   44  C   UNL     1      27.098  22.870  36.022  1.00  0.00     0.010 C 
HETATM   45  C   UNL     1      27.185  24.182  35.247  1.00  0.00     0.012 C 
HETATM   46  C   UNL     1      28.067  22.875  37.201  1.00  0.00     0.012 C 
ENDBRANCH  15  44
TORSDOF 7
ENDMDL
MODEL 20
REMARK VINA RESULT:    -4.936      2.871      7.613
REMARK INTER + INTRA:          -6.076
REMARK INTER:                  -7.302
REMARK INTRA:                   1.226
REMARK UNBOUND:                 0.880
REMARK  7 active torsions:
REMARK  status: ('A' for Active; 'I' for Inactive)
REMARK    1  A    between atoms: C_13  and  C_14 
REMARK    2  A    between atoms: C_14  and  C_19 
REMARK    3  A    between atoms: C_15  and  C_20 
REMARK    4  A    between atoms: C_16  and  C_21 
REMARK    5  A    between atoms: C_17  and  C_23 
REMARK    6  A    between atoms: C_18  and  C_26 
REMARK    7  A    between atoms: C_22  and  C_28 
ROOT
HETATM    1  O   UNL     1      28.863  23.502  30.284  1.00  0.00    -0.304 OA
HETATM    2  O   UNL     1      29.224  19.822  33.975  1.00  0.00    -0.304 OA
HETATM    3  O   UNL     1      32.982  20.504  31.190  1.00  0.00    -0.304 OA
HETATM    4  O   UNL     1      27.291  20.706  31.590  1.00  0.00    -0.270 OA
HETATM    5  O   UNL     1      29.963  23.704  32.301  1.00  0.00    -0.263 OA
HETATM    6  O   UNL     1      29.651  21.069  29.866  1.00  0.00    -0.270 OA
HETATM    7  O   UNL     1      32.898  18.106  33.370  1.00  0.00    -0.270 OA
HETATM    8  O   UNL     1      28.951  18.841  36.034  1.00  0.00    -0.263 OA
HETATM    9  O   UNL     1      32.866  18.339  30.415  1.00  0.00    -0.263 OA
HETATM   10  N   UNL     1      27.673  22.300  33.233  1.00  0.00    -0.340 N 
HETATM   11  N   UNL     1      31.779  21.567  29.107  1.00  0.00    -0.340 N 
HETATM   12  N   UNL     1      31.888  20.040  34.177  1.00  0.00    -0.340 N 
HETATM   13  C   UNL     1      27.551  23.389  32.241  1.00  0.00     0.190 C 
HETATM   14  C   UNL     1      32.095  20.127  28.991  1.00  0.00     0.190 C 
HETATM   15  C   UNL     1      31.191  19.319  35.263  1.00  0.00     0.190 C 
HETATM   16  C   UNL     1      27.798  19.850  33.765  1.00  0.00     0.227 C 
HETATM   17  C   UNL     1      30.109  23.398  29.562  1.00  0.00     0.227 C 
HETATM   18  C   UNL     1      33.663  20.171  32.413  1.00  0.00     0.227 C 
HETATM   19  C   UNL     1      27.561  20.978  32.765  1.00  0.00     0.250 C 
HETATM   20  C   UNL     1      28.938  23.565  31.647  1.00  0.00     0.283 C 
HETATM   21  C   UNL     1      30.488  21.915  29.531  1.00  0.00     0.250 C 
HETATM   22  C   UNL     1      32.781  19.335  33.352  1.00  0.00     0.250 C 
HETATM   23  C   UNL     1      29.668  19.307  35.154  1.00  0.00     0.283 C 
HETATM   24  C   UNL     1      32.674  19.543  30.277  1.00  0.00     0.283 C 
HETATM   25  C   UNL     1      27.940  22.670  34.626  1.00  0.00     0.153 C 
HETATM   26  C   UNL     1      32.843  22.527  28.808  1.00  0.00     0.153 C 
HETATM   27  C   UNL     1      31.748  21.496  34.133  1.00  0.00     0.153 C 
ENDROOT
BRANCH  17  28
HETATM   28  C   UNL     1      29.847  23.915  28.155  1.00  0.00     0.016 C 
HETATM   29  C   UNL     1      28.365  24.235  27.965  1.00  0.00     0.012 C 
HETATM   30  C   UNL     1      30.702  25.149  27.866  1.00  0.00     0.012 C 
ENDBRANCH  17  28
BRANCH  13  31
HETATM   31  C   UNL     1      27.032  24.720  32.772  1.00  0.00     0.014 C 
HETATM   32  C   UNL     1      27.824  25.872  32.150  1.00  0.00     0.012 C 
BRANCH  31  33
HETATM   33  C   UNL     1      25.521  24.840  32.505  1.00  0.00     0.002 C 
HETATM   34  C   UNL     1      24.658  24.147  33.550  1.00  0.00     0.005 C 
ENDBRANCH  31  33
ENDBRANCH  13  31
BRANCH  14  35
HETATM   35  C   UNL     1      33.011  19.790  27.814  1.00  0.00     0.010 C 
HETATM   36  C   UNL     1      33.770  18.491  28.076  1.00  0.00     0.012 C 
HETATM   37  C   UNL     1      32.208  19.688  26.517  1.00  0.00     0.012 C 
ENDBRANCH  14  35
BRANCH  16  38
HETATM   38  C   UNL     1      27.359  18.499  33.207  1.00  0.00     0.016 C 
HETATM   39  C   UNL     1      26.571  17.713  34.254  1.00  0.00     0.012 C 
HETATM   40  C   UNL     1      28.567  17.694  32.731  1.00  0.00     0.012 C 
ENDBRANCH  16  38
BRANCH  18  41
HETATM   41  C   UNL     1      35.022  19.525  32.148  1.00  0.00     0.016 C 
HETATM   42  C   UNL     1      35.882  19.547  33.410  1.00  0.00     0.012 C 
HETATM   43  C   UNL     1      35.738  20.231  30.999  1.00  0.00     0.012 C 
ENDBRANCH  18  41
BRANCH  15  44
HETATM   44  C   UNL     1      31.625  19.830  36.637  1.00  0.00     0.010 C 
HETATM   45  C   UNL     1      31.061  21.224  36.893  1.00  0.00     0.012 C 
HETATM   46  C   UNL     1      33.147  19.836  36.748  1.00  0.00     0.012 C 
ENDBRANCH  15  44
TORSDOF 7
ENDMDL
