MODEL 1
REMARK VINA RESULT:    -5.071      0.000      0.000
REMARK INTER + INTRA:          -6.397
REMARK INTER:                  -7.146
REMARK INTRA:                   0.750
REMARK UNBOUND:                 0.750
REMARK  7 active torsions:
REMARK  status: ('A' for Active; 'I' for Inactive)
REMARK    1  A    between atoms: C_13  and  C_14 
REMARK    2  A    between atoms: C_14  and  C_19 
REMARK    3  A    between atoms: C_15  and  C_20 
REMARK    4  A    between atoms: C_16  and  C_21 
REMARK    5  A    between atoms: C_17  and  C_23 
REMARK    6  A    between atoms: C_18  and  C_26 
REMARK    7  A    between atoms: C_22  and  C_28 
ROOT
HETATM    1  O   UNL     1      46.121  15.538  42.963  1.00  0.00    -0.304 OA
HETATM    2  O   UNL     1      47.557  12.662  38.846  1.00  0.00    -0.304 OA
HETATM    3  O   UNL     1      44.625  10.683  41.981  1.00  0.00    -0.304 OA
HETATM    4  O   UNL     1      48.865  14.418  41.171  1.00  0.00    -0.270 OA
HETATM    5  O   UNL     1      44.850  15.125  41.085  1.00  0.00    -0.263 OA
HETATM    6  O   UNL     1      47.060  13.127  43.107  1.00  0.00    -0.270 OA
HETATM    7  O   UNL     1      45.841   8.995  39.495  1.00  0.00    -0.270 OA
HETATM    8  O   UNL     1      48.070  12.188  36.657  1.00  0.00    -0.263 OA
HETATM    9  O   UNL     1      46.153   9.024  42.443  1.00  0.00    -0.263 OA
HETATM   10  N   UNL     1      47.353  15.516  39.796  1.00  0.00    -0.340 N 
HETATM   11  N   UNL     1      45.212  12.140  44.089  1.00  0.00    -0.340 N 
HETATM   12  N   UNL     1      45.324  11.179  38.882  1.00  0.00    -0.340 N 
HETATM   13  C   UNL     1      46.926  16.383  40.913  1.00  0.00     0.190 C 
HETATM   14  C   UNL     1      45.866  10.815  44.032  1.00  0.00     0.190 C 
HETATM   15  C   UNL     1      46.149  11.116  37.658  1.00  0.00     0.190 C 
HETATM   16  C   UNL     1      48.679  13.562  38.945  1.00  0.00     0.227 C 
HETATM   17  C   UNL     1      45.322  14.636  43.760  1.00  0.00     0.227 C 
HETATM   18  C   UNL     1      44.121  10.069  40.781  1.00  0.00     0.227 C 
HETATM   19  C   UNL     1      48.317  14.530  40.069  1.00  0.00     0.250 C 
HETATM   20  C   UNL     1      45.826  15.619  41.633  1.00  0.00     0.283 C 
HETATM   21  C   UNL     1      45.940  13.242  43.618  1.00  0.00     0.250 C 
HETATM   22  C   UNL     1      45.182  10.024  39.671  1.00  0.00     0.250 C 
HETATM   23  C   UNL     1      47.356  12.051  37.645  1.00  0.00     0.283 C 
HETATM   24  C   UNL     1      45.585  10.073  42.727  1.00  0.00     0.283 C 
HETATM   25  C   UNL     1      46.716  15.718  38.490  1.00  0.00     0.153 C 
HETATM   26  C   UNL     1      43.840  12.206  44.598  1.00  0.00     0.153 C 
HETATM   27  C   UNL     1      44.548  12.398  39.114  1.00  0.00     0.153 C 
ENDROOT
BRANCH  17  28
HETATM   28  C   UNL     1      45.413  15.121  45.199  1.00  0.00     0.016 C 
HETATM   29  C   UNL     1      46.620  16.040  45.384  1.00  0.00     0.012 C 
HETATM   30  C   UNL     1      44.128  15.837  45.610  1.00  0.00     0.012 C 
ENDBRANCH  17  28
BRANCH  13  31
HETATM   31  C   UNL     1      46.436  17.775  40.530  1.00  0.00     0.014 C 
HETATM   32  C   UNL     1      45.364  18.239  41.518  1.00  0.00     0.012 C 
BRANCH  31  33
HETATM   33  C   UNL     1      47.625  18.749  40.458  1.00  0.00     0.002 C 
HETATM   34  C   UNL     1      48.434  18.824  41.746  1.00  0.00     0.005 C 
ENDBRANCH  31  33
ENDBRANCH  13  31
BRANCH  14  35
HETATM   35  C   UNL     1      45.531   9.913  45.220  1.00  0.00     0.010 C 
HETATM   36  C   UNL     1      44.641   8.752  44.782  1.00  0.00     0.012 C 
HETATM   37  C   UNL     1      46.808   9.389  45.876  1.00  0.00     0.012 C 
ENDBRANCH  14  35
BRANCH  16  38
HETATM   38  C   UNL     1      49.928  12.751  39.279  1.00  0.00     0.016 C 
HETATM   39  C   UNL     1      50.917  12.781  38.115  1.00  0.00     0.012 C 
HETATM   40  C   UNL     1      49.559  11.311  39.631  1.00  0.00     0.012 C 
ENDBRANCH  16  38
BRANCH  18  41
HETATM   41  C   UNL     1      43.500   8.701  41.060  1.00  0.00     0.016 C 
HETATM   42  C   UNL     1      43.001   8.065  39.765  1.00  0.00     0.012 C 
HETATM   43  C   UNL     1      42.361   8.826  42.070  1.00  0.00     0.012 C 
ENDBRANCH  18  41
BRANCH  15  44
HETATM   44  C   UNL     1      45.299  11.322  36.404  1.00  0.00     0.010 C 
HETATM   45  C   UNL     1      44.804  12.764  36.324  1.00  0.00     0.012 C 
HETATM   46  C   UNL     1      44.125  10.347  36.389  1.00  0.00     0.012 C 
ENDBRANCH  15  44
TORSDOF 7
ENDMDL
MODEL 2
REMARK VINA RESULT:    -5.006      7.507     13.377
REMARK INTER + INTRA:          -6.305
REMARK INTER:                  -7.059
REMARK INTRA:                   0.754
REMARK UNBOUND:                 0.750
REMARK  7 active torsions:
REMARK  status: ('A' for Active; 'I' for Inactive)
REMARK    1  A    between atoms: C_13  and  C_14 
REMARK    2  A    between atoms: C_14  and  C_19 
REMARK    3  A    between atoms: C_15  and  C_20 
REMARK    4  A    between atoms: C_16  and  C_21 
REMARK    5  A    between atoms: C_17  and  C_23 
REMARK    6  A    between atoms: C_18  and  C_26 
REMARK    7  A    between atoms: C_22  and  C_28 
ROOT
HETATM    1  O   UNL     1      44.426   5.922  49.917  1.00  0.00    -0.304 OA
HETATM    2  O   UNL     1      49.161   3.741  50.250  1.00  0.00    -0.304 OA
HETATM    3  O   UNL     1      48.883   8.100  48.444  1.00  0.00    -0.304 OA
HETATM    4  O   UNL     1      46.245   3.084  49.124  1.00  0.00    -0.270 OA
HETATM    5  O   UNL     1      46.023   6.379  51.517  1.00  0.00    -0.263 OA
HETATM    6  O   UNL     1      46.127   5.790  47.966  1.00  0.00    -0.270 OA
HETATM    7  O   UNL     1      51.681   6.465  48.506  1.00  0.00    -0.270 OA
HETATM    8  O   UNL     1      50.883   2.525  51.163  1.00  0.00    -0.263 OA
HETATM    9  O   UNL     1      49.764   7.384  46.442  1.00  0.00    -0.263 OA
HETATM   10  N   UNL     1      46.376   3.561  51.391  1.00  0.00    -0.340 N 
HETATM   11  N   UNL     1      46.383   8.064  47.631  1.00  0.00    -0.340 N 
HETATM   12  N   UNL     1      50.426   6.098  50.430  1.00  0.00    -0.340 N 
HETATM   13  C   UNL     1      45.027   4.163  51.369  1.00  0.00     0.190 C 
HETATM   14  C   UNL     1      47.395   7.815  46.582  1.00  0.00     0.190 C 
HETATM   15  C   UNL     1      51.198   4.893  50.801  1.00  0.00     0.190 C 
HETATM   16  C   UNL     1      48.331   2.565  50.173  1.00  0.00     0.227 C 
HETATM   17  C   UNL     1      44.666   7.182  49.252  1.00  0.00     0.227 C 
HETATM   18  C   UNL     1      50.152   8.213  49.115  1.00  0.00     0.227 C 
HETATM   19  C   UNL     1      46.897   3.085  50.174  1.00  0.00     0.250 C 
HETATM   20  C   UNL     1      45.230   5.618  50.978  1.00  0.00     0.283 C 
HETATM   21  C   UNL     1      45.787   6.947  48.235  1.00  0.00     0.250 C 
HETATM   22  C   UNL     1      50.822   6.845  49.308  1.00  0.00     0.250 C 
HETATM   23  C   UNL     1      50.407   3.588  50.777  1.00  0.00     0.283 C 
HETATM   24  C   UNL     1      48.814   7.723  47.139  1.00  0.00     0.283 C 
HETATM   25  C   UNL     1      47.093   3.534  52.670  1.00  0.00     0.153 C 
HETATM   26  C   UNL     1      46.100   9.455  47.994  1.00  0.00     0.153 C 
HETATM   27  C   UNL     1      49.393   6.553  51.362  1.00  0.00     0.153 C 
ENDROOT
BRANCH  17  28
HETATM   28  C   UNL     1      43.372   7.562  48.547  1.00  0.00     0.016 C 
HETATM   29  C   UNL     1      43.195   6.744  47.268  1.00  0.00     0.012 C 
HETATM   30  C   UNL     1      42.174   7.368  49.476  1.00  0.00     0.012 C 
ENDBRANCH  17  28
BRANCH  13  31
HETATM   31  C   UNL     1      44.233   4.072  52.667  1.00  0.00     0.014 C 
HETATM   32  C   UNL     1      43.165   5.167  52.701  1.00  0.00     0.012 C 
BRANCH  31  33
HETATM   33  C   UNL     1      43.631   2.664  52.817  1.00  0.00     0.002 C 
HETATM   34  C   UNL     1      43.998   1.977  54.125  1.00  0.00     0.005 C 
ENDBRANCH  31  33
ENDBRANCH  13  31
BRANCH  14  35
HETATM   35  C   UNL     1      47.356   8.827  45.437  1.00  0.00     0.010 C 
HETATM   36  C   UNL     1      48.616   9.690  45.436  1.00  0.00     0.012 C 
HETATM   37  C   UNL     1      47.193   8.116  44.094  1.00  0.00     0.012 C 
ENDBRANCH  14  35
BRANCH  16  38
HETATM   38  C   UNL     1      48.659   1.818  48.882  1.00  0.00     0.016 C 
HETATM   39  C   UNL     1      49.274   0.454  49.190  1.00  0.00     0.012 C 
HETATM   40  C   UNL     1      49.601   2.644  48.006  1.00  0.00     0.012 C 
ENDBRANCH  16  38
BRANCH  18  41
HETATM   41  C   UNL     1      51.067   9.228  48.431  1.00  0.00     0.016 C 
HETATM   42  C   UNL     1      52.414   9.303  49.147  1.00  0.00     0.012 C 
HETATM   43  C   UNL     1      50.405  10.603  48.387  1.00  0.00     0.012 C 
ENDBRANCH  18  41
BRANCH  15  44
HETATM   44  C   UNL     1      51.894   5.073  52.151  1.00  0.00     0.010 C 
HETATM   45  C   UNL     1      53.353   4.634  52.064  1.00  0.00     0.012 C 
HETATM   46  C   UNL     1      51.160   4.292  53.238  1.00  0.00     0.012 C 
ENDBRANCH  15  44
TORSDOF 7
ENDMDL
MODEL 3
REMARK VINA RESULT:    -4.950      7.088     11.424
REMARK INTER + INTRA:          -6.225
REMARK INTER:                  -6.962
REMARK INTRA:                   0.737
REMARK UNBOUND:                 0.750
REMARK  7 active torsions:
REMARK  status: ('A' for Active; 'I' for Inactive)
REMARK    1  A    between atoms: C_13  and  C_14 
REMARK    2  A    between atoms: C_14  and  C_19 
REMARK    3  A    between atoms: C_15  and  C_20 
REMARK    4  A    between atoms: C_16  and  C_21 
REMARK    5  A    between atoms: C_17  and  C_23 
REMARK    6  A    between atoms: C_18  and  C_26 
REMARK    7  A    between atoms: C_22  and  C_28 
ROOT
HETATM    1  O   UNL     1      43.519   8.239  48.142  1.00  0.00    -0.304 OA
HETATM    2  O   UNL     1      48.418   6.510  48.697  1.00  0.00    -0.304 OA
HETATM    3  O   UNL     1      45.091   4.579  51.445  1.00  0.00    -0.304 OA
HETATM    4  O   UNL     1      46.790   9.259  48.652  1.00  0.00    -0.270 OA
HETATM    5  O   UNL     1      44.369   6.269  47.297  1.00  0.00    -0.263 OA
HETATM    6  O   UNL     1      44.763   8.040  50.407  1.00  0.00    -0.270 OA
HETATM    7  O   UNL     1      48.227   3.838  51.802  1.00  0.00    -0.270 OA
HETATM    8  O   UNL     1      50.519   5.834  48.062  1.00  0.00    -0.263 OA
HETATM    9  O   UNL     1      46.166   5.304  53.347  1.00  0.00    -0.263 OA
HETATM   10  N   UNL     1      46.606   7.936  46.753  1.00  0.00    -0.340 N 
HETATM   11  N   UNL     1      43.327   6.528  51.409  1.00  0.00    -0.340 N 
HETATM   12  N   UNL     1      47.651   4.091  49.562  1.00  0.00    -0.340 N 
HETATM   13  C   UNL     1      45.226   8.412  46.524  1.00  0.00     0.190 C 
HETATM   14  C   UNL     1      44.190   6.475  52.609  1.00  0.00     0.190 C 
HETATM   15  C   UNL     1      49.058   4.234  49.133  1.00  0.00     0.190 C 
HETATM   16  C   UNL     1      48.660   7.839  48.194  1.00  0.00     0.227 C 
HETATM   17  C   UNL     1      42.781   7.536  49.165  1.00  0.00     0.227 C 
HETATM   18  C   UNL     1      45.926   3.423  51.253  1.00  0.00     0.227 C 
HETATM   19  C   UNL     1      47.278   8.412  47.894  1.00  0.00     0.250 C 
HETATM   20  C   UNL     1      44.331   7.492  47.338  1.00  0.00     0.283 C 
HETATM   21  C   UNL     1      43.712   7.391  50.373  1.00  0.00     0.250 C 
HETATM   22  C   UNL     1      47.373   3.810  50.910  1.00  0.00     0.250 C 
HETATM   23  C   UNL     1      49.421   5.600  48.557  1.00  0.00     0.283 C 
HETATM   24  C   UNL     1      45.273   5.403  52.511  1.00  0.00     0.283 C 
HETATM   25  C   UNL     1      47.167   6.974  45.799  1.00  0.00     0.153 C 
HETATM   26  C   UNL     1      42.154   5.652  51.370  1.00  0.00     0.153 C 
HETATM   27  C   UNL     1      46.624   4.071  48.519  1.00  0.00     0.153 C 
ENDROOT
BRANCH  17  28
HETATM   28  C   UNL     1      41.579   8.401  49.515  1.00  0.00     0.016 C 
HETATM   29  C   UNL     1      41.783   9.833  49.022  1.00  0.00     0.012 C 
HETATM   30  C   UNL     1      40.299   7.810  48.925  1.00  0.00     0.012 C 
ENDBRANCH  17  28
BRANCH  13  31
HETATM   31  C   UNL     1      44.765   8.446  45.071  1.00  0.00     0.014 C 
HETATM   32  C   UNL     1      43.249   8.644  45.013  1.00  0.00     0.012 C 
BRANCH  31  33
HETATM   33  C   UNL     1      45.527   9.540  44.303  1.00  0.00     0.002 C 
HETATM   34  C   UNL     1      45.913   9.139  42.887  1.00  0.00     0.005 C 
ENDBRANCH  31  33
ENDBRANCH  13  31
BRANCH  14  35
HETATM   35  C   UNL     1      43.417   6.307  53.917  1.00  0.00     0.010 C 
HETATM   36  C   UNL     1      43.638   4.914  54.500  1.00  0.00     0.012 C 
HETATM   37  C   UNL     1      43.823   7.381  54.926  1.00  0.00     0.012 C 
ENDBRANCH  14  35
BRANCH  16  38
HETATM   38  C   UNL     1      49.385   8.645  49.268  1.00  0.00     0.016 C 
HETATM   39  C   UNL     1      50.815   8.959  48.834  1.00  0.00     0.012 C 
HETATM   40  C   UNL     1      49.382   7.894  50.599  1.00  0.00     0.012 C 
ENDBRANCH  16  38
BRANCH  18  41
HETATM   41  C   UNL     1      45.838   2.456  52.433  1.00  0.00     0.016 C 
HETATM   42  C   UNL     1      46.727   1.238  52.197  1.00  0.00     0.012 C 
HETATM   43  C   UNL     1      44.391   2.027  52.668  1.00  0.00     0.012 C 
ENDBRANCH  18  41
BRANCH  15  44
HETATM   44  C   UNL     1      49.459   3.121  48.163  1.00  0.00     0.010 C 
HETATM   45  C   UNL     1      48.796   1.804  48.557  1.00  0.00     0.012 C 
HETATM   46  C   UNL     1      50.977   2.969  48.124  1.00  0.00     0.012 C 
ENDBRANCH  15  44
TORSDOF 7
ENDMDL
MODEL 4
REMARK VINA RESULT:    -4.920      2.781      7.091
REMARK INTER + INTRA:          -6.183
REMARK INTER:                  -7.500
REMARK INTRA:                   1.317
REMARK UNBOUND:                 0.750
REMARK  7 active torsions:
REMARK  status: ('A' for Active; 'I' for Inactive)
REMARK    1  A    between atoms: C_13  and  C_14 
REMARK    2  A    between atoms: C_14  and  C_19 
REMARK    3  A    between atoms: C_15  and  C_20 
REMARK    4  A    between atoms: C_16  and  C_21 
REMARK    5  A    between atoms: C_17  and  C_23 
REMARK    6  A    between atoms: C_18  and  C_26 
REMARK    7  A    between atoms: C_22  and  C_28 
ROOT
HETATM    1  O   UNL     1      46.955  12.301  38.135  1.00  0.00    -0.304 OA
HETATM    2  O   UNL     1      47.530  17.199  39.859  1.00  0.00    -0.304 OA
HETATM    3  O   UNL     1      43.936  14.673  41.603  1.00  0.00    -0.304 OA
HETATM    4  O   UNL     1      47.333  15.587  37.108  1.00  0.00    -0.270 OA
HETATM    5  O   UNL     1      47.868  12.931  40.157  1.00  0.00    -0.263 OA
HETATM    6  O   UNL     1      45.061  14.068  38.207  1.00  0.00    -0.270 OA
HETATM    7  O   UNL     1      44.324  17.806  42.341  1.00  0.00    -0.270 OA
HETATM    8  O   UNL     1      48.625  19.083  40.585  1.00  0.00    -0.263 OA
HETATM    9  O   UNL     1      42.405  16.179  40.773  1.00  0.00    -0.263 OA
HETATM   10  N   UNL     1      49.045  14.950  38.540  1.00  0.00    -0.340 N 
HETATM   11  N   UNL     1      43.647  12.939  39.648  1.00  0.00    -0.340 N 
HETATM   12  N   UNL     1      46.362  16.691  42.218  1.00  0.00    -0.340 N 
HETATM   13  C   UNL     1      48.954  13.552  38.070  1.00  0.00     0.190 C 
HETATM   14  C   UNL     1      42.698  14.072  39.636  1.00  0.00     0.190 C 
HETATM   15  C   UNL     1      47.134  17.947  42.110  1.00  0.00     0.190 C 
HETATM   16  C   UNL     1      48.156  17.297  38.564  1.00  0.00     0.227 C 
HETATM   17  C   UNL     1      45.742  11.845  38.772  1.00  0.00     0.227 C 
HETATM   18  C   UNL     1      44.259  15.445  42.774  1.00  0.00     0.227 C 
HETATM   19  C   UNL     1      48.137  15.879  38.001  1.00  0.00     0.250 C 
HETATM   20  C   UNL     1      47.891  12.895  38.934  1.00  0.00     0.283 C 
HETATM   21  C   UNL     1      44.796  13.047  38.851  1.00  0.00     0.250 C 
HETATM   22  C   UNL     1      44.972  16.757  42.417  1.00  0.00     0.250 C 
HETATM   23  C   UNL     1      47.861  18.144  40.782  1.00  0.00     0.283 C 
HETATM   24  C   UNL     1      42.998  15.107  40.718  1.00  0.00     0.283 C 
HETATM   25  C   UNL     1      50.050  15.265  39.560  1.00  0.00     0.153 C 
HETATM   26  C   UNL     1      43.343  11.800  40.518  1.00  0.00     0.153 C 
HETATM   27  C   UNL     1      47.114  15.438  42.293  1.00  0.00     0.153 C 
ENDROOT
BRANCH  17  28
HETATM   28  C   UNL     1      45.157  10.759  37.880  1.00  0.00     0.016 C 
HETATM   29  C   UNL     1      45.357  11.107  36.406  1.00  0.00     0.012 C 
HETATM   30  C   UNL     1      45.784   9.403  38.200  1.00  0.00     0.012 C 
ENDBRANCH  17  28
BRANCH  13  31
HETATM   31  C   UNL     1      50.246  12.745  38.119  1.00  0.00     0.014 C 
HETATM   32  C   UNL     1      49.923  11.254  38.240  1.00  0.00     0.012 C 
BRANCH  31  33
HETATM   33  C   UNL     1      51.108  13.057  36.883  1.00  0.00     0.002 C 
HETATM   34  C   UNL     1      50.397  12.802  35.561  1.00  0.00     0.005 C 
ENDBRANCH  31  33
ENDBRANCH  13  31
BRANCH  14  35
HETATM   35  C   UNL     1      41.232  13.648  39.721  1.00  0.00     0.010 C 
HETATM   36  C   UNL     1      40.630  14.051  41.065  1.00  0.00     0.012 C 
HETATM   37  C   UNL     1      40.427  14.254  38.571  1.00  0.00     0.012 C 
ENDBRANCH  14  35
BRANCH  16  38
HETATM   38  C   UNL     1      47.344  18.258  37.700  1.00  0.00     0.016 C 
HETATM   39  C   UNL     1      45.880  17.824  37.639  1.00  0.00     0.012 C 
HETATM   40  C   UNL     1      47.934  18.349  36.294  1.00  0.00     0.012 C 
ENDBRANCH  16  38
BRANCH  18  41
HETATM   41  C   UNL     1      43.039  15.659  43.669  1.00  0.00     0.016 C 
HETATM   42  C   UNL     1      43.413  16.488  44.896  1.00  0.00     0.012 C 
HETATM   43  C   UNL     1      42.439  14.319  44.088  1.00  0.00     0.012 C 
ENDBRANCH  18  41
BRANCH  15  44
HETATM   44  C   UNL     1      48.105  18.105  43.281  1.00  0.00     0.010 C 
HETATM   45  C   UNL     1      49.391  17.328  43.017  1.00  0.00     0.012 C 
HETATM   46  C   UNL     1      47.453  17.643  44.580  1.00  0.00     0.012 C 
ENDBRANCH  15  44
TORSDOF 7
ENDMDL
MODEL 5
REMARK VINA RESULT:    -4.902      4.112      7.417
REMARK INTER + INTRA:          -6.159
REMARK INTER:                  -6.853
REMARK INTRA:                   0.695
REMARK UNBOUND:                 0.750
REMARK  7 active torsions:
REMARK  status: ('A' for Active; 'I' for Inactive)
REMARK    1  A    between atoms: C_13  and  C_14 
REMARK    2  A    between atoms: C_14  and  C_19 
REMARK    3  A    between atoms: C_15  and  C_20 
REMARK    4  A    between atoms: C_16  and  C_21 
REMARK    5  A    between atoms: C_17  and  C_23 
REMARK    6  A    between atoms: C_18  and  C_26 
REMARK    7  A    between atoms: C_22  and  C_28 
ROOT
HETATM    1  O   UNL     1      48.109  17.580  42.714  1.00  0.00    -0.304 OA
HETATM    2  O   UNL     1      47.125  16.406  37.720  1.00  0.00    -0.304 OA
HETATM    3  O   UNL     1      51.561  15.868  39.261  1.00  0.00    -0.304 OA
HETATM    4  O   UNL     1      46.688  18.792  39.797  1.00  0.00    -0.270 OA
HETATM    5  O   UNL     1      47.852  15.461  41.842  1.00  0.00    -0.263 OA
HETATM    6  O   UNL     1      49.474  18.465  40.697  1.00  0.00    -0.270 OA
HETATM    7  O   UNL     1      50.786  15.443  36.142  1.00  0.00    -0.270 OA
HETATM    8  O   UNL     1      45.973  15.561  35.920  1.00  0.00    -0.263 OA
HETATM    9  O   UNL     1      52.335  17.406  37.733  1.00  0.00    -0.263 OA
HETATM   10  N   UNL     1      45.771  16.745  40.392  1.00  0.00    -0.340 N 
HETATM   11  N   UNL     1      51.514  17.546  41.285  1.00  0.00    -0.340 N 
HETATM   12  N   UNL     1      49.129  14.632  37.560  1.00  0.00    -0.340 N 
HETATM   13  C   UNL     1      45.994  17.032  41.824  1.00  0.00     0.190 C 
HETATM   14  C   UNL     1      52.127  18.066  40.044  1.00  0.00     0.190 C 
HETATM   15  C   UNL     1      48.115  14.594  36.486  1.00  0.00     0.190 C 
HETATM   16  C   UNL     1      46.079  17.363  37.979  1.00  0.00     0.227 C 
HETATM   17  C   UNL     1      49.537  17.405  42.841  1.00  0.00     0.227 C 
HETATM   18  C   UNL     1      51.510  14.771  38.331  1.00  0.00     0.227 C 
HETATM   19  C   UNL     1      46.207  17.705  39.461  1.00  0.00     0.250 C 
HETATM   20  C   UNL     1      47.409  16.566  42.125  1.00  0.00     0.283 C 
HETATM   21  C   UNL     1      50.164  17.848  41.516  1.00  0.00     0.250 C 
HETATM   22  C   UNL     1      50.450  14.991  37.242  1.00  0.00     0.250 C 
HETATM   23  C   UNL     1      46.943  15.555  36.672  1.00  0.00     0.283 C 
HETATM   24  C   UNL     1      52.009  17.092  38.873  1.00  0.00     0.283 C 
HETATM   25  C   UNL     1      45.147  15.466  40.039  1.00  0.00     0.153 C 
HETATM   26  C   UNL     1      52.345  16.723  42.166  1.00  0.00     0.153 C 
HETATM   27  C   UNL     1      48.743  14.115  38.874  1.00  0.00     0.153 C 
ENDROOT
BRANCH  17  28
HETATM   28  C   UNL     1      49.992  18.307  43.979  1.00  0.00     0.016 C 
HETATM   29  C   UNL     1      48.875  19.268  44.385  1.00  0.00     0.012 C 
HETATM   30  C   UNL     1      50.445  17.475  45.178  1.00  0.00     0.012 C 
ENDBRANCH  17  28
BRANCH  13  31
HETATM   31  C   UNL     1      45.010  16.389  42.795  1.00  0.00     0.014 C 
HETATM   32  C   UNL     1      45.615  16.354  44.200  1.00  0.00     0.012 C 
BRANCH  31  33
HETATM   33  C   UNL     1      43.667  17.139  42.757  1.00  0.00     0.002 C 
HETATM   34  C   UNL     1      42.793  16.894  43.979  1.00  0.00     0.005 C 
ENDBRANCH  31  33
ENDBRANCH  13  31
BRANCH  14  35
HETATM   35  C   UNL     1      53.584  18.497  40.211  1.00  0.00     0.010 C 
HETATM   36  C   UNL     1      54.523  17.502  39.531  1.00  0.00     0.012 C 
HETATM   37  C   UNL     1      53.799  19.903  39.651  1.00  0.00     0.012 C 
ENDBRANCH  14  35
BRANCH  16  38
HETATM   38  C   UNL     1      46.306  18.587  37.095  1.00  0.00     0.016 C 
HETATM   39  C   UNL     1      45.213  18.695  36.034  1.00  0.00     0.012 C 
HETATM   40  C   UNL     1      47.685  18.531  36.440  1.00  0.00     0.012 C 
ENDBRANCH  16  38
BRANCH  18  41
HETATM   41  C   UNL     1      52.889  14.448  37.756  1.00  0.00     0.016 C 
HETATM   42  C   UNL     1      52.779  13.390  36.661  1.00  0.00     0.012 C 
HETATM   43  C   UNL     1      53.834  13.981  38.861  1.00  0.00     0.012 C 
ENDBRANCH  18  41
BRANCH  15  44
HETATM   44  C   UNL     1      47.608  13.171  36.249  1.00  0.00     0.010 C 
HETATM   45  C   UNL     1      47.611  12.843  34.759  1.00  0.00     0.012 C 
HETATM   46  C   UNL     1      46.211  12.998  36.836  1.00  0.00     0.012 C 
ENDBRANCH  15  44
TORSDOF 7
ENDMDL
MODEL 6
REMARK VINA RESULT:    -4.807      2.607      8.776
REMARK INTER + INTRA:          -6.024
REMARK INTER:                  -6.676
REMARK INTRA:                   0.652
REMARK UNBOUND:                 0.750
REMARK  7 active torsions:
REMARK  status: ('A' for Active; 'I' for Inactive)
REMARK    1  A    between atoms: C_13  and  C_14 
REMARK    2  A    between atoms: C_14  and  C_19 
REMARK    3  A    between atoms: C_15  and  C_20 
REMARK    4  A    between atoms: C_16  and  C_21 
REMARK    5  A    between atoms: C_17  and  C_23 
REMARK    6  A    between atoms: C_18  and  C_26 
REMARK    7  A    between atoms: C_22  and  C_28 
ROOT
HETATM    1  O   UNL     1      42.587   8.736  37.792  1.00  0.00    -0.304 OA
HETATM    2  O   UNL     1      42.675  10.887  42.552  1.00  0.00    -0.304 OA
HETATM    3  O   UNL     1      44.949  13.156  39.084  1.00  0.00    -0.304 OA
HETATM    4  O   UNL     1      43.277   8.094  41.124  1.00  0.00    -0.270 OA
HETATM    5  O   UNL     1      41.305  10.516  38.502  1.00  0.00    -0.263 OA
HETATM    6  O   UNL     1      44.732   9.534  39.008  1.00  0.00    -0.270 OA
HETATM    7  O   UNL     1      45.090  14.177  42.157  1.00  0.00    -0.270 OA
HETATM    8  O   UNL     1      41.877  11.547  44.602  1.00  0.00    -0.263 OA
HETATM    9  O   UNL     1      46.953  12.961  40.199  1.00  0.00    -0.263 OA
HETATM   10  N   UNL     1      41.129   8.931  40.855  1.00  0.00    -0.340 N 
HETATM   11  N   UNL     1      45.380  11.130  37.463  1.00  0.00    -0.340 N 
HETATM   12  N   UNL     1      42.974  13.380  41.611  1.00  0.00    -0.340 N 
HETATM   13  C   UNL     1      41.031   8.320  39.514  1.00  0.00     0.190 C 
HETATM   14  C   UNL     1      46.526  11.517  38.315  1.00  0.00     0.190 C 
HETATM   15  C   UNL     1      42.572  13.242  43.026  1.00  0.00     0.190 C 
HETATM   16  C   UNL     1      42.485   9.499  42.890  1.00  0.00     0.227 C 
HETATM   17  C   UNL     1      43.432   9.601  37.001  1.00  0.00     0.227 C 
HETATM   18  C   UNL     1      44.489  14.293  39.835  1.00  0.00     0.227 C 
HETATM   19  C   UNL     1      42.340   8.776  41.554  1.00  0.00     0.250 C 
HETATM   20  C   UNL     1      41.624   9.335  38.552  1.00  0.00     0.283 C 
HETATM   21  C   UNL     1      44.563  10.083  37.913  1.00  0.00     0.250 C 
HETATM   22  C   UNL     1      44.226  13.941  41.307  1.00  0.00     0.250 C 
HETATM   23  C   UNL     1      42.319  11.810  43.488  1.00  0.00     0.283 C 
HETATM   24  C   UNL     1      46.173  12.611  39.320  1.00  0.00     0.283 C 
HETATM   25  C   UNL     1      39.974   9.687  41.350  1.00  0.00     0.153 C 
HETATM   26  C   UNL     1      45.157  11.889  36.231  1.00  0.00     0.153 C 
HETATM   27  C   UNL     1      41.966  13.089  40.590  1.00  0.00     0.153 C 
ENDROOT
BRANCH  17  28
HETATM   28  C   UNL     1      43.984   8.756  35.861  1.00  0.00     0.016 C 
HETATM   29  C   UNL     1      43.758   7.269  36.134  1.00  0.00     0.012 C 
HETATM   30  C   UNL     1      43.346   9.159  34.533  1.00  0.00     0.012 C 
ENDBRANCH  17  28
BRANCH  13  31
HETATM   31  C   UNL     1      39.630   7.922  39.062  1.00  0.00     0.014 C 
HETATM   32  C   UNL     1      39.577   7.850  37.535  1.00  0.00     0.012 C 
BRANCH  31  33
HETATM   33  C   UNL     1      39.222   6.594  39.723  1.00  0.00     0.002 C 
HETATM   34  C   UNL     1      39.201   5.413  38.763  1.00  0.00     0.005 C 
ENDBRANCH  31  33
ENDBRANCH  13  31
BRANCH  14  35
HETATM   35  C   UNL     1      47.770  11.924  37.526  1.00  0.00     0.010 C 
HETATM   36  C   UNL     1      47.955  13.439  37.553  1.00  0.00     0.012 C 
HETATM   37  C   UNL     1      49.012  11.223  38.077  1.00  0.00     0.012 C 
ENDBRANCH  14  35
BRANCH  16  38
HETATM   38  C   UNL     1      43.706   9.013  43.666  1.00  0.00     0.016 C 
HETATM   39  C   UNL     1      43.352   8.768  45.132  1.00  0.00     0.012 C 
HETATM   40  C   UNL     1      44.852  10.017  43.552  1.00  0.00     0.012 C 
ENDBRANCH  16  38
BRANCH  18  41
HETATM   41  C   UNL     1      45.418  15.496  39.673  1.00  0.00     0.016 C 
HETATM   42  C   UNL     1      44.925  16.673  40.510  1.00  0.00     0.012 C 
HETATM   43  C   UNL     1      45.530  15.892  38.202  1.00  0.00     0.012 C 
ENDBRANCH  18  41
BRANCH  15  44
HETATM   44  C   UNL     1      41.369  14.130  43.351  1.00  0.00     0.010 C 
HETATM   45  C   UNL     1      41.605  14.894  44.651  1.00  0.00     0.012 C 
HETATM   46  C   UNL     1      40.097  13.293  43.440  1.00  0.00     0.012 C 
ENDBRANCH  15  44
TORSDOF 7
ENDMDL
MODEL 7
REMARK VINA RESULT:    -4.699      3.425      8.081
REMARK INTER + INTRA:          -5.872
REMARK INTER:                  -6.559
REMARK INTRA:                   0.687
REMARK UNBOUND:                 0.750
REMARK  7 active torsions:
REMARK  status: ('A' for Active; 'I' for Inactive)
REMARK    1  A    between atoms: C_13  and  C_14 
REMARK    2  A    between atoms: C_14  and  C_19 
REMARK    3  A    between atoms: C_15  and  C_20 
REMARK    4  A    between atoms: C_16  and  C_21 
REMARK    5  A    between atoms: C_17  and  C_23 
REMARK    6  A    between atoms: C_18  and  C_26 
REMARK    7  A    between atoms: C_22  and  C_28 
ROOT
HETATM    1  O   UNL     1      48.428  17.020  35.960  1.00  0.00    -0.304 OA
HETATM    2  O   UNL     1      47.210  13.200  39.309  1.00  0.00    -0.304 OA
HETATM    3  O   UNL     1      51.618  14.902  39.440  1.00  0.00    -0.304 OA
HETATM    4  O   UNL     1      47.047  13.852  36.186  1.00  0.00    -0.270 OA
HETATM    5  O   UNL     1      47.957  17.278  38.203  1.00  0.00    -0.263 OA
HETATM    6  O   UNL     1      49.814  14.856  36.292  1.00  0.00    -0.270 OA
HETATM    7  O   UNL     1      50.725  12.364  41.248  1.00  0.00    -0.270 OA
HETATM    8  O   UNL     1      45.939  12.011  40.808  1.00  0.00    -0.263 OA
HETATM    9  O   UNL     1      52.488  12.837  38.913  1.00  0.00    -0.263 OA
HETATM   10  N   UNL     1      45.964  15.345  37.595  1.00  0.00    -0.340 N 
HETATM   11  N   UNL     1      51.777  15.858  36.996  1.00  0.00    -0.340 N 
HETATM   12  N   UNL     1      49.040  13.962  41.115  1.00  0.00    -0.340 N 
HETATM   13  C   UNL     1      46.249  16.463  36.672  1.00  0.00     0.190 C 
HETATM   14  C   UNL     1      52.402  14.534  37.201  1.00  0.00     0.190 C 
HETATM   15  C   UNL     1      47.998  13.019  41.573  1.00  0.00     0.190 C 
HETATM   16  C   UNL     1      46.263  12.941  38.254  1.00  0.00     0.227 C 
HETATM   17  C   UNL     1      49.837  17.246  36.183  1.00  0.00     0.227 C 
HETATM   18  C   UNL     1      51.443  14.619  40.840  1.00  0.00     0.227 C 
HETATM   19  C   UNL     1      46.460  14.074  37.251  1.00  0.00     0.250 C 
HETATM   20  C   UNL     1      47.624  16.981  37.063  1.00  0.00     0.283 C 
HETATM   21  C   UNL     1      50.467  15.886  36.496  1.00  0.00     0.250 C 
HETATM   22  C   UNL     1      50.379  13.537  41.078  1.00  0.00     0.250 C 
HETATM   23  C   UNL     1      46.924  12.692  40.539  1.00  0.00     0.283 C 
HETATM   24  C   UNL     1      52.165  13.979  38.604  1.00  0.00     0.283 C 
HETATM   25  C   UNL     1      45.217  15.642  38.821  1.00  0.00     0.153 C 
HETATM   26  C   UNL     1      52.552  17.045  37.362  1.00  0.00     0.153 C 
HETATM   27  C   UNL     1      48.643  15.353  40.893  1.00  0.00     0.153 C 
ENDROOT
BRANCH  17  28
HETATM   28  C   UNL     1      50.402  17.814  34.889  1.00  0.00     0.016 C 
HETATM   29  C   UNL     1      49.577  17.349  33.690  1.00  0.00     0.012 C 
HETATM   30  C   UNL     1      50.451  19.340  34.946  1.00  0.00     0.012 C 
ENDBRANCH  17  28
BRANCH  13  31
HETATM   31  C   UNL     1      45.237  17.603  36.671  1.00  0.00     0.014 C 
HETATM   32  C   UNL     1      45.948  18.928  36.387  1.00  0.00     0.012 C 
BRANCH  31  33
HETATM   33  C   UNL     1      44.118  17.311  35.656  1.00  0.00     0.002 C 
HETATM   34  C   UNL     1      43.574  18.556  34.970  1.00  0.00     0.005 C 
ENDBRANCH  31  33
ENDBRANCH  13  31
BRANCH  14  35
HETATM   35  C   UNL     1      53.896  14.502  36.880  1.00  0.00     0.010 C 
HETATM   36  C   UNL     1      54.717  14.281  38.149  1.00  0.00     0.012 C 
HETATM   37  C   UNL     1      54.204  13.416  35.849  1.00  0.00     0.012 C 
ENDBRANCH  14  35
BRANCH  16  38
HETATM   38  C   UNL     1      46.576  11.580  37.637  1.00  0.00     0.016 C 
HETATM   39  C   UNL     1      45.454  10.585  37.928  1.00  0.00     0.012 C 
HETATM   40  C   UNL     1      47.911  11.048  38.156  1.00  0.00     0.012 C 
ENDBRANCH  16  38
BRANCH  18  41
HETATM   41  C   UNL     1      52.771  14.301  41.526  1.00  0.00     0.016 C 
HETATM   42  C   UNL     1      52.549  13.977  43.002  1.00  0.00     0.012 C 
HETATM   43  C   UNL     1      53.745  15.467  41.374  1.00  0.00     0.012 C 
ENDBRANCH  18  41
BRANCH  15  44
HETATM   44  C   UNL     1      47.358  13.491  42.880  1.00  0.00     0.010 C 
HETATM   45  C   UNL     1      47.257  12.336  43.873  1.00  0.00     0.012 C 
HETATM   46  C   UNL     1      45.983  14.094  42.612  1.00  0.00     0.012 C 
ENDBRANCH  15  44
TORSDOF 7
ENDMDL
MODEL 8
REMARK VINA RESULT:    -4.684      7.017     11.345
REMARK INTER + INTRA:          -5.851
REMARK INTER:                  -6.755
REMARK INTRA:                   0.903
REMARK UNBOUND:                 0.750
REMARK  7 active torsions:
REMARK  status: ('A' for Active; 'I' for Inactive)
REMARK    1  A    between atoms: C_13  and  C_14 
REMARK    2  A    between atoms: C_14  and  C_19 
REMARK    3  A    between atoms: C_15  and  C_20 
REMARK    4  A    between atoms: C_16  and  C_21 
REMARK    5  A    between atoms: C_17  and  C_23 
REMARK    6  A    between atoms: C_18  and  C_26 
REMARK    7  A    between atoms: C_22  and  C_28 
ROOT
HETATM    1  O   UNL     1      52.748   7.230  48.763  1.00  0.00    -0.304 OA
HETATM    2  O   UNL     1      47.843   8.429  47.421  1.00  0.00    -0.304 OA
HETATM    3  O   UNL     1      48.532   4.433  49.851  1.00  0.00    -0.304 OA
HETATM    4  O   UNL     1      50.732   8.123  46.092  1.00  0.00    -0.270 OA
HETATM    5  O   UNL     1      51.142   8.133  50.150  1.00  0.00    -0.263 OA
HETATM    6  O   UNL     1      51.107   5.609  47.581  1.00  0.00    -0.270 OA
HETATM    7  O   UNL     1      45.610   5.236  48.700  1.00  0.00    -0.270 OA
HETATM    8  O   UNL     1      45.999   9.751  47.061  1.00  0.00    -0.263 OA
HETATM    9  O   UNL     1      47.662   3.175  48.131  1.00  0.00    -0.263 OA
HETATM   10  N   UNL     1      50.566   9.660  47.823  1.00  0.00    -0.340 N 
HETATM   11  N   UNL     1      51.046   3.985  49.226  1.00  0.00    -0.340 N 
HETATM   12  N   UNL     1      46.768   7.096  49.484  1.00  0.00    -0.340 N 
HETATM   13  C   UNL     1      51.959   9.389  48.232  1.00  0.00     0.190 C 
HETATM   14  C   UNL     1      50.053   3.210  48.452  1.00  0.00     0.190 C 
HETATM   15  C   UNL     1      45.889   8.045  48.769  1.00  0.00     0.190 C 
HETATM   16  C   UNL     1      48.577   9.119  46.391  1.00  0.00     0.227 C 
HETATM   17  C   UNL     1      52.632   5.936  49.395  1.00  0.00     0.227 C 
HETATM   18  C   UNL     1      47.256   4.813  50.397  1.00  0.00     0.227 C 
HETATM   19  C   UNL     1      50.048   8.921  46.745  1.00  0.00     0.250 C 
HETATM   20  C   UNL     1      51.888   8.204  49.182  1.00  0.00     0.283 C 
HETATM   21  C   UNL     1      51.530   5.171  48.656  1.00  0.00     0.250 C 
HETATM   22  C   UNL     1      46.471   5.723  49.440  1.00  0.00     0.250 C 
HETATM   23  C   UNL     1      46.572   8.851  47.667  1.00  0.00     0.283 C 
HETATM   24  C   UNL     1      48.613   3.608  48.773  1.00  0.00     0.283 C 
HETATM   25  C   UNL     1      49.808  10.654  48.590  1.00  0.00     0.153 C 
HETATM   26  C   UNL     1      51.429   3.481  50.547  1.00  0.00     0.153 C 
HETATM   27  C   UNL     1      47.803   7.655  50.354  1.00  0.00     0.153 C 
ENDROOT
BRANCH  17  28
HETATM   28  C   UNL     1      53.975   5.241  49.224  1.00  0.00     0.016 C 
HETATM   29  C   UNL     1      54.797   5.918  48.129  1.00  0.00     0.012 C 
HETATM   30  C   UNL     1      54.747   5.228  50.542  1.00  0.00     0.012 C 
ENDBRANCH  17  28
BRANCH  13  31
HETATM   31  C   UNL     1      52.700  10.547  48.891  1.00  0.00     0.014 C 
HETATM   32  C   UNL     1      53.227  10.116  50.261  1.00  0.00     0.012 C 
BRANCH  31  33
HETATM   33  C   UNL     1      53.823  11.046  47.964  1.00  0.00     0.002 C 
HETATM   34  C   UNL     1      53.779  10.442  46.568  1.00  0.00     0.005 C 
ENDBRANCH  31  33
ENDBRANCH  13  31
BRANCH  14  35
HETATM   35  C   UNL     1      50.211   1.696  48.588  1.00  0.00     0.010 C 
HETATM   36  C   UNL     1      49.076   1.108  49.424  1.00  0.00     0.012 C 
HETATM   37  C   UNL     1      50.261   1.033  47.212  1.00  0.00     0.012 C 
ENDBRANCH  14  35
BRANCH  16  38
HETATM   38  C   UNL     1      48.232   8.493  45.042  1.00  0.00     0.016 C 
HETATM   39  C   UNL     1      47.521   9.504  44.144  1.00  0.00     0.012 C 
HETATM   40  C   UNL     1      47.370   7.246  45.231  1.00  0.00     0.012 C 
ENDBRANCH  16  38
BRANCH  18  41
HETATM   41  C   UNL     1      46.448   3.598  50.852  1.00  0.00     0.016 C 
HETATM   42  C   UNL     1      45.122   4.036  51.468  1.00  0.00     0.012 C 
HETATM   43  C   UNL     1      47.252   2.761  51.845  1.00  0.00     0.012 C 
ENDBRANCH  18  41
BRANCH  15  44
HETATM   44  C   UNL     1      45.167   8.975  49.744  1.00  0.00     0.010 C 
HETATM   45  C   UNL     1      44.735   8.211  50.993  1.00  0.00     0.012 C 
HETATM   46  C   UNL     1      43.964   9.627  49.068  1.00  0.00     0.012 C 
ENDBRANCH  15  44
TORSDOF 7
ENDMDL
MODEL 9
REMARK VINA RESULT:    -4.649      7.440     12.068
REMARK INTER + INTRA:          -5.802
REMARK INTER:                  -6.551
REMARK INTRA:                   0.749
REMARK UNBOUND:                 0.750
REMARK  7 active torsions:
REMARK  status: ('A' for Active; 'I' for Inactive)
REMARK    1  A    between atoms: C_13  and  C_14 
REMARK    2  A    between atoms: C_14  and  C_19 
REMARK    3  A    between atoms: C_15  and  C_20 
REMARK    4  A    between atoms: C_16  and  C_21 
REMARK    5  A    between atoms: C_17  and  C_23 
REMARK    6  A    between atoms: C_18  and  C_26 
REMARK    7  A    between atoms: C_22  and  C_28 
ROOT
HETATM    1  O   UNL     1      48.993   5.280  47.954  1.00  0.00    -0.304 OA
HETATM    2  O   UNL     1      44.728   8.249  48.494  1.00  0.00    -0.304 OA
HETATM    3  O   UNL     1      45.943   5.483  52.130  1.00  0.00    -0.304 OA
HETATM    4  O   UNL     1      45.987   6.133  46.459  1.00  0.00    -0.270 OA
HETATM    5  O   UNL     1      48.853   7.256  49.134  1.00  0.00    -0.263 OA
HETATM    6  O   UNL     1      46.683   4.410  48.744  1.00  0.00    -0.270 OA
HETATM    7  O   UNL     1      43.199   7.209  52.153  1.00  0.00    -0.270 OA
HETATM    8  O   UNL     1      43.397  10.113  48.313  1.00  0.00    -0.263 OA
HETATM    9  O   UNL     1      43.946   4.345  51.999  1.00  0.00    -0.263 OA
HETATM   10  N   UNL     1      47.274   8.015  46.896  1.00  0.00    -0.340 N 
HETATM   11  N   UNL     1      47.337   3.668  50.835  1.00  0.00    -0.340 N 
HETATM   12  N   UNL     1      44.946   8.383  51.163  1.00  0.00    -0.340 N 
HETATM   13  C   UNL     1      48.518   7.236  46.724  1.00  0.00     0.190 C 
HETATM   14  C   UNL     1      45.944   3.289  51.156  1.00  0.00     0.190 C 
HETATM   15  C   UNL     1      44.036   9.351  50.516  1.00  0.00     0.190 C 
HETATM   16  C   UNL     1      44.771   8.103  47.061  1.00  0.00     0.227 C 
HETATM   17  C   UNL     1      49.035   4.503  49.171  1.00  0.00     0.227 C 
HETATM   18  C   UNL     1      45.411   6.601  52.863  1.00  0.00     0.227 C 
HETATM   19  C   UNL     1      46.054   7.327  46.775  1.00  0.00     0.250 C 
HETATM   20  C   UNL     1      48.817   6.628  48.085  1.00  0.00     0.283 C 
HETATM   21  C   UNL     1      47.586   4.196  49.560  1.00  0.00     0.250 C 
HETATM   22  C   UNL     1      44.410   7.413  52.027  1.00  0.00     0.250 C 
HETATM   23  C   UNL     1      44.020   9.301  48.990  1.00  0.00     0.283 C 
HETATM   24  C   UNL     1      45.152   4.429  51.793  1.00  0.00     0.283 C 
HETATM   25  C   UNL     1      47.398   9.440  47.216  1.00  0.00     0.153 C 
HETATM   26  C   UNL     1      48.350   3.502  51.879  1.00  0.00     0.153 C 
HETATM   27  C   UNL     1      46.385   8.601  51.010  1.00  0.00     0.153 C 
ENDROOT
BRANCH  17  28
HETATM   28  C   UNL     1      49.787   3.220  48.848  1.00  0.00     0.016 C 
HETATM   29  C   UNL     1      48.937   2.302  47.971  1.00  0.00     0.012 C 
HETATM   30  C   UNL     1      51.117   3.532  48.164  1.00  0.00     0.012 C 
ENDBRANCH  17  28
BRANCH  13  31
HETATM   31  C   UNL     1      49.728   8.013  46.217  1.00  0.00     0.014 C 
HETATM   32  C   UNL     1      51.016   7.337  46.694  1.00  0.00     0.012 C 
BRANCH  31  33
HETATM   33  C   UNL     1      49.668   8.139  44.685  1.00  0.00     0.002 C 
HETATM   34  C   UNL     1      50.050   9.518  44.168  1.00  0.00     0.005 C 
ENDBRANCH  31  33
ENDBRANCH  13  31
BRANCH  14  35
HETATM   35  C   UNL     1      45.833   2.036  52.026  1.00  0.00     0.010 C 
HETATM   36  C   UNL     1      45.274   2.384  53.404  1.00  0.00     0.012 C 
HETATM   37  C   UNL     1      44.959   0.982  51.346  1.00  0.00     0.012 C 
ENDBRANCH  14  35
BRANCH  16  38
HETATM   38  C   UNL     1      43.533   7.333  46.609  1.00  0.00     0.016 C 
HETATM   39  C   UNL     1      42.618   8.226  45.773  1.00  0.00     0.012 C 
HETATM   40  C   UNL     1      42.778   6.773  47.814  1.00  0.00     0.012 C 
ENDBRANCH  16  38
BRANCH  18  41
HETATM   41  C   UNL     1      44.841   6.174  54.215  1.00  0.00     0.016 C 
HETATM   42  C   UNL     1      44.283   7.380  54.967  1.00  0.00     0.012 C 
HETATM   43  C   UNL     1      45.908   5.469  55.049  1.00  0.00     0.012 C 
ENDBRANCH  18  41
BRANCH  15  44
HETATM   44  C   UNL     1      44.304  10.776  51.002  1.00  0.00     0.010 C 
HETATM   45  C   UNL     1      42.994  11.478  51.348  1.00  0.00     0.012 C 
HETATM   46  C   UNL     1      45.076  11.564  49.948  1.00  0.00     0.012 C 
ENDBRANCH  15  44
TORSDOF 7
ENDMDL
MODEL 10
REMARK VINA RESULT:    -4.584      2.828      5.202
REMARK INTER + INTRA:          -5.710
REMARK INTER:                  -6.607
REMARK INTRA:                   0.896
REMARK UNBOUND:                 0.750
REMARK  7 active torsions:
REMARK  status: ('A' for Active; 'I' for Inactive)
REMARK    1  A    between atoms: C_13  and  C_14 
REMARK    2  A    between atoms: C_14  and  C_19 
REMARK    3  A    between atoms: C_15  and  C_20 
REMARK    4  A    between atoms: C_16  and  C_21 
REMARK    5  A    between atoms: C_17  and  C_23 
REMARK    6  A    between atoms: C_18  and  C_26 
REMARK    7  A    between atoms: C_22  and  C_28 
ROOT
HETATM    1  O   UNL     1      41.333  13.568  42.730  1.00  0.00    -0.304 OA
HETATM    2  O   UNL     1      45.983  11.467  41.611  1.00  0.00    -0.304 OA
HETATM    3  O   UNL     1      42.264  10.024  39.076  1.00  0.00    -0.304 OA
HETATM    4  O   UNL     1      44.078  11.980  44.123  1.00  0.00    -0.270 OA
HETATM    5  O   UNL     1      42.687  14.134  40.951  1.00  0.00    -0.263 OA
HETATM    6  O   UNL     1      41.791  11.025  42.532  1.00  0.00    -0.270 OA
HETATM    7  O   UNL     1      45.187   8.669  38.721  1.00  0.00    -0.270 OA
HETATM    8  O   UNL     1      48.252  11.388  41.257  1.00  0.00    -0.263 OA
HETATM    9  O   UNL     1      42.547   7.856  39.796  1.00  0.00    -0.263 OA
HETATM   10  N   UNL     1      44.713  13.865  42.926  1.00  0.00    -0.340 N 
HETATM   11  N   UNL     1      40.343  10.592  40.780  1.00  0.00    -0.340 N 
HETATM   12  N   UNL     1      45.338  10.966  39.057  1.00  0.00    -0.340 N 
HETATM   13  C   UNL     1      43.429  14.526  43.236  1.00  0.00     0.190 C 
HETATM   14  C   UNL     1      40.769   9.176  40.753  1.00  0.00     0.190 C 
HETATM   15  C   UNL     1      46.771  10.902  39.410  1.00  0.00     0.190 C 
HETATM   16  C   UNL     1      46.181  11.829  42.992  1.00  0.00     0.227 C 
HETATM   17  C   UNL     1      40.414  12.865  41.866  1.00  0.00     0.227 C 
HETATM   18  C   UNL     1      43.274   9.958  38.053  1.00  0.00     0.227 C 
HETATM   19  C   UNL     1      44.903  12.555  43.403  1.00  0.00     0.250 C 
HETATM   20  C   UNL     1      42.461  14.077  42.153  1.00  0.00     0.283 C 
HETATM   21  C   UNL     1      40.913  11.422  41.756  1.00  0.00     0.250 C 
HETATM   22  C   UNL     1      44.681   9.793  38.647  1.00  0.00     0.250 C 
HETATM   23  C   UNL     1      47.099  11.290  40.849  1.00  0.00     0.283 C 
HETATM   24  C   UNL     1      41.969   8.937  39.839  1.00  0.00     0.283 C 
HETATM   25  C   UNL     1      45.686  14.603  42.115  1.00  0.00     0.153 C 
HETATM   26  C   UNL     1      39.386  11.039  39.765  1.00  0.00     0.153 C 
HETATM   27  C   UNL     1      44.718  12.290  38.980  1.00  0.00     0.153 C 
ENDROOT
BRANCH  17  28
HETATM   28  C   UNL     1      39.051  12.911  42.542  1.00  0.00     0.016 C 
HETATM   29  C   UNL     1      39.178  13.425  43.976  1.00  0.00     0.012 C 
HETATM   30  C   UNL     1      38.082  13.784  41.745  1.00  0.00     0.012 C 
ENDBRANCH  17  28
BRANCH  13  31
HETATM   31  C   UNL     1      43.463  16.048  43.314  1.00  0.00     0.014 C 
HETATM   32  C   UNL     1      42.093  16.618  42.940  1.00  0.00     0.012 C 
BRANCH  31  33
HETATM   33  C   UNL     1      43.917  16.492  44.715  1.00  0.00     0.002 C 
HETATM   34  C   UNL     1      43.376  15.619  45.839  1.00  0.00     0.005 C 
ENDBRANCH  31  33
ENDBRANCH  13  31
BRANCH  14  35
HETATM   35  C   UNL     1      39.646   8.203  40.394  1.00  0.00     0.010 C 
HETATM   36  C   UNL     1      40.130   7.171  39.377  1.00  0.00     0.012 C 
HETATM   37  C   UNL     1      39.112   7.509  41.647  1.00  0.00     0.012 C 
ENDBRANCH  14  35
BRANCH  16  38
HETATM   38  C   UNL     1      46.393  10.555  43.806  1.00  0.00     0.016 C 
HETATM   39  C   UNL     1      47.850  10.434  44.247  1.00  0.00     0.012 C 
HETATM   40  C   UNL     1      45.973   9.326  43.002  1.00  0.00     0.012 C 
ENDBRANCH  16  38
BRANCH  18  41
HETATM   41  C   UNL     1      42.949   8.898  37.002  1.00  0.00     0.016 C 
HETATM   42  C   UNL     1      43.906   9.006  35.817  1.00  0.00     0.012 C 
HETATM   43  C   UNL     1      41.501   9.031  36.535  1.00  0.00     0.012 C 
ENDBRANCH  18  41
BRANCH  15  44
HETATM   44  C   UNL     1      47.622  11.711  38.430  1.00  0.00     0.010 C 
HETATM   45  C   UNL     1      46.969  11.736  37.051  1.00  0.00     0.012 C 
HETATM   46  C   UNL     1      49.033  11.138  38.349  1.00  0.00     0.012 C 
ENDBRANCH  15  44
TORSDOF 7
ENDMDL
MODEL 11
REMARK VINA RESULT:    -4.454      3.434      5.777
REMARK INTER + INTRA:          -5.527
REMARK INTER:                  -6.487
REMARK INTRA:                   0.960
REMARK UNBOUND:                 0.750
REMARK  7 active torsions:
REMARK  status: ('A' for Active; 'I' for Inactive)
REMARK    1  A    between atoms: C_13  and  C_14 
REMARK    2  A    between atoms: C_14  and  C_19 
REMARK    3  A    between atoms: C_15  and  C_20 
REMARK    4  A    between atoms: C_16  and  C_21 
REMARK    5  A    between atoms: C_17  and  C_23 
REMARK    6  A    between atoms: C_18  and  C_26 
REMARK    7  A    between atoms: C_22  and  C_28 
ROOT
HETATM    1  O   UNL     1      47.244  10.190  42.611  1.00  0.00    -0.304 OA
HETATM    2  O   UNL     1      42.889  10.393  39.734  1.00  0.00    -0.304 OA
HETATM    3  O   UNL     1      42.419  10.620  44.432  1.00  0.00    -0.304 OA
HETATM    4  O   UNL     1      45.504   8.592  40.078  1.00  0.00    -0.270 OA
HETATM    5  O   UNL     1      46.032  12.087  42.112  1.00  0.00    -0.263 OA
HETATM    6  O   UNL     1      45.152   8.710  43.000  1.00  0.00    -0.270 OA
HETATM    7  O   UNL     1      39.840  10.472  42.474  1.00  0.00    -0.270 OA
HETATM    8  O   UNL     1      41.519  10.986  37.987  1.00  0.00    -0.263 OA
HETATM    9  O   UNL     1      41.154   8.698  44.451  1.00  0.00    -0.263 OA
HETATM   10  N   UNL     1      45.868  10.827  39.570  1.00  0.00    -0.340 N 
HETATM   11  N   UNL     1      44.659   9.438  45.139  1.00  0.00    -0.340 N 
HETATM   12  N   UNL     1      41.530  11.792  41.573  1.00  0.00    -0.340 N 
HETATM   13  C   UNL     1      47.127  10.825  40.343  1.00  0.00     0.190 C 
HETATM   14  C   UNL     1      43.453   8.584  45.173  1.00  0.00     0.190 C 
HETATM   15  C   UNL     1      40.956  11.741  40.212  1.00  0.00     0.190 C 
HETATM   16  C   UNL     1      43.762   9.670  38.843  1.00  0.00     0.227 C 
HETATM   17  C   UNL     1      46.764  10.185  43.974  1.00  0.00     0.227 C 
HETATM   18  C   UNL     1      41.336  11.489  44.054  1.00  0.00     0.227 C 
HETATM   19  C   UNL     1      45.116   9.639  39.547  1.00  0.00     0.250 C 
HETATM   20  C   UNL     1      46.733  11.142  41.776  1.00  0.00     0.283 C 
HETATM   21  C   UNL     1      45.459   9.385  43.989  1.00  0.00     0.250 C 
HETATM   22  C   UNL     1      40.831  11.191  42.634  1.00  0.00     0.250 C 
HETATM   23  C   UNL     1      41.813  11.017  39.178  1.00  0.00     0.283 C 
HETATM   24  C   UNL     1      42.212   9.291  44.631  1.00  0.00     0.283 C 
HETATM   25  C   UNL     1      45.471  12.075  38.910  1.00  0.00     0.153 C 
HETATM   26  C   UNL     1      44.915  10.306  46.291  1.00  0.00     0.153 C 
HETATM   27  C   UNL     1      42.714  12.628  41.776  1.00  0.00     0.153 C 
ENDROOT
BRANCH  17  28
HETATM   28  C   UNL     1      47.828   9.493  44.813  1.00  0.00     0.016 C 
HETATM   29  C   UNL     1      47.899   8.005  44.475  1.00  0.00     0.012 C 
HETATM   30  C   UNL     1      49.191  10.154  44.608  1.00  0.00     0.012 C 
ENDBRANCH  17  28
BRANCH  13  31
HETATM   31  C   UNL     1      48.205  11.793  39.867  1.00  0.00     0.014 C 
HETATM   32  C   UNL     1      49.185  12.080  41.006  1.00  0.00     0.012 C 
BRANCH  31  33
HETATM   33  C   UNL     1      48.907  11.226  38.621  1.00  0.00     0.002 C 
HETATM   34  C   UNL     1      49.073  12.238  37.497  1.00  0.00     0.005 C 
ENDBRANCH  31  33
ENDBRANCH  13  31
BRANCH  14  35
HETATM   35  C   UNL     1      43.151   7.999  46.552  1.00  0.00     0.010 C 
HETATM   36  C   UNL     1      41.660   7.703  46.699  1.00  0.00     0.012 C 
HETATM   37  C   UNL     1      43.973   6.733  46.794  1.00  0.00     0.012 C 
ENDBRANCH  14  35
BRANCH  16  38
HETATM   38  C   UNL     1      43.200   8.266  38.639  1.00  0.00     0.016 C 
HETATM   39  C   UNL     1      42.679   8.096  37.213  1.00  0.00     0.012 C 
HETATM   40  C   UNL     1      42.092   7.976  39.651  1.00  0.00     0.012 C 
ENDBRANCH  16  38
BRANCH  18  41
HETATM   41  C   UNL     1      40.215  11.484  45.092  1.00  0.00     0.016 C 
HETATM   42  C   UNL     1      39.228  12.616  44.821  1.00  0.00     0.012 C 
HETATM   43  C   UNL     1      40.790  11.599  46.502  1.00  0.00     0.012 C 
ENDBRANCH  18  41
BRANCH  15  44
HETATM   44  C   UNL     1      40.581  13.137  39.714  1.00  0.00     0.010 C 
HETATM   45  C   UNL     1      39.187  13.126  39.092  1.00  0.00     0.012 C 
HETATM   46  C   UNL     1      41.615  13.642  38.712  1.00  0.00     0.012 C 
ENDBRANCH  15  44
TORSDOF 7
ENDMDL
MODEL 12
REMARK VINA RESULT:    -4.411      2.713      7.451
REMARK INTER + INTRA:          -5.466
REMARK INTER:                  -7.229
REMARK INTRA:                   1.763
REMARK UNBOUND:                 0.750
REMARK  7 active torsions:
REMARK  status: ('A' for Active; 'I' for Inactive)
REMARK    1  A    between atoms: C_13  and  C_14 
REMARK    2  A    between atoms: C_14  and  C_19 
REMARK    3  A    between atoms: C_15  and  C_20 
REMARK    4  A    between atoms: C_16  and  C_21 
REMARK    5  A    between atoms: C_17  and  C_23 
REMARK    6  A    between atoms: C_18  and  C_26 
REMARK    7  A    between atoms: C_22  and  C_28 
ROOT
HETATM    1  O   UNL     1      45.008  16.513  39.163  1.00  0.00    -0.304 OA
HETATM    2  O   UNL     1      47.203  12.282  41.301  1.00  0.00    -0.304 OA
HETATM    3  O   UNL     1      49.652  14.569  37.967  1.00  0.00    -0.304 OA
HETATM    4  O   UNL     1      44.469  13.174  39.911  1.00  0.00    -0.270 OA
HETATM    5  O   UNL     1      46.659  16.505  40.773  1.00  0.00    -0.263 OA
HETATM    6  O   UNL     1      46.027  14.544  37.820  1.00  0.00    -0.270 OA
HETATM    7  O   UNL     1      50.713  11.782  39.240  1.00  0.00    -0.270 OA
HETATM    8  O   UNL     1      47.801  10.800  42.952  1.00  0.00    -0.263 OA
HETATM    9  O   UNL     1      49.668  12.700  36.623  1.00  0.00    -0.263 OA
HETATM   10  N   UNL     1      45.087  14.371  41.801  1.00  0.00    -0.340 N 
HETATM   11  N   UNL     1      47.664  15.747  36.713  1.00  0.00    -0.340 N 
HETATM   12  N   UNL     1      49.704  13.133  40.843  1.00  0.00    -0.340 N 
HETATM   13  C   UNL     1      44.456  15.595  41.264  1.00  0.00     0.190 C 
HETATM   14  C   UNL     1      48.170  14.511  36.079  1.00  0.00     0.190 C 
HETATM   15  C   UNL     1      49.541  12.017  41.798  1.00  0.00     0.190 C 
HETATM   16  C   UNL     1      45.807  11.985  41.499  1.00  0.00     0.227 C 
HETATM   17  C   UNL     1      45.944  16.914  38.139  1.00  0.00     0.227 C 
HETATM   18  C   UNL     1      50.746  14.143  38.799  1.00  0.00     0.227 C 
HETATM   19  C   UNL     1      45.060  13.218  40.997  1.00  0.00     0.250 C 
HETATM   20  C   UNL     1      45.516  16.265  40.406  1.00  0.00     0.283 C 
HETATM   21  C   UNL     1      46.545  15.634  37.552  1.00  0.00     0.250 C 
HETATM   22  C   UNL     1      50.384  12.906  39.634  1.00  0.00     0.250 C 
HETATM   23  C   UNL     1      48.095  11.633  42.101  1.00  0.00     0.283 C 
HETATM   24  C   UNL     1      49.234  13.808  36.919  1.00  0.00     0.283 C 
HETATM   25  C   UNL     1      45.730  14.453  43.117  1.00  0.00     0.153 C 
HETATM   26  C   UNL     1      48.385  16.995  36.453  1.00  0.00     0.153 C 
HETATM   27  C   UNL     1      49.305  14.469  41.289  1.00  0.00     0.153 C 
ENDROOT
BRANCH  17  28
HETATM   28  C   UNL     1      45.147  17.666  37.083  1.00  0.00     0.016 C 
HETATM   29  C   UNL     1      45.844  18.974  36.712  1.00  0.00     0.012 C 
HETATM   30  C   UNL     1      44.941  16.799  35.842  1.00  0.00     0.012 C 
ENDBRANCH  17  28
BRANCH  13  31
HETATM   31  C   UNL     1      43.918  16.577  42.298  1.00  0.00     0.014 C 
HETATM   32  C   UNL     1      44.180  18.012  41.838  1.00  0.00     0.012 C 
BRANCH  31  33
HETATM   33  C   UNL     1      42.423  16.308  42.550  1.00  0.00     0.002 C 
HETATM   34  C   UNL     1      41.513  16.835  41.449  1.00  0.00     0.005 C 
ENDBRANCH  31  33
ENDBRANCH  13  31
BRANCH  14  35
HETATM   35  C   UNL     1      48.690  14.717  34.657  1.00  0.00     0.010 C 
HETATM   36  C   UNL     1      50.208  14.554  34.608  1.00  0.00     0.012 C 
HETATM   37  C   UNL     1      48.017  13.745  33.689  1.00  0.00     0.012 C 
ENDBRANCH  14  35
BRANCH  16  38
HETATM   38  C   UNL     1      45.452  10.741  40.689  1.00  0.00     0.016 C 
HETATM   39  C   UNL     1      45.319   9.523  41.602  1.00  0.00     0.012 C 
HETATM   40  C   UNL     1      46.498  10.486  39.605  1.00  0.00     0.012 C 
ENDBRANCH  16  38
BRANCH  18  41
HETATM   41  C   UNL     1      52.033  13.957  37.996  1.00  0.00     0.016 C 
HETATM   42  C   UNL     1      53.196  13.605  38.920  1.00  0.00     0.012 C 
HETATM   43  C   UNL     1      52.349  15.215  37.191  1.00  0.00     0.012 C 
ENDBRANCH  18  41
BRANCH  15  44
HETATM   44  C   UNL     1      50.309  12.279  43.095  1.00  0.00     0.010 C 
HETATM   45  C   UNL     1      51.542  13.136  42.823  1.00  0.00     0.012 C 
HETATM   46  C   UNL     1      50.703  10.961  43.757  1.00  0.00     0.012 C 
ENDBRANCH  15  44
TORSDOF 7
ENDMDL
MODEL 13
REMARK VINA RESULT:    -4.360      2.395      5.194
REMARK INTER + INTRA:          -5.394
REMARK INTER:                  -6.934
REMARK INTRA:                   1.540
REMARK UNBOUND:                 0.750
REMARK  7 active torsions:
REMARK  status: ('A' for Active; 'I' for Inactive)
REMARK    1  A    between atoms: C_13  and  C_14 
REMARK    2  A    between atoms: C_14  and  C_19 
REMARK    3  A    between atoms: C_15  and  C_20 
REMARK    4  A    between atoms: C_16  and  C_21 
REMARK    5  A    between atoms: C_17  and  C_23 
REMARK    6  A    between atoms: C_18  and  C_26 
REMARK    7  A    between atoms: C_22  and  C_28 
ROOT
HETATM    1  O   UNL     1      43.459  13.891  42.542  1.00  0.00    -0.304 OA
HETATM    2  O   UNL     1      47.566  16.208  40.294  1.00  0.00    -0.304 OA
HETATM    3  O   UNL     1      45.613  12.545  38.034  1.00  0.00    -0.304 OA
HETATM    4  O   UNL     1      46.713  14.938  43.098  1.00  0.00    -0.270 OA
HETATM    5  O   UNL     1      43.384  15.382  40.784  1.00  0.00    -0.263 OA
HETATM    6  O   UNL     1      45.553  12.644  41.661  1.00  0.00    -0.270 OA
HETATM    7  O   UNL     1      48.318  13.962  36.947  1.00  0.00    -0.270 OA
HETATM    8  O   UNL     1      48.929  17.928  39.615  1.00  0.00    -0.263 OA
HETATM    9  O   UNL     1      47.581  11.356  38.151  1.00  0.00    -0.263 OA
HETATM   10  N   UNL     1      45.388  16.681  42.326  1.00  0.00    -0.340 N 
HETATM   11  N   UNL     1      44.484  11.337  40.079  1.00  0.00    -0.340 N 
HETATM   12  N   UNL     1      46.820  15.517  37.813  1.00  0.00    -0.340 N 
HETATM   13  C   UNL     1      44.195  16.092  42.967  1.00  0.00     0.190 C 
HETATM   14  C   UNL     1      45.779  10.771  39.644  1.00  0.00     0.190 C 
HETATM   15  C   UNL     1      47.853  16.566  37.933  1.00  0.00     0.190 C 
HETATM   16  C   UNL     1      47.809  16.522  41.679  1.00  0.00     0.227 C 
HETATM   17  C   UNL     1      43.164  12.777  41.671  1.00  0.00     0.227 C 
HETATM   18  C   UNL     1      46.001  13.333  36.894  1.00  0.00     0.227 C 
HETATM   19  C   UNL     1      46.600  15.974  42.433  1.00  0.00     0.250 C 
HETATM   20  C   UNL     1      43.622  15.113  41.954  1.00  0.00     0.283 C 
HETATM   21  C   UNL     1      44.502  12.255  41.139  1.00  0.00     0.250 C 
HETATM   22  C   UNL     1      47.159  14.287  37.224  1.00  0.00     0.250 C 
HETATM   23  C   UNL     1      48.173  16.995  39.363  1.00  0.00     0.283 C 
HETATM   24  C   UNL     1      46.442  11.592  38.539  1.00  0.00     0.283 C 
HETATM   25  C   UNL     1      45.221  17.939  41.592  1.00  0.00     0.153 C 
HETATM   26  C   UNL     1      43.280  10.930  39.351  1.00  0.00     0.153 C 
HETATM   27  C   UNL     1      45.443  15.880  38.153  1.00  0.00     0.153 C 
ENDROOT
BRANCH  17  28
HETATM   28  C   UNL     1      42.476  11.721  42.523  1.00  0.00     0.016 C 
HETATM   29  C   UNL     1      42.739  11.971  44.007  1.00  0.00     0.012 C 
HETATM   30  C   UNL     1      40.974  11.696  42.242  1.00  0.00     0.012 C 
ENDBRANCH  17  28
BRANCH  13  31
HETATM   31  C   UNL     1      43.120  17.078  43.411  1.00  0.00     0.014 C 
HETATM   32  C   UNL     1      41.852  16.874  42.580  1.00  0.00     0.012 C 
BRANCH  31  33
HETATM   33  C   UNL     1      42.860  16.925  44.920  1.00  0.00     0.002 C 
HETATM   34  C   UNL     1      44.016  16.292  45.680  1.00  0.00     0.005 C 
ENDBRANCH  31  33
ENDBRANCH  13  31
BRANCH  14  35
HETATM   35  C   UNL     1      45.698   9.305  39.219  1.00  0.00     0.010 C 
HETATM   36  C   UNL     1      44.970   8.476  40.275  1.00  0.00     0.012 C 
HETATM   37  C   UNL     1      45.004   9.174  37.863  1.00  0.00     0.012 C 
ENDBRANCH  14  35
BRANCH  16  38
HETATM   38  C   UNL     1      49.103  15.840  42.116  1.00  0.00     0.016 C 
HETATM   39  C   UNL     1      50.192  16.876  42.389  1.00  0.00     0.012 C 
HETATM   40  C   UNL     1      49.568  14.840  41.059  1.00  0.00     0.012 C 
ENDBRANCH  16  38
BRANCH  18  41
HETATM   41  C   UNL     1      46.284  12.462  35.671  1.00  0.00     0.016 C 
HETATM   42  C   UNL     1      46.741  13.322  34.495  1.00  0.00     0.012 C 
HETATM   43  C   UNL     1      45.046  11.651  35.293  1.00  0.00     0.012 C 
ENDBRANCH  18  41
BRANCH  15  44
HETATM   44  C   UNL     1      47.511  17.783  37.073  1.00  0.00     0.010 C 
HETATM   45  C   UNL     1      46.260  18.479  37.603  1.00  0.00     0.012 C 
HETATM   46  C   UNL     1      47.322  17.371  35.616  1.00  0.00     0.012 C 
ENDBRANCH  15  44
TORSDOF 7
ENDMDL
MODEL 14
REMARK VINA RESULT:    -4.304      3.868      6.976
REMARK INTER + INTRA:          -5.315
REMARK INTER:                  -5.941
REMARK INTRA:                   0.626
REMARK UNBOUND:                 0.750
REMARK  7 active torsions:
REMARK  status: ('A' for Active; 'I' for Inactive)
REMARK    1  A    between atoms: C_13  and  C_14 
REMARK    2  A    between atoms: C_14  and  C_19 
REMARK    3  A    between atoms: C_15  and  C_20 
REMARK    4  A    between atoms: C_16  and  C_21 
REMARK    5  A    between atoms: C_17  and  C_23 
REMARK    6  A    between atoms: C_18  and  C_26 
REMARK    7  A    between atoms: C_22  and  C_28 
ROOT
HETATM    1  O   UNL     1      45.278  16.199  40.442  1.00  0.00    -0.304 OA
HETATM    2  O   UNL     1      48.750  15.965  36.546  1.00  0.00    -0.304 OA
HETATM    3  O   UNL     1      50.407  15.763  40.968  1.00  0.00    -0.304 OA
HETATM    4  O   UNL     1      46.313  17.776  37.537  1.00  0.00    -0.270 OA
HETATM    5  O   UNL     1      46.318  14.294  39.661  1.00  0.00    -0.263 OA
HETATM    6  O   UNL     1      47.402  17.674  40.272  1.00  0.00    -0.270 OA
HETATM    7  O   UNL     1      52.399  15.891  38.414  1.00  0.00    -0.270 OA
HETATM    8  O   UNL     1      49.625  15.358  34.510  1.00  0.00    -0.263 OA
HETATM    9  O   UNL     1      51.639  17.682  40.651  1.00  0.00    -0.263 OA
HETATM   10  N   UNL     1      45.827  15.539  37.154  1.00  0.00    -0.340 N 
HETATM   11  N   UNL     1      48.426  16.956  42.219  1.00  0.00    -0.340 N 
HETATM   12  N   UNL     1      50.532  14.572  37.984  1.00  0.00    -0.340 N 
HETATM   13  C   UNL     1      44.809  15.550  38.224  1.00  0.00     0.190 C 
HETATM   14  C   UNL     1      49.602  17.807  41.936  1.00  0.00     0.190 C 
HETATM   15  C   UNL     1      50.739  14.613  36.522  1.00  0.00     0.190 C 
HETATM   16  C   UNL     1      47.679  16.685  35.905  1.00  0.00     0.227 C 
HETATM   17  C   UNL     1      46.091  16.209  41.636  1.00  0.00     0.227 C 
HETATM   18  C   UNL     1      51.356  14.889  40.330  1.00  0.00     0.227 C 
HETATM   19  C   UNL     1      46.551  16.725  36.932  1.00  0.00     0.250 C 
HETATM   20  C   UNL     1      45.556  15.241  39.510  1.00  0.00     0.283 C 
HETATM   21  C   UNL     1      47.358  17.005  41.311  1.00  0.00     0.250 C 
HETATM   22  C   UNL     1      51.481  15.177  38.827  1.00  0.00     0.250 C 
HETATM   23  C   UNL     1      49.646  15.335  35.737  1.00  0.00     0.283 C 
HETATM   24  C   UNL     1      50.661  17.093  41.099  1.00  0.00     0.283 C 
HETATM   25  C   UNL     1      46.040  14.286  36.423  1.00  0.00     0.153 C 
HETATM   26  C   UNL     1      48.472  16.096  43.403  1.00  0.00     0.153 C 
HETATM   27  C   UNL     1      49.438  13.741  38.490  1.00  0.00     0.153 C 
ENDROOT
BRANCH  17  28
HETATM   28  C   UNL     1      45.279  16.910  42.716  1.00  0.00     0.016 C 
HETATM   29  C   UNL     1      44.121  17.692  42.098  1.00  0.00     0.012 C 
HETATM   30  C   UNL     1      44.758  15.901  43.739  1.00  0.00     0.012 C 
ENDBRANCH  17  28
BRANCH  13  31
HETATM   31  C   UNL     1      43.643  14.583  38.046  1.00  0.00     0.014 C 
HETATM   32  C   UNL     1      42.988  14.305  39.400  1.00  0.00     0.012 C 
BRANCH  31  33
HETATM   33  C   UNL     1      42.645  15.146  37.019  1.00  0.00     0.002 C 
HETATM   34  C   UNL     1      42.259  14.152  35.932  1.00  0.00     0.005 C 
ENDBRANCH  31  33
ENDBRANCH  13  31
BRANCH  14  35
HETATM   35  C   UNL     1      50.248  18.399  43.188  1.00  0.00     0.010 C 
HETATM   36  C   UNL     1      51.571  17.700  43.495  1.00  0.00     0.012 C 
HETATM   37  C   UNL     1      50.464  19.904  43.025  1.00  0.00     0.012 C 
ENDBRANCH  14  35
BRANCH  16  38
HETATM   38  C   UNL     1      48.173  18.087  35.554  1.00  0.00     0.016 C 
HETATM   39  C   UNL     1      48.263  18.263  34.039  1.00  0.00     0.012 C 
HETATM   40  C   UNL     1      49.526  18.360  36.207  1.00  0.00     0.012 C 
ENDBRANCH  16  38
BRANCH  18  41
HETATM   41  C   UNL     1      52.706  14.896  41.047  1.00  0.00     0.016 C 
HETATM   42  C   UNL     1      53.742  14.108  40.248  1.00  0.00     0.012 C 
HETATM   43  C   UNL     1      52.568  14.324  42.456  1.00  0.00     0.012 C 
ENDBRANCH  18  41
BRANCH  15  44
HETATM   44  C   UNL     1      50.971  13.213  35.953  1.00  0.00     0.010 C 
HETATM   45  C   UNL     1      52.240  13.184  35.106  1.00  0.00     0.012 C 
HETATM   46  C   UNL     1      49.765  12.763  35.134  1.00  0.00     0.012 C 
ENDBRANCH  15  44
TORSDOF 7
ENDMDL
MODEL 15
REMARK VINA RESULT:    -4.238      2.438      6.941
REMARK INTER + INTRA:          -5.223
REMARK INTER:                  -5.852
REMARK INTRA:                   0.629
REMARK UNBOUND:                 0.750
REMARK  7 active torsions:
REMARK  status: ('A' for Active; 'I' for Inactive)
REMARK    1  A    between atoms: C_13  and  C_14 
REMARK    2  A    between atoms: C_14  and  C_19 
REMARK    3  A    between atoms: C_15  and  C_20 
REMARK    4  A    between atoms: C_16  and  C_21 
REMARK    5  A    between atoms: C_17  and  C_23 
REMARK    6  A    between atoms: C_18  and  C_26 
REMARK    7  A    between atoms: C_22  and  C_28 
ROOT
HETATM    1  O   UNL     1      44.969  15.510  40.200  1.00  0.00    -0.304 OA
HETATM    2  O   UNL     1      45.162  10.968  42.773  1.00  0.00    -0.304 OA
HETATM    3  O   UNL     1      49.252  13.191  41.948  1.00  0.00    -0.304 OA
HETATM    4  O   UNL     1      43.945  12.203  40.091  1.00  0.00    -0.270 OA
HETATM    5  O   UNL     1      45.242  15.247  42.475  1.00  0.00    -0.263 OA
HETATM    6  O   UNL     1      46.524  13.531  39.580  1.00  0.00    -0.270 OA
HETATM    7  O   UNL     1      49.164  10.245  43.299  1.00  0.00    -0.270 OA
HETATM    8  O   UNL     1      44.531   9.341  44.268  1.00  0.00    -0.263 OA
HETATM    9  O   UNL     1      50.032  11.411  40.715  1.00  0.00    -0.263 OA
HETATM   10  N   UNL     1      43.288  13.223  42.070  1.00  0.00    -0.340 N 
HETATM   11  N   UNL     1      48.540  14.629  39.866  1.00  0.00    -0.340 N 
HETATM   12  N   UNL     1      47.429  11.594  44.061  1.00  0.00    -0.340 N 
HETATM   13  C   UNL     1      43.184  14.531  41.391  1.00  0.00     0.190 C 
HETATM   14  C   UNL     1      49.281  13.388  39.556  1.00  0.00     0.190 C 
HETATM   15  C   UNL     1      46.658  10.446  44.583  1.00  0.00     0.190 C 
HETATM   16  C   UNL     1      43.941  10.799  42.028  1.00  0.00     0.227 C 
HETATM   17  C   UNL     1      46.356  15.875  40.029  1.00  0.00     0.227 C 
HETATM   18  C   UNL     1      49.563  12.612  43.229  1.00  0.00     0.227 C 
HETATM   19  C   UNL     1      43.725  12.126  41.305  1.00  0.00     0.250 C 
HETATM   20  C   UNL     1      44.574  15.142  41.455  1.00  0.00     0.283 C 
HETATM   21  C   UNL     1      47.139  14.578  39.810  1.00  0.00     0.250 C 
HETATM   22  C   UNL     1      48.707  11.370  43.520  1.00  0.00     0.250 C 
HETATM   23  C   UNL     1      45.328  10.190  43.879  1.00  0.00     0.283 C 
HETATM   24  C   UNL     1      49.553  12.537  40.794  1.00  0.00     0.283 C 
HETATM   25  C   UNL     1      42.966  13.164  43.499  1.00  0.00     0.153 C 
HETATM   26  C   UNL     1      49.314  15.813  40.244  1.00  0.00     0.153 C 
HETATM   27  C   UNL     1      46.893  12.934  44.302  1.00  0.00     0.153 C 
ENDROOT
BRANCH  17  28
HETATM   28  C   UNL     1      46.428  16.762  38.795  1.00  0.00     0.016 C 
HETATM   29  C   UNL     1      45.172  16.601  37.940  1.00  0.00     0.012 C 
HETATM   30  C   UNL     1      46.622  18.225  39.192  1.00  0.00     0.012 C 
ENDBRANCH  17  28
BRANCH  13  31
HETATM   31  C   UNL     1      42.156  15.500  41.964  1.00  0.00     0.014 C 
HETATM   32  C   UNL     1      42.605  16.941  41.714  1.00  0.00     0.012 C 
BRANCH  31  33
HETATM   33  C   UNL     1      40.768  15.209  41.366  1.00  0.00     0.002 C 
HETATM   34  C   UNL     1      39.802  14.562  42.348  1.00  0.00     0.005 C 
ENDBRANCH  31  33
ENDBRANCH  13  31
BRANCH  14  35
HETATM   35  C   UNL     1      50.587  13.624  38.797  1.00  0.00     0.010 C 
HETATM   36  C   UNL     1      51.783  13.545  39.742  1.00  0.00     0.012 C 
HETATM   37  C   UNL     1      50.739  12.617  37.657  1.00  0.00     0.012 C 
ENDBRANCH  14  35
BRANCH  16  38
HETATM   38  C   UNL     1      44.122   9.644  41.046  1.00  0.00     0.016 C 
HETATM   39  C   UNL     1      43.239   8.460  41.436  1.00  0.00     0.012 C 
HETATM   40  C   UNL     1      45.588   9.219  40.978  1.00  0.00     0.012 C 
ENDBRANCH  16  38
BRANCH  18  41
HETATM   41  C   UNL     1      51.060  12.347  43.384  1.00  0.00     0.016 C 
HETATM   42  C   UNL     1      51.350  11.681  44.727  1.00  0.00     0.012 C 
HETATM   43  C   UNL     1      51.851  13.646  43.247  1.00  0.00     0.012 C 
ENDBRANCH  18  41
BRANCH  15  44
HETATM   44  C   UNL     1      46.452  10.555  46.094  1.00  0.00     0.010 C 
HETATM   45  C   UNL     1      46.781   9.230  46.776  1.00  0.00     0.012 C 
HETATM   46  C   UNL     1      45.021  10.983  46.408  1.00  0.00     0.012 C 
ENDBRANCH  15  44
TORSDOF 7
ENDMDL
MODEL 16
REMARK VINA RESULT:    -4.229      2.148      6.532
REMARK INTER + INTRA:          -5.211
REMARK INTER:                  -5.810
REMARK INTRA:                   0.599
REMARK UNBOUND:                 0.750
REMARK  7 active torsions:
REMARK  status: ('A' for Active; 'I' for Inactive)
REMARK    1  A    between atoms: C_13  and  C_14 
REMARK    2  A    between atoms: C_14  and  C_19 
REMARK    3  A    between atoms: C_15  and  C_20 
REMARK    4  A    between atoms: C_16  and  C_21 
REMARK    5  A    between atoms: C_17  and  C_23 
REMARK    6  A    between atoms: C_18  and  C_26 
REMARK    7  A    between atoms: C_22  and  C_28 
ROOT
HETATM    1  O   UNL     1      48.222  16.621  39.451  1.00  0.00    -0.304 OA
HETATM    2  O   UNL     1      44.822  14.717  42.930  1.00  0.00    -0.304 OA
HETATM    3  O   UNL     1      45.765  12.079  39.123  1.00  0.00    -0.304 OA
HETATM    4  O   UNL     1      45.344  17.368  41.227  1.00  0.00    -0.270 OA
HETATM    5  O   UNL     1      48.661  15.002  41.034  1.00  0.00    -0.263 OA
HETATM    6  O   UNL     1      45.874  15.696  38.861  1.00  0.00    -0.270 OA
HETATM    7  O   UNL     1      43.500  11.207  41.273  1.00  0.00    -0.270 OA
HETATM    8  O   UNL     1      43.935  14.237  44.994  1.00  0.00    -0.263 OA
HETATM    9  O   UNL     1      43.560  12.149  38.463  1.00  0.00    -0.263 OA
HETATM   10  N   UNL     1      47.062  16.715  42.644  1.00  0.00    -0.340 N 
HETATM   11  N   UNL     1      46.564  13.972  37.482  1.00  0.00    -0.340 N 
HETATM   12  N   UNL     1      45.351  12.162  42.310  1.00  0.00    -0.340 N 
HETATM   13  C   UNL     1      48.072  17.263  41.715  1.00  0.00     0.190 C 
HETATM   14  C   UNL     1      45.165  13.528  37.305  1.00  0.00     0.190 C 
HETATM   15  C   UNL     1      44.619  12.408  43.570  1.00  0.00     0.190 C 
HETATM   16  C   UNL     1      44.677  16.132  43.163  1.00  0.00     0.227 C 
HETATM   17  C   UNL     1      48.218  15.644  38.386  1.00  0.00     0.227 C 
HETATM   18  C   UNL     1      45.581  11.027  40.087  1.00  0.00     0.227 C 
HETATM   19  C   UNL     1      45.712  16.795  42.259  1.00  0.00     0.250 C 
HETATM   20  C   UNL     1      48.370  16.150  40.724  1.00  0.00     0.283 C 
HETATM   21  C   UNL     1      46.788  15.110  38.271  1.00  0.00     0.250 C 
HETATM   22  C   UNL     1      44.706  11.476  41.267  1.00  0.00     0.250 C 
HETATM   23  C   UNL     1      44.428  13.879  43.929  1.00  0.00     0.283 C 
HETATM   24  C   UNL     1      44.725  12.522  38.366  1.00  0.00     0.283 C 
HETATM   25  C   UNL     1      47.538  16.092  43.883  1.00  0.00     0.153 C 
HETATM   26  C   UNL     1      47.621  13.174  36.855  1.00  0.00     0.153 C 
HETATM   27  C   UNL     1      46.777  12.490  42.281  1.00  0.00     0.153 C 
ENDROOT
BRANCH  17  28
HETATM   28  C   UNL     1      48.622  16.377  37.115  1.00  0.00     0.016 C 
HETATM   29  C   UNL     1      48.444  17.886  37.282  1.00  0.00     0.012 C 
HETATM   30  C   UNL     1      50.065  16.047  36.737  1.00  0.00     0.012 C 
ENDBRANCH  17  28
BRANCH  13  31
HETATM   31  C   UNL     1      49.365  17.761  42.352  1.00  0.00     0.014 C 
HETATM   32  C   UNL     1      50.486  17.770  41.312  1.00  0.00     0.012 C 
BRANCH  31  33
HETATM   33  C   UNL     1      49.140  19.148  42.980  1.00  0.00     0.002 C 
HETATM   34  C   UNL     1      49.525  19.223  44.451  1.00  0.00     0.005 C 
ENDBRANCH  31  33
ENDBRANCH  13  31
BRANCH  14  35
HETATM   35  C   UNL     1      44.868  12.971  35.913  1.00  0.00     0.010 C 
HETATM   36  C   UNL     1      44.668  11.458  35.968  1.00  0.00     0.012 C 
HETATM   37  C   UNL     1      43.639  13.651  35.310  1.00  0.00     0.012 C 
ENDBRANCH  14  35
BRANCH  16  38
HETATM   38  C   UNL     1      43.255  16.545  42.791  1.00  0.00     0.016 C 
HETATM   39  C   UNL     1      42.463  16.935  44.038  1.00  0.00     0.012 C 
HETATM   40  C   UNL     1      42.547  15.421  42.037  1.00  0.00     0.012 C 
ENDBRANCH  16  38
BRANCH  18  41
HETATM   41  C   UNL     1      45.078   9.739  39.436  1.00  0.00     0.016 C 
HETATM   42  C   UNL     1      44.987   8.617  40.466  1.00  0.00     0.012 C 
HETATM   43  C   UNL     1      45.988   9.333  38.279  1.00  0.00     0.012 C 
ENDBRANCH  18  41
BRANCH  15  44
HETATM   44  C   UNL     1      45.252  11.650  44.737  1.00  0.00     0.010 C 
HETATM   45  C   UNL     1      44.180  10.940  45.559  1.00  0.00     0.012 C 
HETATM   46  C   UNL     1      46.062  12.600  45.614  1.00  0.00     0.012 C 
ENDBRANCH  15  44
TORSDOF 7
ENDMDL
MODEL 17
REMARK VINA RESULT:    -4.096      2.309      5.242
REMARK INTER + INTRA:          -5.023
REMARK INTER:                  -6.122
REMARK INTRA:                   1.099
REMARK UNBOUND:                 0.750
REMARK  7 active torsions:
REMARK  status: ('A' for Active; 'I' for Inactive)
REMARK    1  A    between atoms: C_13  and  C_14 
REMARK    2  A    between atoms: C_14  and  C_19 
REMARK    3  A    between atoms: C_15  and  C_20 
REMARK    4  A    between atoms: C_16  and  C_21 
REMARK    5  A    between atoms: C_17  and  C_23 
REMARK    6  A    between atoms: C_18  and  C_26 
REMARK    7  A    between atoms: C_22  and  C_28 
ROOT
HETATM    1  O   UNL     1      42.787  13.743  42.961  1.00  0.00    -0.304 OA
HETATM    2  O   UNL     1      47.923  13.930  42.022  1.00  0.00    -0.304 OA
HETATM    3  O   UNL     1      45.163  11.990  38.711  1.00  0.00    -0.304 OA
HETATM    4  O   UNL     1      45.890  12.964  44.288  1.00  0.00    -0.270 OA
HETATM    5  O   UNL     1      43.863  15.250  41.586  1.00  0.00    -0.263 OA
HETATM    6  O   UNL     1      44.220  11.720  42.205  1.00  0.00    -0.270 OA
HETATM    7  O   UNL     1      48.394  11.978  38.447  1.00  0.00    -0.270 OA
HETATM    8  O   UNL     1      50.047  14.803  41.983  1.00  0.00    -0.263 OA
HETATM    9  O   UNL     1      46.258   9.975  38.904  1.00  0.00    -0.263 OA
HETATM   10  N   UNL     1      45.765  15.205  43.698  1.00  0.00    -0.340 N 
HETATM   11  N   UNL     1      43.120  11.296  40.214  1.00  0.00    -0.340 N 
HETATM   12  N   UNL     1      47.612  13.970  39.359  1.00  0.00    -0.340 N 
HETATM   13  C   UNL     1      44.314  15.225  43.978  1.00  0.00     0.190 C 
HETATM   14  C   UNL     1      44.073  10.210  39.898  1.00  0.00     0.190 C 
HETATM   15  C   UNL     1      48.941  14.346  39.884  1.00  0.00     0.190 C 
HETATM   16  C   UNL     1      47.916  13.932  43.463  1.00  0.00     0.227 C 
HETATM   17  C   UNL     1      42.250  13.024  41.829  1.00  0.00     0.227 C 
HETATM   18  C   UNL     1      46.150  12.596  37.857  1.00  0.00     0.227 C 
HETATM   19  C   UNL     1      46.442  13.983  43.857  1.00  0.00     0.250 C 
HETATM   20  C   UNL     1      43.639  14.776  42.692  1.00  0.00     0.283 C 
HETATM   21  C   UNL     1      43.284  11.965  41.436  1.00  0.00     0.250 C 
HETATM   22  C   UNL     1      47.487  12.805  38.583  1.00  0.00     0.250 C 
HETATM   23  C   UNL     1      49.041  14.404  41.406  1.00  0.00     0.283 C 
HETATM   24  C   UNL     1      45.298  10.703  39.131  1.00  0.00     0.283 C 
HETATM   25  C   UNL     1      46.391  16.450  43.241  1.00  0.00     0.153 C 
HETATM   26  C   UNL     1      42.098  11.623  39.218  1.00  0.00     0.153 C 
HETATM   27  C   UNL     1      46.521  14.932  39.526  1.00  0.00     0.153 C 
ENDROOT
BRANCH  17  28
HETATM   28  C   UNL     1      40.959  12.367  42.297  1.00  0.00     0.016 C 
HETATM   29  C   UNL     1      41.000  12.109  43.802  1.00  0.00     0.012 C 
HETATM   30  C   UNL     1      39.752  13.232  41.935  1.00  0.00     0.012 C 
ENDBRANCH  17  28
BRANCH  13  31
HETATM   31  C   UNL     1      43.740  16.561  44.434  1.00  0.00     0.014 C 
HETATM   32  C   UNL     1      42.454  16.865  43.663  1.00  0.00     0.012 C 
BRANCH  31  33
HETATM   33  C   UNL     1      43.517  16.544  45.957  1.00  0.00     0.002 C 
HETATM   34  C   UNL     1      42.191  17.153  46.389  1.00  0.00     0.005 C 
ENDBRANCH  31  33
ENDBRANCH  13  31
BRANCH  14  35
HETATM   35  C   UNL     1      43.440   9.034  39.154  1.00  0.00     0.010 C 
HETATM   36  C   UNL     1      44.279   8.650  37.938  1.00  0.00     0.012 C 
HETATM   37  C   UNL     1      43.269   7.835  40.087  1.00  0.00     0.012 C 
ENDBRANCH  14  35
BRANCH  16  38
HETATM   38  C   UNL     1      48.588  12.654  43.958  1.00  0.00     0.016 C 
HETATM   39  C   UNL     1      49.920  12.974  44.635  1.00  0.00     0.012 C 
HETATM   40  C   UNL     1      48.796  11.674  42.805  1.00  0.00     0.012 C 
ENDBRANCH  16  38
BRANCH  18  41
HETATM   41  C   UNL     1      46.305  11.836  36.540  1.00  0.00     0.016 C 
HETATM   42  C   UNL     1      47.218  12.601  35.584  1.00  0.00     0.012 C 
HETATM   43  C   UNL     1      44.942  11.590  35.899  1.00  0.00     0.012 C 
ENDBRANCH  18  41
BRANCH  15  44
HETATM   44  C   UNL     1      49.433  15.655  39.265  1.00  0.00     0.010 C 
HETATM   45  C   UNL     1      49.112  15.695  37.773  1.00  0.00     0.012 C 
HETATM   46  C   UNL     1      50.931  15.827  39.499  1.00  0.00     0.012 C 
ENDBRANCH  15  44
TORSDOF 7
ENDMDL
MODEL 18
REMARK VINA RESULT:    -4.074     10.785     15.251
REMARK INTER + INTRA:          -4.992
REMARK INTER:                  -5.548
REMARK INTRA:                   0.556
REMARK UNBOUND:                 0.750
REMARK  7 active torsions:
REMARK  status: ('A' for Active; 'I' for Inactive)
REMARK    1  A    between atoms: C_13  and  C_14 
REMARK    2  A    between atoms: C_14  and  C_19 
REMARK    3  A    between atoms: C_15  and  C_20 
REMARK    4  A    between atoms: C_16  and  C_21 
REMARK    5  A    between atoms: C_17  and  C_23 
REMARK    6  A    between atoms: C_18  and  C_26 
REMARK    7  A    between atoms: C_22  and  C_28 
ROOT
HETATM    1  O   UNL     1      51.896   4.099  54.214  1.00  0.00    -0.304 OA
HETATM    2  O   UNL     1      49.020   3.697  49.871  1.00  0.00    -0.304 OA
HETATM    3  O   UNL     1      46.727   3.988  53.994  1.00  0.00    -0.304 OA
HETATM    4  O   UNL     1      51.460   2.237  51.327  1.00  0.00    -0.270 OA
HETATM    5  O   UNL     1      50.791   5.822  53.152  1.00  0.00    -0.263 OA
HETATM    6  O   UNL     1      49.981   2.387  53.869  1.00  0.00    -0.270 OA
HETATM    7  O   UNL     1      45.150   3.477  51.209  1.00  0.00    -0.270 OA
HETATM    8  O   UNL     1      48.392   4.073  47.693  1.00  0.00    -0.263 OA
HETATM    9  O   UNL     1      45.757   1.927  53.661  1.00  0.00    -0.263 OA
HETATM   10  N   UNL     1      51.764   4.485  50.840  1.00  0.00    -0.340 N 
HETATM   11  N   UNL     1      48.617   3.106  55.595  1.00  0.00    -0.340 N 
HETATM   12  N   UNL     1      46.915   4.969  50.938  1.00  0.00    -0.340 N 
HETATM   13  C   UNL     1      52.613   4.656  52.037  1.00  0.00     0.190 C 
HETATM   14  C   UNL     1      47.588   2.112  55.220  1.00  0.00     0.190 C 
HETATM   15  C   UNL     1      46.928   4.812  49.469  1.00  0.00     0.190 C 
HETATM   16  C   UNL     1      50.241   3.063  49.441  1.00  0.00     0.227 C 
HETATM   17  C   UNL     1      50.924   4.072  55.282  1.00  0.00     0.227 C 
HETATM   18  C   UNL     1      45.796   4.709  53.166  1.00  0.00     0.227 C 
HETATM   19  C   UNL     1      51.206   3.215  50.614  1.00  0.00     0.250 C 
HETATM   20  C   UNL     1      51.659   4.960  53.180  1.00  0.00     0.283 C 
HETATM   21  C   UNL     1      49.805   3.120  54.849  1.00  0.00     0.250 C 
HETATM   22  C   UNL     1      45.921   4.315  51.687  1.00  0.00     0.250 C 
HETATM   23  C   UNL     1      48.191   4.171  48.900  1.00  0.00     0.283 C 
HETATM   24  C   UNL     1      46.594   2.649  54.193  1.00  0.00     0.283 C 
HETATM   25  C   UNL     1      51.533   5.658  49.991  1.00  0.00     0.153 C 
HETATM   26  C   UNL     1      48.313   4.028  56.691  1.00  0.00     0.153 C 
HETATM   27  C   UNL     1      47.833   5.947  51.523  1.00  0.00     0.153 C 
ENDROOT
BRANCH  17  28
HETATM   28  C   UNL     1      51.638   3.537  56.514  1.00  0.00     0.016 C 
HETATM   29  C   UNL     1      52.886   2.750  56.115  1.00  0.00     0.012 C 
HETATM   30  C   UNL     1      52.005   4.677  57.463  1.00  0.00     0.012 C 
ENDBRANCH  17  28
BRANCH  13  31
HETATM   31  C   UNL     1      53.686   5.735  51.947  1.00  0.00     0.014 C 
HETATM   32  C   UNL     1      54.102   6.174  53.352  1.00  0.00     0.012 C 
BRANCH  31  33
HETATM   33  C   UNL     1      54.878   5.222  51.119  1.00  0.00     0.002 C 
HETATM   34  C   UNL     1      55.235   3.769  51.395  1.00  0.00     0.005 C 
ENDBRANCH  31  33
ENDBRANCH  13  31
BRANCH  14  35
HETATM   35  C   UNL     1      46.831   1.531  56.414  1.00  0.00     0.010 C 
HETATM   36  C   UNL     1      45.381   2.010  56.419  1.00  0.00     0.012 C 
HETATM   37  C   UNL     1      46.890   0.004  56.400  1.00  0.00     0.012 C 
ENDBRANCH  14  35
BRANCH  16  38
HETATM   38  C   UNL     1      49.949   1.596  49.137  1.00  0.00     0.016 C 
HETATM   39  C   UNL     1      50.024   1.332  47.634  1.00  0.00     0.012 C 
HETATM   40  C   UNL     1      48.580   1.193  49.683  1.00  0.00     0.012 C 
ENDBRANCH  16  38
BRANCH  18  41
HETATM   41  C   UNL     1      44.365   4.595  53.689  1.00  0.00     0.016 C 
HETATM   42  C   UNL     1      43.395   5.320  52.759  1.00  0.00     0.012 C 
HETATM   43  C   UNL     1      44.266   5.152  55.107  1.00  0.00     0.012 C 
ENDBRANCH  18  41
BRANCH  15  44
HETATM   44  C   UNL     1      46.638   6.139  48.766  1.00  0.00     0.010 C 
HETATM   45  C   UNL     1      45.525   5.967  47.737  1.00  0.00     0.012 C 
HETATM   46  C   UNL     1      47.903   6.681  48.106  1.00  0.00     0.012 C 
ENDBRANCH  15  44
TORSDOF 7
ENDMDL
MODEL 19
REMARK VINA RESULT:    -4.038      2.680      7.064
REMARK INTER + INTRA:          -4.941
REMARK INTER:                  -5.517
REMARK INTRA:                   0.576
REMARK UNBOUND:                 0.750
REMARK  7 active torsions:
REMARK  status: ('A' for Active; 'I' for Inactive)
REMARK    1  A    between atoms: C_13  and  C_14 
REMARK    2  A    between atoms: C_14  and  C_19 
REMARK    3  A    between atoms: C_15  and  C_20 
REMARK    4  A    between atoms: C_16  and  C_21 
REMARK    5  A    between atoms: C_17  and  C_23 
REMARK    6  A    between atoms: C_18  and  C_26 
REMARK    7  A    between atoms: C_22  and  C_28 
ROOT
HETATM    1  O   UNL     1      49.486  13.098  42.683  1.00  0.00    -0.304 OA
HETATM    2  O   UNL     1      45.401  12.498  39.483  1.00  0.00    -0.304 OA
HETATM    3  O   UNL     1      49.549  13.666  37.540  1.00  0.00    -0.304 OA
HETATM    4  O   UNL     1      46.203  14.065  42.148  1.00  0.00    -0.270 OA
HETATM    5  O   UNL     1      49.057  11.261  41.357  1.00  0.00    -0.263 OA
HETATM    6  O   UNL     1      48.756  14.819  40.888  1.00  0.00    -0.270 OA
HETATM    7  O   UNL     1      46.837  13.494  35.773  1.00  0.00    -0.270 OA
HETATM    8  O   UNL     1      43.478  11.565  38.640  1.00  0.00    -0.263 OA
HETATM    9  O   UNL     1      48.670  15.626  36.713  1.00  0.00    -0.263 OA
HETATM   10  N   UNL     1      46.397  11.754  42.229  1.00  0.00    -0.340 N 
HETATM   11  N   UNL     1      50.695  14.782  39.627  1.00  0.00    -0.340 N 
HETATM   12  N   UNL     1      46.923  11.817  37.383  1.00  0.00    -0.340 N 
HETATM   13  C   UNL     1      47.538  11.856  43.162  1.00  0.00     0.190 C 
HETATM   14  C   UNL     1      50.101  15.721  38.651  1.00  0.00     0.190 C 
HETATM   15  C   UNL     1      45.476  11.533  37.281  1.00  0.00     0.190 C 
HETATM   16  C   UNL     1      44.729  12.850  40.708  1.00  0.00     0.227 C 
HETATM   17  C   UNL     1      50.552  13.537  41.813  1.00  0.00     0.227 C 
HETATM   18  C   UNL     1      49.032  12.833  36.487  1.00  0.00     0.227 C 
HETATM   19  C   UNL     1      45.833  12.952  41.756  1.00  0.00     0.250 C 
HETATM   20  C   UNL     1      48.774  12.001  42.290  1.00  0.00     0.283 C 
HETATM   21  C   UNL     1      49.919  14.428  40.741  1.00  0.00     0.250 C 
HETATM   22  C   UNL     1      47.498  12.760  36.514  1.00  0.00     0.250 C 
HETATM   23  C   UNL     1      44.668  11.847  38.537  1.00  0.00     0.283 C 
HETATM   24  C   UNL     1      49.343  15.010  37.533  1.00  0.00     0.283 C 
HETATM   25  C   UNL     1      45.955  10.413  41.832  1.00  0.00     0.153 C 
HETATM   26  C   UNL     1      52.034  14.258  39.346  1.00  0.00     0.153 C 
HETATM   27  C   UNL     1      47.719  10.966  38.268  1.00  0.00     0.153 C 
ENDROOT
BRANCH  17  28
HETATM   28  C   UNL     1      51.522  14.335  42.672  1.00  0.00     0.016 C 
HETATM   29  C   UNL     1      50.840  14.811  43.954  1.00  0.00     0.012 C 
HETATM   30  C   UNL     1      52.761  13.503  43.002  1.00  0.00     0.012 C 
ENDBRANCH  17  28
BRANCH  13  31
HETATM   31  C   UNL     1      47.713  10.695  44.135  1.00  0.00     0.014 C 
HETATM   32  C   UNL     1      49.157  10.649  44.635  1.00  0.00     0.012 C 
BRANCH  31  33
HETATM   33  C   UNL     1      46.699  10.817  45.286  1.00  0.00     0.002 C 
HETATM   34  C   UNL     1      45.873   9.559  45.511  1.00  0.00     0.005 C 
ENDBRANCH  31  33
ENDBRANCH  13  31
BRANCH  14  35
HETATM   35  C   UNL     1      51.108  16.701  38.049  1.00  0.00     0.010 C 
HETATM   36  C   UNL     1      51.396  16.352  36.591  1.00  0.00     0.012 C 
HETATM   37  C   UNL     1      50.598  18.138  38.165  1.00  0.00     0.012 C 
ENDBRANCH  14  35
BRANCH  16  38
HETATM   38  C   UNL     1      44.015  14.185  40.509  1.00  0.00     0.016 C 
HETATM   39  C   UNL     1      42.500  13.991  40.507  1.00  0.00     0.012 C 
HETATM   40  C   UNL     1      44.471  14.852  39.212  1.00  0.00     0.012 C 
ENDBRANCH  16  38
BRANCH  18  41
HETATM   41  C   UNL     1      49.580  13.240  35.120  1.00  0.00     0.016 C 
HETATM   42  C   UNL     1      48.953  12.392  34.016  1.00  0.00     0.012 C 
HETATM   43  C   UNL     1      51.102  13.116  35.093  1.00  0.00     0.012 C 
ENDBRANCH  18  41
BRANCH  15  44
HETATM   44  C   UNL     1      45.223  10.095  36.827  1.00  0.00     0.010 C 
HETATM   45  C   UNL     1      44.069  10.044  35.830  1.00  0.00     0.012 C 
HETATM   46  C   UNL     1      44.938   9.198  38.028  1.00  0.00     0.012 C 
ENDBRANCH  15  44
TORSDOF 7
ENDMDL
MODEL 20
REMARK VINA RESULT:    -4.029      2.621      5.583
REMARK INTER + INTRA:          -4.927
REMARK INTER:                  -5.834
REMARK INTRA:                   0.907
REMARK UNBOUND:                 0.750
REMARK  7 active torsions:
REMARK  status: ('A' for Active; 'I' for Inactive)
REMARK    1  A    between atoms: C_13  and  C_14 
REMARK    2  A    between atoms: C_14  and  C_19 
REMARK    3  A    between atoms: C_15  and  C_20 
REMARK    4  A    between atoms: C_16  and  C_21 
REMARK    5  A    between atoms: C_17  and  C_23 
REMARK    6  A    between atoms: C_18  and  C_26 
REMARK    7  A    between atoms: C_22  and  C_28 
ROOT
HETATM    1  O   UNL     1      47.998  10.196  43.831  1.00  0.00    -0.304 OA
HETATM    2  O   UNL     1      47.237  14.296  40.684  1.00  0.00    -0.304 OA
HETATM    3  O   UNL     1      43.415  11.968  42.207  1.00  0.00    -0.304 OA
HETATM    4  O   UNL     1      48.936  11.593  40.804  1.00  0.00    -0.270 OA
HETATM    5  O   UNL     1      47.326  12.304  44.483  1.00  0.00    -0.263 OA
HETATM    6  O   UNL     1      46.522  10.163  41.701  1.00  0.00    -0.270 OA
HETATM    7  O   UNL     1      43.187  14.376  40.049  1.00  0.00    -0.270 OA
HETATM    8  O   UNL     1      47.555  16.400  39.817  1.00  0.00    -0.263 OA
HETATM    9  O   UNL     1      42.815  11.436  40.050  1.00  0.00    -0.263 OA
HETATM   10  N   UNL     1      49.265  13.080  42.556  1.00  0.00    -0.340 N 
HETATM   11  N   UNL     1      44.517   9.639  42.729  1.00  0.00    -0.340 N 
HETATM   12  N   UNL     1      44.799  14.820  41.667  1.00  0.00    -0.340 N 
HETATM   13  C   UNL     1      49.521  11.964  43.489  1.00  0.00     0.190 C 
HETATM   14  C   UNL     1      43.808   9.729  41.435  1.00  0.00     0.190 C 
HETATM   15  C   UNL     1      45.436  15.879  40.858  1.00  0.00     0.190 C 
HETATM   16  C   UNL     1      48.565  13.899  40.288  1.00  0.00     0.227 C 
HETATM   17  C   UNL     1      46.672   9.660  44.035  1.00  0.00     0.227 C 
HETATM   18  C   UNL     1      42.871  13.300  42.172  1.00  0.00     0.227 C 
HETATM   19  C   UNL     1      48.939  12.755  41.227  1.00  0.00     0.250 C 
HETATM   20  C   UNL     1      48.158  11.540  44.011  1.00  0.00     0.283 C 
HETATM   21  C   UNL     1      45.904   9.847  42.724  1.00  0.00     0.250 C 
HETATM   22  C   UNL     1      43.629  14.204  41.189  1.00  0.00     0.250 C 
HETATM   23  C   UNL     1      46.861  15.574  40.403  1.00  0.00     0.283 C 
HETATM   24  C   UNL     1      43.302  11.139  41.135  1.00  0.00     0.283 C 
HETATM   25  C   UNL     1      49.332  14.446  43.085  1.00  0.00     0.153 C 
HETATM   26  C   UNL     1      43.721   9.375  43.930  1.00  0.00     0.153 C 
HETATM   27  C   UNL     1      45.320  14.592  43.016  1.00  0.00     0.153 C 
ENDROOT
BRANCH  17  28
HETATM   28  C   UNL     1      46.839   8.181  44.353  1.00  0.00     0.016 C 
HETATM   29  C   UNL     1      48.311   7.776  44.277  1.00  0.00     0.012 C 
HETATM   30  C   UNL     1      46.266   7.858  45.733  1.00  0.00     0.012 C 
ENDBRANCH  17  28
BRANCH  13  31
HETATM   31  C   UNL     1      50.459  12.268  44.652  1.00  0.00     0.014 C 
HETATM   32  C   UNL     1      50.116  11.372  45.844  1.00  0.00     0.012 C 
BRANCH  31  33
HETATM   33  C   UNL     1      51.922  12.107  44.203  1.00  0.00     0.002 C 
HETATM   34  C   UNL     1      52.531  10.761  44.569  1.00  0.00     0.005 C 
ENDBRANCH  31  33
ENDBRANCH  13  31
BRANCH  14  35
HETATM   35  C   UNL     1      42.662   8.729  41.290  1.00  0.00     0.010 C 
HETATM   36  C   UNL     1      41.316   9.451  41.257  1.00  0.00     0.012 C 
HETATM   37  C   UNL     1      42.843   7.878  40.033  1.00  0.00     0.012 C 
ENDBRANCH  14  35
BRANCH  16  38
HETATM   38  C   UNL     1      48.527  13.445  38.832  1.00  0.00     0.016 C 
HETATM   39  C   UNL     1      49.291  14.423  37.941  1.00  0.00     0.012 C 
HETATM   40  C   UNL     1      47.084  13.298  38.350  1.00  0.00     0.012 C 
ENDBRANCH  16  38
BRANCH  18  41
HETATM   41  C   UNL     1      41.363  13.291  41.923  1.00  0.00     0.016 C 
HETATM   42  C   UNL     1      40.817  14.716  41.886  1.00  0.00     0.012 C 
HETATM   43  C   UNL     1      40.648  12.469  42.993  1.00  0.00     0.012 C 
ENDBRANCH  18  41
BRANCH  15  44
HETATM   44  C   UNL     1      45.379  17.232  41.569  1.00  0.00     0.010 C 
HETATM   45  C   UNL     1      46.284  17.229  42.798  1.00  0.00     0.012 C 
HETATM   46  C   UNL     1      43.943  17.571  41.957  1.00  0.00     0.012 C 
ENDBRANCH  15  44
TORSDOF 7
ENDMDL
