MODEL 1
REMARK VINA RESULT:    -6.430      0.000      0.000
REMARK INTER + INTRA:          -8.069
REMARK INTER:                  -9.062
REMARK INTRA:                   0.993
REMARK UNBOUND:                 0.993
REMARK  7 active torsions:
REMARK  status: ('A' for Active; 'I' for Inactive)
REMARK    1  A    between atoms: C_13  and  C_14 
REMARK    2  A    between atoms: C_14  and  C_19 
REMARK    3  A    between atoms: C_15  and  C_20 
REMARK    4  A    between atoms: C_16  and  C_21 
REMARK    5  A    between atoms: C_17  and  C_23 
REMARK    6  A    between atoms: C_18  and  C_26 
REMARK    7  A    between atoms: C_22  and  C_28 
ROOT
HETATM    1  O   UNL     1      46.321  17.868  31.853  1.00  0.00    -0.304 OA
HETATM    2  O   UNL     1      41.338  17.143  33.245  1.00  0.00    -0.304 OA
HETATM    3  O   UNL     1      42.864  14.943  29.349  1.00  0.00    -0.304 OA
HETATM    4  O   UNL     1      43.403  19.522  32.715  1.00  0.00    -0.270 OA
HETATM    5  O   UNL     1      45.463  16.008  32.912  1.00  0.00    -0.263 OA
HETATM    6  O   UNL     1      44.293  18.150  30.265  1.00  0.00    -0.270 OA
HETATM    7  O   UNL     1      39.751  14.837  30.249  1.00  0.00    -0.270 OA
HETATM    8  O   UNL     1      39.549  16.800  34.645  1.00  0.00    -0.263 OA
HETATM    9  O   UNL     1      41.323  16.058  28.052  1.00  0.00    -0.263 OA
HETATM   10  N   UNL     1      44.015  17.989  34.347  1.00  0.00    -0.340 N 
HETATM   11  N   UNL     1      44.877  16.518  28.733  1.00  0.00    -0.340 N 
HETATM   12  N   UNL     1      41.181  14.733  32.081  1.00  0.00    -0.340 N 
HETATM   13  C   UNL     1      45.444  18.174  34.021  1.00  0.00     0.190 C 
HETATM   14  C   UNL     1      43.630  16.757  27.975  1.00  0.00     0.190 C 
HETATM   15  C   UNL     1      40.112  15.084  33.038  1.00  0.00     0.190 C 
HETATM   16  C   UNL     1      41.596  18.430  33.840  1.00  0.00     0.227 C 
HETATM   17  C   UNL     1      46.443  17.157  30.602  1.00  0.00     0.227 C 
HETATM   18  C   UNL     1      41.941  13.947  29.825  1.00  0.00     0.227 C 
HETATM   19  C   UNL     1      43.075  18.702  33.581  1.00  0.00     0.250 C 
HETATM   20  C   UNL     1      45.741  17.200  32.893  1.00  0.00     0.283 C 
HETATM   21  C   UNL     1      45.112  17.318  29.861  1.00  0.00     0.250 C 
HETATM   22  C   UNL     1      40.855  14.554  30.725  1.00  0.00     0.250 C 
HETATM   23  C   UNL     1      40.297  16.423  33.748  1.00  0.00     0.283 C 
HETATM   24  C   UNL     1      42.466  15.899  28.466  1.00  0.00     0.283 C 
HETATM   25  C   UNL     1      43.672  17.048  35.418  1.00  0.00     0.153 C 
HETATM   26  C   UNL     1      45.760  15.442  28.278  1.00  0.00     0.153 C 
HETATM   27  C   UNL     1      42.500  14.410  32.628  1.00  0.00     0.153 C 
ENDROOT
BRANCH  17  28
HETATM   28  C   UNL     1      47.573  17.818  29.827  1.00  0.00     0.016 C 
HETATM   29  C   UNL     1      47.353  19.328  29.736  1.00  0.00     0.012 C 
HETATM   30  C   UNL     1      48.923  17.513  30.475  1.00  0.00     0.012 C 
ENDBRANCH  17  28
BRANCH  13  31
HETATM   31  C   UNL     1      46.423  17.963  35.170  1.00  0.00     0.014 C 
HETATM   32  C   UNL     1      47.859  18.005  34.644  1.00  0.00     0.012 C 
BRANCH  31  33
HETATM   33  C   UNL     1      46.175  19.010  36.271  1.00  0.00     0.002 C 
HETATM   34  C   UNL     1      46.306  18.458  37.683  1.00  0.00     0.005 C 
ENDBRANCH  31  33
ENDBRANCH  13  31
BRANCH  14  35
HETATM   35  C   UNL     1      43.788  16.593  26.464  1.00  0.00     0.010 C 
HETATM   36  C   UNL     1      43.595  15.135  26.055  1.00  0.00     0.012 C 
HETATM   37  C   UNL     1      42.803  17.493  25.717  1.00  0.00     0.012 C 
ENDBRANCH  14  35
BRANCH  16  38
HETATM   38  C   UNL     1      40.704  19.468  33.165  1.00  0.00     0.016 C 
HETATM   39  C   UNL     1      39.590  19.918  34.109  1.00  0.00     0.012 C 
HETATM   40  C   UNL     1      40.116  18.913  31.869  1.00  0.00     0.012 C 
ENDBRANCH  16  38
BRANCH  18  41
HETATM   41  C   UNL     1      41.363  13.115  28.681  1.00  0.00     0.016 C 
HETATM   42  C   UNL     1      40.364  12.091  29.214  1.00  0.00     0.012 C 
HETATM   43  C   UNL     1      42.480  12.422  27.904  1.00  0.00     0.012 C 
ENDBRANCH  18  41
BRANCH  15  44
HETATM   44  C   UNL     1      39.887  13.965  34.056  1.00  0.00     0.010 C 
HETATM   45  C   UNL     1      38.395  13.696  34.233  1.00  0.00     0.012 C 
HETATM   46  C   UNL     1      40.533  14.321  35.391  1.00  0.00     0.012 C 
ENDBRANCH  15  44
TORSDOF 7
ENDMDL
MODEL 2
REMARK VINA RESULT:    -6.062      5.261      9.993
REMARK INTER + INTRA:          -7.550
REMARK INTER:                  -8.322
REMARK INTRA:                   0.772
REMARK UNBOUND:                 0.993
REMARK  7 active torsions:
REMARK  status: ('A' for Active; 'I' for Inactive)
REMARK    1  A    between atoms: C_13  and  C_14 
REMARK    2  A    between atoms: C_14  and  C_19 
REMARK    3  A    between atoms: C_15  and  C_20 
REMARK    4  A    between atoms: C_16  and  C_21 
REMARK    5  A    between atoms: C_17  and  C_23 
REMARK    6  A    between atoms: C_18  and  C_26 
REMARK    7  A    between atoms: C_22  and  C_28 
ROOT
HETATM    1  O   UNL     1      49.253  19.013  30.786  1.00  0.00    -0.304 OA
HETATM    2  O   UNL     1      52.791  18.097  34.519  1.00  0.00    -0.304 OA
HETATM    3  O   UNL     1      48.813  15.545  34.601  1.00  0.00    -0.304 OA
HETATM    4  O   UNL     1      51.202  20.539  33.209  1.00  0.00    -0.270 OA
HETATM    5  O   UNL     1      50.729  17.242  30.855  1.00  0.00    -0.263 OA
HETATM    6  O   UNL     1      48.731  18.940  33.323  1.00  0.00    -0.270 OA
HETATM    7  O   UNL     1      51.022  15.320  36.963  1.00  0.00    -0.270 OA
HETATM    8  O   UNL     1      54.868  17.800  35.455  1.00  0.00    -0.263 OA
HETATM    9  O   UNL     1      48.264  16.369  36.679  1.00  0.00    -0.263 OA
HETATM   10  N   UNL     1      52.499  19.274  31.758  1.00  0.00    -0.340 N 
HETATM   11  N   UNL     1      47.234  17.177  33.274  1.00  0.00    -0.340 N 
HETATM   12  N   UNL     1      52.016  15.555  34.873  1.00  0.00    -0.340 N 
HETATM   13  C   UNL     1      51.552  19.523  30.652  1.00  0.00     0.190 C 
HETATM   14  C   UNL     1      47.102  17.223  34.746  1.00  0.00     0.190 C 
HETATM   15  C   UNL     1      53.321  15.943  35.448  1.00  0.00     0.190 C 
HETATM   16  C   UNL     1      53.102  19.465  34.188  1.00  0.00     0.227 C 
HETATM   17  C   UNL     1      48.142  18.161  31.139  1.00  0.00     0.227 C 
HETATM   18  C   UNL     1      49.730  14.550  35.090  1.00  0.00     0.227 C 
HETATM   19  C   UNL     1      52.185  19.813  33.019  1.00  0.00     0.250 C 
HETATM   20  C   UNL     1      50.492  18.439  30.763  1.00  0.00     0.283 C 
HETATM   21  C   UNL     1      48.068  18.128  32.668  1.00  0.00     0.250 C 
HETATM   22  C   UNL     1      50.972  15.183  35.737  1.00  0.00     0.250 C 
HETATM   23  C   UNL     1      53.763  17.371  35.137  1.00  0.00     0.283 C 
HETATM   24  C   UNL     1      48.131  16.349  35.460  1.00  0.00     0.283 C 
HETATM   25  C   UNL     1      53.681  18.452  31.477  1.00  0.00     0.153 C 
HETATM   26  C   UNL     1      46.517  16.121  32.555  1.00  0.00     0.153 C 
HETATM   27  C   UNL     1      51.935  15.403  33.419  1.00  0.00     0.153 C 
ENDROOT
BRANCH  17  28
HETATM   28  C   UNL     1      46.892  18.802  30.555  1.00  0.00     0.016 C 
HETATM   29  C   UNL     1      47.161  20.257  30.171  1.00  0.00     0.012 C 
HETATM   30  C   UNL     1      46.395  18.013  29.345  1.00  0.00     0.012 C 
ENDBRANCH  17  28
BRANCH  13  31
HETATM   31  C   UNL     1      52.151  19.533  29.250  1.00  0.00     0.014 C 
HETATM   32  C   UNL     1      51.035  19.432  28.208  1.00  0.00     0.012 C 
BRANCH  31  33
HETATM   33  C   UNL     1      53.017  20.790  29.057  1.00  0.00     0.002 C 
HETATM   34  C   UNL     1      52.245  21.991  28.529  1.00  0.00     0.005 C 
ENDBRANCH  31  33
ENDBRANCH  13  31
BRANCH  14  35
HETATM   35  C   UNL     1      45.699  16.883  35.249  1.00  0.00     0.010 C 
HETATM   36  C   UNL     1      45.701  15.549  35.992  1.00  0.00     0.012 C 
HETATM   37  C   UNL     1      45.164  17.996  36.150  1.00  0.00     0.012 C 
ENDBRANCH  14  35
BRANCH  16  38
HETATM   38  C   UNL     1      52.821  20.340  35.406  1.00  0.00     0.016 C 
HETATM   39  C   UNL     1      54.123  20.876  35.997  1.00  0.00     0.012 C 
HETATM   40  C   UNL     1      52.035  19.561  36.460  1.00  0.00     0.012 C 
ENDBRANCH  16  38
BRANCH  18  41
HETATM   41  C   UNL     1      49.039  13.540  36.005  1.00  0.00     0.016 C 
HETATM   42  C   UNL     1      50.039  12.505  36.515  1.00  0.00     0.012 C 
HETATM   43  C   UNL     1      47.885  12.857  35.274  1.00  0.00     0.012 C 
ENDBRANCH  18  41
BRANCH  15  44
HETATM   44  C   UNL     1      54.416  14.948  35.063  1.00  0.00     0.010 C 
HETATM   45  C   UNL     1      53.922  13.515  35.240  1.00  0.00     0.012 C 
HETATM   46  C   UNL     1      55.674  15.190  35.893  1.00  0.00     0.012 C 
ENDBRANCH  15  44
TORSDOF 7
ENDMDL
MODEL 3
REMARK VINA RESULT:    -6.004      4.180      8.609
REMARK INTER + INTRA:          -7.469
REMARK INTER:                  -8.418
REMARK INTRA:                   0.949
REMARK UNBOUND:                 0.993
REMARK  7 active torsions:
REMARK  status: ('A' for Active; 'I' for Inactive)
REMARK    1  A    between atoms: C_13  and  C_14 
REMARK    2  A    between atoms: C_14  and  C_19 
REMARK    3  A    between atoms: C_15  and  C_20 
REMARK    4  A    between atoms: C_16  and  C_21 
REMARK    5  A    between atoms: C_17  and  C_23 
REMARK    6  A    between atoms: C_18  and  C_26 
REMARK    7  A    between atoms: C_22  and  C_28 
ROOT
HETATM    1  O   UNL     1      48.838  18.261  31.028  1.00  0.00    -0.304 OA
HETATM    2  O   UNL     1      51.008  16.850  35.566  1.00  0.00    -0.304 OA
HETATM    3  O   UNL     1      46.672  15.226  34.616  1.00  0.00    -0.304 OA
HETATM    4  O   UNL     1      50.398  19.486  33.867  1.00  0.00    -0.270 OA
HETATM    5  O   UNL     1      49.809  16.222  31.494  1.00  0.00    -0.263 OA
HETATM    6  O   UNL     1      47.684  18.468  33.339  1.00  0.00    -0.270 OA
HETATM    7  O   UNL     1      48.098  14.685  37.477  1.00  0.00    -0.270 OA
HETATM    8  O   UNL     1      52.657  16.174  37.015  1.00  0.00    -0.263 OA
HETATM    9  O   UNL     1      45.812  16.283  36.472  1.00  0.00    -0.263 OA
HETATM   10  N   UNL     1      51.702  17.879  32.817  1.00  0.00    -0.340 N 
HETATM   11  N   UNL     1      45.893  17.069  32.911  1.00  0.00    -0.340 N 
HETATM   12  N   UNL     1      49.618  14.563  35.720  1.00  0.00    -0.340 N 
HETATM   13  C   UNL     1      51.149  18.253  31.499  1.00  0.00     0.190 C 
HETATM   14  C   UNL     1      45.404  17.240  34.296  1.00  0.00     0.190 C 
HETATM   15  C   UNL     1      50.786  14.698  36.615  1.00  0.00     0.190 C 
HETATM   16  C   UNL     1      51.694  18.093  35.318  1.00  0.00     0.227 C 
HETATM   17  C   UNL     1      47.511  17.693  31.083  1.00  0.00     0.227 C 
HETATM   18  C   UNL     1      47.186  14.091  35.336  1.00  0.00     0.227 C 
HETATM   19  C   UNL     1      51.207  18.554  33.947  1.00  0.00     0.250 C 
HETATM   20  C   UNL     1      49.880  17.433  31.335  1.00  0.00     0.283 C 
HETATM   21  C   UNL     1      47.045  17.777  32.539  1.00  0.00     0.250 C 
HETATM   22  C   UNL     1      48.332  14.482  36.281  1.00  0.00     0.250 C 
HETATM   23  C   UNL     1      51.602  15.973  36.421  1.00  0.00     0.283 C 
HETATM   24  C   UNL     1      45.993  16.213  35.261  1.00  0.00     0.283 C 
HETATM   25  C   UNL     1      52.700  16.805  32.861  1.00  0.00     0.153 C 
HETATM   26  C   UNL     1      45.164  16.149  32.036  1.00  0.00     0.153 C 
HETATM   27  C   UNL     1      49.877  14.338  34.297  1.00  0.00     0.153 C 
ENDROOT
BRANCH  17  28
HETATM   28  C   UNL     1      46.628  18.550  30.186  1.00  0.00     0.016 C 
HETATM   29  C   UNL     1      47.366  19.816  29.755  1.00  0.00     0.012 C 
HETATM   30  C   UNL     1      46.168  17.756  28.964  1.00  0.00     0.012 C 
ENDBRANCH  17  28
BRANCH  13  31
HETATM   31  C   UNL     1      52.071  18.042  30.304  1.00  0.00     0.014 C 
HETATM   32  C   UNL     1      51.513  16.936  29.407  1.00  0.00     0.012 C 
BRANCH  31  33
HETATM   33  C   UNL     1      52.260  19.368  29.546  1.00  0.00     0.002 C 
HETATM   34  C   UNL     1      51.146  19.670  28.553  1.00  0.00     0.005 C 
ENDBRANCH  31  33
ENDBRANCH  13  31
BRANCH  14  35
HETATM   35  C   UNL     1      43.880  17.244  34.415  1.00  0.00     0.010 C 
HETATM   36  C   UNL     1      43.406  16.110  35.322  1.00  0.00     0.012 C 
HETATM   37  C   UNL     1      43.382  18.591  34.939  1.00  0.00     0.012 C 
ENDBRANCH  14  35
BRANCH  16  38
HETATM   38  C   UNL     1      51.316  19.087  36.414  1.00  0.00     0.016 C 
HETATM   39  C   UNL     1      52.532  19.432  37.272  1.00  0.00     0.012 C 
HETATM   40  C   UNL     1      50.190  18.529  37.283  1.00  0.00     0.012 C 
ENDBRANCH  16  38
BRANCH  18  41
HETATM   41  C   UNL     1      46.075  13.316  36.043  1.00  0.00     0.016 C 
HETATM   42  C   UNL     1      46.649  12.107  36.778  1.00  0.00     0.012 C 
HETATM   43  C   UNL     1      45.006  12.879  35.045  1.00  0.00     0.012 C 
ENDBRANCH  18  41
BRANCH  15  44
HETATM   44  C   UNL     1      51.690  13.466  36.538  1.00  0.00     0.010 C 
HETATM   45  C   UNL     1      52.174  13.071  37.931  1.00  0.00     0.012 C 
HETATM   46  C   UNL     1      52.872  13.729  35.611  1.00  0.00     0.012 C 
ENDBRANCH  15  44
TORSDOF 7
ENDMDL
MODEL 4
REMARK VINA RESULT:    -5.802     15.682     20.339
REMARK INTER + INTRA:          -7.184
REMARK INTER:                  -8.064
REMARK INTRA:                   0.879
REMARK UNBOUND:                 0.993
REMARK  7 active torsions:
REMARK  status: ('A' for Active; 'I' for Inactive)
REMARK    1  A    between atoms: C_13  and  C_14 
REMARK    2  A    between atoms: C_14  and  C_19 
REMARK    3  A    between atoms: C_15  and  C_20 
REMARK    4  A    between atoms: C_16  and  C_21 
REMARK    5  A    between atoms: C_17  and  C_23 
REMARK    6  A    between atoms: C_18  and  C_26 
REMARK    7  A    between atoms: C_22  and  C_28 
ROOT
HETATM    1  O   UNL     1      57.512  12.291  25.751  1.00  0.00    -0.304 OA
HETATM    2  O   UNL     1      62.518  11.043  24.926  1.00  0.00    -0.304 OA
HETATM    3  O   UNL     1      59.422   7.498  25.362  1.00  0.00    -0.304 OA
HETATM    4  O   UNL     1      60.741  12.841  26.879  1.00  0.00    -0.270 OA
HETATM    5  O   UNL     1      58.433  11.620  23.746  1.00  0.00    -0.263 OA
HETATM    6  O   UNL     1      58.860  10.592  27.171  1.00  0.00    -0.270 OA
HETATM    7  O   UNL     1      62.606   6.948  25.102  1.00  0.00    -0.270 OA
HETATM    8  O   UNL     1      64.625  11.188  24.021  1.00  0.00    -0.263 OA
HETATM    9  O   UNL     1      60.535   6.683  27.205  1.00  0.00    -0.263 OA
HETATM   10  N   UNL     1      60.550  13.307  24.614  1.00  0.00    -0.340 N 
HETATM   11  N   UNL     1      57.554   8.733  26.739  1.00  0.00    -0.340 N 
HETATM   12  N   UNL     1      61.923   8.710  23.746  1.00  0.00    -0.340 N 
HETATM   13  C   UNL     1      59.137  13.703  24.788  1.00  0.00     0.190 C 
HETATM   14  C   UNL     1      58.468   7.883  27.531  1.00  0.00     0.190 C 
HETATM   15  C   UNL     1      63.301   9.217  23.572  1.00  0.00     0.190 C 
HETATM   16  C   UNL     1      62.665  12.333  25.552  1.00  0.00     0.227 C 
HETATM   17  C   UNL     1      56.858  11.016  25.931  1.00  0.00     0.227 C 
HETATM   18  C   UNL     1      60.311   6.905  24.398  1.00  0.00     0.227 C 
HETATM   19  C   UNL     1      61.242  12.848  25.749  1.00  0.00     0.250 C 
HETATM   20  C   UNL     1      58.329  12.422  24.665  1.00  0.00     0.283 C 
HETATM   21  C   UNL     1      57.846  10.102  26.662  1.00  0.00     0.250 C 
HETATM   22  C   UNL     1      61.718   7.518  24.461  1.00  0.00     0.250 C 
HETATM   23  C   UNL     1      63.563  10.593  24.178  1.00  0.00     0.283 C 
HETATM   24  C   UNL     1      59.604   7.297  26.695  1.00  0.00     0.283 C 
HETATM   25  C   UNL     1      61.122  13.382  23.265  1.00  0.00     0.153 C 
HETATM   26  C   UNL     1      56.430   8.083  26.061  1.00  0.00     0.153 C 
HETATM   27  C   UNL     1      60.856   9.385  23.006  1.00  0.00     0.153 C 
ENDROOT
BRANCH  17  28
HETATM   28  C   UNL     1      55.626  11.270  26.787  1.00  0.00     0.016 C 
HETATM   29  C   UNL     1      55.745  12.604  27.521  1.00  0.00     0.012 C 
HETATM   30  C   UNL     1      54.359  11.241  25.932  1.00  0.00     0.012 C 
ENDBRANCH  17  28
BRANCH  13  31
HETATM   31  C   UNL     1      58.613  14.752  23.813  1.00  0.00     0.014 C 
HETATM   32  C   UNL     1      57.315  14.260  23.169  1.00  0.00     0.012 C 
BRANCH  31  33
HETATM   33  C   UNL     1      58.432  16.098  24.536  1.00  0.00     0.002 C 
HETATM   34  C   UNL     1      57.171  16.848  24.129  1.00  0.00     0.005 C 
ENDBRANCH  31  33
ENDBRANCH  13  31
BRANCH  14  35
HETATM   35  C   UNL     1      57.761   6.764  28.296  1.00  0.00     0.010 C 
HETATM   36  C   UNL     1      58.164   5.397  27.747  1.00  0.00     0.012 C 
HETATM   37  C   UNL     1      58.070   6.852  29.790  1.00  0.00     0.012 C 
ENDBRANCH  14  35
BRANCH  16  38
HETATM   38  C   UNL     1      63.389  12.151  26.883  1.00  0.00     0.016 C 
HETATM   39  C   UNL     1      64.778  12.784  26.832  1.00  0.00     0.012 C 
HETATM   40  C   UNL     1      63.489  10.670  27.245  1.00  0.00     0.012 C 
ENDBRANCH  16  38
BRANCH  18  41
HETATM   41  C   UNL     1      60.326   5.381  24.500  1.00  0.00     0.016 C 
HETATM   42  C   UNL     1      61.289   4.783  23.477  1.00  0.00     0.012 C 
HETATM   43  C   UNL     1      58.920   4.816  24.308  1.00  0.00     0.012 C 
ENDBRANCH  18  41
BRANCH  15  44
HETATM   44  C   UNL     1      63.721   9.190  22.102  1.00  0.00     0.010 C 
HETATM   45  C   UNL     1      65.114   8.583  21.955  1.00  0.00     0.012 C 
HETATM   46  C   UNL     1      63.679  10.595  21.509  1.00  0.00     0.012 C 
ENDBRANCH  15  44
TORSDOF 7
ENDMDL
MODEL 5
REMARK VINA RESULT:    -5.792     19.061     23.250
REMARK INTER + INTRA:          -7.170
REMARK INTER:                  -7.998
REMARK INTRA:                   0.828
REMARK UNBOUND:                 0.993
REMARK  7 active torsions:
REMARK  status: ('A' for Active; 'I' for Inactive)
REMARK    1  A    between atoms: C_13  and  C_14 
REMARK    2  A    between atoms: C_14  and  C_19 
REMARK    3  A    between atoms: C_15  and  C_20 
REMARK    4  A    between atoms: C_16  and  C_21 
REMARK    5  A    between atoms: C_17  and  C_23 
REMARK    6  A    between atoms: C_18  and  C_26 
REMARK    7  A    between atoms: C_22  and  C_28 
ROOT
HETATM    1  O   UNL     1      61.974   3.262  23.704  1.00  0.00    -0.304 OA
HETATM    2  O   UNL     1      59.803   6.987  26.654  1.00  0.00    -0.304 OA
HETATM    3  O   UNL     1      64.139   7.793  24.953  1.00  0.00    -0.304 OA
HETATM    4  O   UNL     1      60.414   3.853  26.740  1.00  0.00    -0.270 OA
HETATM    5  O   UNL     1      61.002   5.208  22.938  1.00  0.00    -0.263 OA
HETATM    6  O   UNL     1      63.127   4.396  25.729  1.00  0.00    -0.270 OA
HETATM    7  O   UNL     1      62.713   9.854  27.009  1.00  0.00    -0.270 OA
HETATM    8  O   UNL     1      58.154   8.364  27.470  1.00  0.00    -0.263 OA
HETATM    9  O   UNL     1      64.999   7.968  27.082  1.00  0.00    -0.263 OA
HETATM   10  N   UNL     1      59.110   4.587  24.966  1.00  0.00    -0.340 N 
HETATM   11  N   UNL     1      64.919   5.309  24.586  1.00  0.00    -0.340 N 
HETATM   12  N   UNL     1      61.193   8.963  25.491  1.00  0.00    -0.340 N 
HETATM   13  C   UNL     1      59.663   3.534  24.090  1.00  0.00     0.190 C 
HETATM   14  C   UNL     1      65.408   5.950  25.825  1.00  0.00     0.190 C 
HETATM   15  C   UNL     1      60.025   9.356  26.306  1.00  0.00     0.190 C 
HETATM   16  C   UNL     1      59.118   5.821  27.152  1.00  0.00     0.227 C 
HETATM   17  C   UNL     1      63.301   3.762  23.429  1.00  0.00     0.227 C 
HETATM   18  C   UNL     1      63.625   9.136  24.907  1.00  0.00     0.227 C 
HETATM   19  C   UNL     1      59.605   4.667  26.280  1.00  0.00     0.250 C 
HETATM   20  C   UNL     1      60.931   4.118  23.491  1.00  0.00     0.283 C 
HETATM   21  C   UNL     1      63.767   4.515  24.678  1.00  0.00     0.250 C 
HETATM   22  C   UNL     1      62.479   9.346  25.908  1.00  0.00     0.250 C 
HETATM   23  C   UNL     1      59.209   8.194  26.866  1.00  0.00     0.283 C 
HETATM   24  C   UNL     1      64.819   7.342  26.042  1.00  0.00     0.283 C 
HETATM   25  C   UNL     1      58.111   5.498  24.397  1.00  0.00     0.153 C 
HETATM   26  C   UNL     1      65.648   5.575  23.343  1.00  0.00     0.153 C 
HETATM   27  C   UNL     1      60.934   8.346  24.189  1.00  0.00     0.153 C 
ENDROOT
BRANCH  17  28
HETATM   28  C   UNL     1      64.184   2.549  23.172  1.00  0.00     0.016 C 
HETATM   29  C   UNL     1      64.321   1.705  24.439  1.00  0.00     0.012 C 
HETATM   30  C   UNL     1      63.624   1.707  22.026  1.00  0.00     0.012 C 
ENDBRANCH  17  28
BRANCH  13  31
HETATM   31  C   UNL     1      58.741   3.033  22.983  1.00  0.00     0.014 C 
HETATM   32  C   UNL     1      59.560   2.698  21.736  1.00  0.00     0.012 C 
BRANCH  31  33
HETATM   33  C   UNL     1      57.924   1.829  23.486  1.00  0.00     0.002 C 
HETATM   34  C   UNL     1      58.641   1.000  24.542  1.00  0.00     0.005 C 
ENDBRANCH  31  33
ENDBRANCH  13  31
BRANCH  14  35
HETATM   35  C   UNL     1      66.932   6.014  25.925  1.00  0.00     0.010 C 
HETATM   36  C   UNL     1      67.419   7.457  25.821  1.00  0.00     0.012 C 
HETATM   37  C   UNL     1      67.414   5.380  27.230  1.00  0.00     0.012 C 
ENDBRANCH  14  35
BRANCH  16  38
HETATM   38  C   UNL     1      59.496   5.620  28.617  1.00  0.00     0.016 C 
HETATM   39  C   UNL     1      58.324   5.975  29.530  1.00  0.00     0.012 C 
HETATM   40  C   UNL     1      60.725   6.453  28.976  1.00  0.00     0.012 C 
ENDBRANCH  16  38
BRANCH  18  41
HETATM   41  C   UNL     1      64.735  10.175  25.053  1.00  0.00     0.016 C 
HETATM   42  C   UNL     1      64.156  11.587  25.020  1.00  0.00     0.012 C 
HETATM   43  C   UNL     1      65.783   9.999  23.956  1.00  0.00     0.012 C 
ENDBRANCH  18  41
BRANCH  15  44
HETATM   44  C   UNL     1      59.121  10.329  25.547  1.00  0.00     0.010 C 
HETATM   45  C   UNL     1      59.955  11.401  24.850  1.00  0.00     0.012 C 
HETATM   46  C   UNL     1      58.109  10.966  26.495  1.00  0.00     0.012 C 
ENDBRANCH  15  44
TORSDOF 7
ENDMDL
MODEL 6
REMARK VINA RESULT:    -5.511      2.654      6.992
REMARK INTER + INTRA:          -6.773
REMARK INTER:                  -7.697
REMARK INTRA:                   0.924
REMARK UNBOUND:                 0.993
REMARK  7 active torsions:
REMARK  status: ('A' for Active; 'I' for Inactive)
REMARK    1  A    between atoms: C_13  and  C_14 
REMARK    2  A    between atoms: C_14  and  C_19 
REMARK    3  A    between atoms: C_15  and  C_20 
REMARK    4  A    between atoms: C_16  and  C_21 
REMARK    5  A    between atoms: C_17  and  C_23 
REMARK    6  A    between atoms: C_18  and  C_26 
REMARK    7  A    between atoms: C_22  and  C_28 
ROOT
HETATM    1  O   UNL     1      43.376  12.962  28.336  1.00  0.00    -0.304 OA
HETATM    2  O   UNL     1      42.950  16.835  31.816  1.00  0.00    -0.304 OA
HETATM    3  O   UNL     1      43.360  12.431  33.483  1.00  0.00    -0.304 OA
HETATM    4  O   UNL     1      41.469  15.717  29.216  1.00  0.00    -0.270 OA
HETATM    5  O   UNL     1      45.100  13.889  29.555  1.00  0.00    -0.263 OA
HETATM    6  O   UNL     1      41.695  12.991  30.309  1.00  0.00    -0.270 OA
HETATM    7  O   UNL     1      42.829  14.948  35.455  1.00  0.00    -0.270 OA
HETATM    8  O   UNL     1      43.298  18.906  32.746  1.00  0.00    -0.263 OA
HETATM    9  O   UNL     1      41.313  12.577  34.525  1.00  0.00    -0.263 OA
HETATM   10  N   UNL     1      43.703  16.289  28.948  1.00  0.00    -0.340 N 
HETATM   11  N   UNL     1      42.471  11.102  31.396  1.00  0.00    -0.340 N 
HETATM   12  N   UNL     1      44.281  15.502  33.724  1.00  0.00    -0.340 N 
HETATM   13  C   UNL     1      43.879  15.230  27.932  1.00  0.00     0.190 C 
HETATM   14  C   UNL     1      41.491  11.303  32.485  1.00  0.00     0.190 C 
HETATM   15  C   UNL     1      44.098  16.954  33.926  1.00  0.00     0.190 C 
HETATM   16  C   UNL     1      42.284  17.423  30.681  1.00  0.00     0.227 C 
HETATM   17  C   UNL     1      43.387  11.764  29.144  1.00  0.00     0.227 C 
HETATM   18  C   UNL     1      44.083  13.131  34.512  1.00  0.00     0.227 C 
HETATM   19  C   UNL     1      42.439  16.405  29.554  1.00  0.00     0.250 C 
HETATM   20  C   UNL     1      44.222  13.968  28.706  1.00  0.00     0.283 C 
HETATM   21  C   UNL     1      42.449  12.011  30.328  1.00  0.00     0.250 C 
HETATM   22  C   UNL     1      43.660  14.604  34.609  1.00  0.00     0.250 C 
HETATM   23  C   UNL     1      43.422  17.685  32.769  1.00  0.00     0.283 C 
HETATM   24  C   UNL     1      42.028  12.187  33.608  1.00  0.00     0.283 C 
HETATM   25  C   UNL     1      44.864  17.120  29.280  1.00  0.00     0.153 C 
HETATM   26  C   UNL     1      43.419   9.993  31.524  1.00  0.00     0.153 C 
HETATM   27  C   UNL     1      45.252  15.076  32.714  1.00  0.00     0.153 C 
ENDROOT
BRANCH  17  28
HETATM   28  C   UNL     1      42.860  10.637  28.267  1.00  0.00     0.016 C 
HETATM   29  C   UNL     1      41.811  11.161  27.288  1.00  0.00     0.012 C 
HETATM   30  C   UNL     1      44.004   9.959  27.514  1.00  0.00     0.012 C 
ENDBRANCH  17  28
BRANCH  13  31
HETATM   31  C   UNL     1      44.935  15.497  26.866  1.00  0.00     0.014 C 
HETATM   32  C   UNL     1      46.062  14.469  26.981  1.00  0.00     0.012 C 
BRANCH  31  33
HETATM   33  C   UNL     1      44.285  15.497  25.471  1.00  0.00     0.002 C 
HETATM   34  C   UNL     1      43.142  16.492  25.328  1.00  0.00     0.005 C 
ENDBRANCH  31  33
ENDBRANCH  13  31
BRANCH  14  35
HETATM   35  C   UNL     1      40.946  10.001  33.071  1.00  0.00     0.010 C 
HETATM   36  C   UNL     1      41.445   9.801  34.500  1.00  0.00     0.012 C 
HETATM   37  C   UNL     1      39.418   9.988  33.031  1.00  0.00     0.012 C 
ENDBRANCH  14  35
BRANCH  16  38
HETATM   38  C   UNL     1      40.818  17.652  31.038  1.00  0.00     0.016 C 
HETATM   39  C   UNL     1      40.536  19.140  31.232  1.00  0.00     0.012 C 
HETATM   40  C   UNL     1      40.439  16.867  32.292  1.00  0.00     0.012 C 
ENDBRANCH  16  38
BRANCH  18  41
HETATM   41  C   UNL     1      44.007  12.405  35.855  1.00  0.00     0.016 C 
HETATM   42  C   UNL     1      44.781  13.172  36.924  1.00  0.00     0.012 C 
HETATM   43  C   UNL     1      44.539  10.979  35.725  1.00  0.00     0.012 C 
ENDBRANCH  18  41
BRANCH  15  44
HETATM   44  C   UNL     1      45.417  17.635  34.292  1.00  0.00     0.010 C 
HETATM   45  C   UNL     1      45.243  18.502  35.536  1.00  0.00     0.012 C 
HETATM   46  C   UNL     1      45.931  18.468  33.122  1.00  0.00     0.012 C 
ENDBRANCH  15  44
TORSDOF 7
ENDMDL
MODEL 7
REMARK VINA RESULT:    -5.483      2.416      4.016
REMARK INTER + INTRA:          -6.734
REMARK INTER:                  -7.436
REMARK INTRA:                   0.702
REMARK UNBOUND:                 0.993
REMARK  7 active torsions:
REMARK  status: ('A' for Active; 'I' for Inactive)
REMARK    1  A    between atoms: C_13  and  C_14 
REMARK    2  A    between atoms: C_14  and  C_19 
REMARK    3  A    between atoms: C_15  and  C_20 
REMARK    4  A    between atoms: C_16  and  C_21 
REMARK    5  A    between atoms: C_17  and  C_23 
REMARK    6  A    between atoms: C_18  and  C_26 
REMARK    7  A    between atoms: C_22  and  C_28 
ROOT
HETATM    1  O   UNL     1      44.804  15.737  28.879  1.00  0.00    -0.304 OA
HETATM    2  O   UNL     1      40.793  15.870  32.223  1.00  0.00    -0.304 OA
HETATM    3  O   UNL     1      41.991  11.672  30.409  1.00  0.00    -0.304 OA
HETATM    4  O   UNL     1      41.795  17.313  29.555  1.00  0.00    -0.270 OA
HETATM    5  O   UNL     1      44.865  15.115  31.099  1.00  0.00    -0.263 OA
HETATM    6  O   UNL     1      42.481  14.677  28.435  1.00  0.00    -0.270 OA
HETATM    7  O   UNL     1      39.380  12.021  32.299  1.00  0.00    -0.270 OA
HETATM    8  O   UNL     1      39.589  16.495  34.077  1.00  0.00    -0.263 OA
HETATM    9  O   UNL     1      39.915  11.438  29.442  1.00  0.00    -0.263 OA
HETATM   10  N   UNL     1      43.232  17.426  31.374  1.00  0.00    -0.340 N 
HETATM   11  N   UNL     1      43.186  12.485  28.212  1.00  0.00    -0.340 N 
HETATM   12  N   UNL     1      41.154  13.338  33.028  1.00  0.00    -0.340 N 
HETATM   13  C   UNL     1      44.408  17.424  30.479  1.00  0.00     0.190 C 
HETATM   14  C   UNL     1      41.788  12.033  28.044  1.00  0.00     0.190 C 
HETATM   15  C   UNL     1      40.283  14.190  33.866  1.00  0.00     0.190 C 
HETATM   16  C   UNL     1      40.753  17.215  31.706  1.00  0.00     0.227 C 
HETATM   17  C   UNL     1      44.853  14.360  28.444  1.00  0.00     0.227 C 
HETATM   18  C   UNL     1      41.577  11.244  31.719  1.00  0.00     0.227 C 
HETATM   19  C   UNL     1      41.961  17.325  30.780  1.00  0.00     0.250 C 
HETATM   20  C   UNL     1      44.731  15.961  30.224  1.00  0.00     0.283 C 
HETATM   21  C   UNL     1      43.407  13.861  28.368  1.00  0.00     0.250 C 
HETATM   22  C   UNL     1      40.595  12.234  32.363  1.00  0.00     0.250 C 
HETATM   23  C   UNL     1      40.187  15.647  33.422  1.00  0.00     0.283 C 
HETATM   24  C   UNL     1      41.112  11.696  29.371  1.00  0.00     0.283 C 
HETATM   25  C   UNL     1      43.472  17.496  32.819  1.00  0.00     0.153 C 
HETATM   26  C   UNL     1      44.237  11.465  28.241  1.00  0.00     0.153 C 
HETATM   27  C   UNL     1      42.595  13.587  33.081  1.00  0.00     0.153 C 
ENDROOT
BRANCH  17  28
HETATM   28  C   UNL     1      45.495  14.357  27.064  1.00  0.00     0.016 C 
HETATM   29  C   UNL     1      45.364  15.729  26.405  1.00  0.00     0.012 C 
HETATM   30  C   UNL     1      46.964  13.945  27.154  1.00  0.00     0.012 C 
ENDBRANCH  17  28
BRANCH  13  31
HETATM   31  C   UNL     1      45.643  18.153  30.996  1.00  0.00     0.014 C 
HETATM   32  C   UNL     1      46.831  17.881  30.073  1.00  0.00     0.012 C 
BRANCH  31  33
HETATM   33  C   UNL     1      45.344  19.657  31.136  1.00  0.00     0.002 C 
HETATM   34  C   UNL     1      46.378  20.551  30.465  1.00  0.00     0.005 C 
ENDBRANCH  31  33
ENDBRANCH  13  31
BRANCH  14  35
HETATM   35  C   UNL     1      41.633  10.861  27.075  1.00  0.00     0.010 C 
HETATM   36  C   UNL     1      41.310   9.574  27.831  1.00  0.00     0.012 C 
HETATM   37  C   UNL     1      40.549  11.158  26.038  1.00  0.00     0.012 C 
ENDBRANCH  14  35
BRANCH  16  38
HETATM   38  C   UNL     1      39.442  17.410  30.949  1.00  0.00     0.016 C 
HETATM   39  C   UNL     1      38.534  18.392  31.686  1.00  0.00     0.012 C 
HETATM   40  C   UNL     1      38.732  16.072  30.747  1.00  0.00     0.012 C 
ENDBRANCH  16  38
BRANCH  18  41
HETATM   41  C   UNL     1      41.047   9.810  31.706  1.00  0.00     0.016 C 
HETATM   42  C   UNL     1      40.578   9.399  33.100  1.00  0.00     0.012 C 
HETATM   43  C   UNL     1      42.116   8.848  31.194  1.00  0.00     0.012 C 
ENDBRANCH  18  41
BRANCH  15  44
HETATM   44  C   UNL     1      40.675  14.104  35.341  1.00  0.00     0.010 C 
HETATM   45  C   UNL     1      39.438  13.898  36.212  1.00  0.00     0.012 C 
HETATM   46  C   UNL     1      41.431  15.359  35.766  1.00  0.00     0.012 C 
ENDBRANCH  15  44
TORSDOF 7
ENDMDL
MODEL 8
REMARK VINA RESULT:    -5.441     15.678     20.354
REMARK INTER + INTRA:          -6.675
REMARK INTER:                  -8.537
REMARK INTRA:                   1.862
REMARK UNBOUND:                 0.993
REMARK  7 active torsions:
REMARK  status: ('A' for Active; 'I' for Inactive)
REMARK    1  A    between atoms: C_13  and  C_14 
REMARK    2  A    between atoms: C_14  and  C_19 
REMARK    3  A    between atoms: C_15  and  C_20 
REMARK    4  A    between atoms: C_16  and  C_21 
REMARK    5  A    between atoms: C_17  and  C_23 
REMARK    6  A    between atoms: C_18  and  C_26 
REMARK    7  A    between atoms: C_22  and  C_28 
ROOT
HETATM    1  O   UNL     1      59.732  13.258  22.964  1.00  0.00    -0.304 OA
HETATM    2  O   UNL     1      62.978  10.254  25.743  1.00  0.00    -0.304 OA
HETATM    3  O   UNL     1      58.339   9.730  26.484  1.00  0.00    -0.304 OA
HETATM    4  O   UNL     1      62.520  13.331  25.018  1.00  0.00    -0.270 OA
HETATM    5  O   UNL     1      60.208  11.038  22.562  1.00  0.00    -0.263 OA
HETATM    6  O   UNL     1      59.642  12.983  25.539  1.00  0.00    -0.270 OA
HETATM    7  O   UNL     1      60.532   8.154  28.277  1.00  0.00    -0.270 OA
HETATM    8  O   UNL     1      64.799   8.920  26.173  1.00  0.00    -0.263 OA
HETATM    9  O   UNL     1      58.570  10.336  28.692  1.00  0.00    -0.263 OA
HETATM   10  N   UNL     1      62.836  11.898  23.220  1.00  0.00    -0.340 N 
HETATM   11  N   UNL     1      57.511  12.091  25.674  1.00  0.00    -0.340 N 
HETATM   12  N   UNL     1      61.180   8.289  26.047  1.00  0.00    -0.340 N 
HETATM   13  C   UNL     1      61.952  12.725  22.372  1.00  0.00     0.190 C 
HETATM   14  C   UNL     1      57.649  11.935  27.138  1.00  0.00     0.190 C 
HETATM   15  C   UNL     1      62.588   7.960  26.352  1.00  0.00     0.190 C 
HETATM   16  C   UNL     1      63.832  11.381  25.465  1.00  0.00     0.227 C 
HETATM   17  C   UNL     1      58.423  12.932  23.481  1.00  0.00     0.227 C 
HETATM   18  C   UNL     1      58.755   8.366  26.676  1.00  0.00     0.227 C 
HETATM   19  C   UNL     1      63.010  12.293  24.558  1.00  0.00     0.250 C 
HETATM   20  C   UNL     1      60.543  12.214  22.623  1.00  0.00     0.283 C 
HETATM   21  C   UNL     1      58.584  12.670  24.981  1.00  0.00     0.250 C 
HETATM   22  C   UNL     1      60.232   8.268  27.085  1.00  0.00     0.250 C 
HETATM   23  C   UNL     1      63.587   9.080  26.070  1.00  0.00     0.283 C 
HETATM   24  C   UNL     1      58.253  10.589  27.535  1.00  0.00     0.283 C 
HETATM   25  C   UNL     1      63.441  10.705  22.619  1.00  0.00     0.153 C 
HETATM   26  C   UNL     1      56.284  11.598  25.045  1.00  0.00     0.153 C 
HETATM   27  C   UNL     1      60.811   8.443  24.639  1.00  0.00     0.153 C 
ENDROOT
BRANCH  17  28
HETATM   28  C   UNL     1      57.539  14.147  23.240  1.00  0.00     0.016 C 
HETATM   29  C   UNL     1      58.372  15.332  22.752  1.00  0.00     0.012 C 
HETATM   30  C   UNL     1      56.434  13.820  22.236  1.00  0.00     0.012 C 
ENDBRANCH  17  28
BRANCH  13  31
HETATM   31  C   UNL     1      62.258  12.715  20.879  1.00  0.00     0.014 C 
HETATM   32  C   UNL     1      60.981  12.996  20.085  1.00  0.00     0.012 C 
BRANCH  31  33
HETATM   33  C   UNL     1      63.375  13.725  20.565  1.00  0.00     0.002 C 
HETATM   34  C   UNL     1      63.346  14.965  21.448  1.00  0.00     0.005 C 
ENDBRANCH  31  33
ENDBRANCH  13  31
BRANCH  14  35
HETATM   35  C   UNL     1      56.347  12.161  27.906  1.00  0.00     0.010 C 
HETATM   36  C   UNL     1      55.988  13.645  27.934  1.00  0.00     0.012 C 
HETATM   37  C   UNL     1      55.209  11.347  27.292  1.00  0.00     0.012 C 
ENDBRANCH  14  35
BRANCH  16  38
HETATM   38  C   UNL     1      64.184  12.065  26.784  1.00  0.00     0.016 C 
HETATM   39  C   UNL     1      62.923  12.569  27.484  1.00  0.00     0.012 C 
HETATM   40  C   UNL     1      65.162  13.216  26.550  1.00  0.00     0.012 C 
ENDBRANCH  16  38
BRANCH  18  41
HETATM   41  C   UNL     1      57.827   7.619  27.634  1.00  0.00     0.016 C 
HETATM   42  C   UNL     1      58.256   6.160  27.767  1.00  0.00     0.012 C 
HETATM   43  C   UNL     1      56.379   7.712  27.159  1.00  0.00     0.012 C 
ENDBRANCH  18  41
BRANCH  15  44
HETATM   44  C   UNL     1      63.021   6.669  25.656  1.00  0.00     0.010 C 
HETATM   45  C   UNL     1      63.740   5.748  26.638  1.00  0.00     0.012 C 
HETATM   46  C   UNL     1      63.913   6.981  24.458  1.00  0.00     0.012 C 
ENDBRANCH  15  44
TORSDOF 7
ENDMDL
MODEL 9
REMARK VINA RESULT:    -5.391     15.542     20.714
REMARK INTER + INTRA:          -6.604
REMARK INTER:                  -7.547
REMARK INTRA:                   0.943
REMARK UNBOUND:                 0.993
REMARK  7 active torsions:
REMARK  status: ('A' for Active; 'I' for Inactive)
REMARK    1  A    between atoms: C_13  and  C_14 
REMARK    2  A    between atoms: C_14  and  C_19 
REMARK    3  A    between atoms: C_15  and  C_20 
REMARK    4  A    between atoms: C_16  and  C_21 
REMARK    5  A    between atoms: C_17  and  C_23 
REMARK    6  A    between atoms: C_18  and  C_26 
REMARK    7  A    between atoms: C_22  and  C_28 
ROOT
HETATM    1  O   UNL     1      58.401  10.120  26.352  1.00  0.00    -0.304 OA
HETATM    2  O   UNL     1      63.159  11.149  24.458  1.00  0.00    -0.304 OA
HETATM    3  O   UNL     1      60.397  14.826  25.550  1.00  0.00    -0.304 OA
HETATM    4  O   UNL     1      60.574   9.412  23.750  1.00  0.00    -0.270 OA
HETATM    5  O   UNL     1      60.241  10.772  27.581  1.00  0.00    -0.263 OA
HETATM    6  O   UNL     1      58.885  11.739  24.388  1.00  0.00    -0.270 OA
HETATM    7  O   UNL     1      63.281  15.234  24.125  1.00  0.00    -0.270 OA
HETATM    8  O   UNL     1      65.426  10.919  24.161  1.00  0.00    -0.263 OA
HETATM    9  O   UNL     1      60.434  15.568  23.371  1.00  0.00    -0.263 OA
HETATM   10  N   UNL     1      61.556   8.981  25.808  1.00  0.00    -0.340 N 
HETATM   11  N   UNL     1      58.047  13.661  25.365  1.00  0.00    -0.340 N 
HETATM   12  N   UNL     1      63.331  13.520  25.698  1.00  0.00    -0.340 N 
HETATM   13  C   UNL     1      60.242   8.647  26.395  1.00  0.00     0.190 C 
HETATM   14  C   UNL     1      58.454  14.459  24.188  1.00  0.00     0.190 C 
HETATM   15  C   UNL     1      64.586  12.953  25.159  1.00  0.00     0.190 C 
HETATM   16  C   UNL     1      62.922   9.846  23.888  1.00  0.00     0.227 C 
HETATM   17  C   UNL     1      57.790  11.422  26.491  1.00  0.00     0.227 C 
HETATM   18  C   UNL     1      61.674  15.389  25.903  1.00  0.00     0.227 C 
HETATM   19  C   UNL     1      61.583   9.394  24.464  1.00  0.00     0.250 C 
HETATM   20  C   UNL     1      59.654   9.965  26.871  1.00  0.00     0.283 C 
HETATM   21  C   UNL     1      58.292  12.281  25.327  1.00  0.00     0.250 C 
HETATM   22  C   UNL     1      62.828  14.712  25.149  1.00  0.00     0.250 C 
HETATM   23  C   UNL     1      64.454  11.560  24.550  1.00  0.00     0.283 C 
HETATM   24  C   UNL     1      59.876  15.003  24.306  1.00  0.00     0.283 C 
HETATM   25  C   UNL     1      62.736   8.895  26.676  1.00  0.00     0.153 C 
HETATM   26  C   UNL     1      57.452  14.369  26.500  1.00  0.00     0.153 C 
HETATM   27  C   UNL     1      62.773  12.903  26.902  1.00  0.00     0.153 C 
ENDROOT
BRANCH  17  28
HETATM   28  C   UNL     1      56.285  11.214  26.394  1.00  0.00     0.016 C 
HETATM   29  C   UNL     1      55.953   9.728  26.262  1.00  0.00     0.012 C 
HETATM   30  C   UNL     1      55.579  11.814  27.610  1.00  0.00     0.012 C 
ENDBRANCH  17  28
BRANCH  13  31
HETATM   31  C   UNL     1      60.257   7.635  27.535  1.00  0.00     0.014 C 
HETATM   32  C   UNL     1      59.014   7.815  28.407  1.00  0.00     0.012 C 
BRANCH  31  33
HETATM   33  C   UNL     1      60.372   6.208  26.969  1.00  0.00     0.002 C 
HETATM   34  C   UNL     1      59.191   5.314  27.320  1.00  0.00     0.005 C 
ENDBRANCH  31  33
ENDBRANCH  13  31
BRANCH  14  35
HETATM   35  C   UNL     1      57.493  15.600  23.856  1.00  0.00     0.010 C 
HETATM   36  C   UNL     1      58.148  16.954  24.122  1.00  0.00     0.012 C 
HETATM   37  C   UNL     1      57.026  15.509  22.404  1.00  0.00     0.012 C 
ENDBRANCH  14  35
BRANCH  16  38
HETATM   38  C   UNL     1      62.867   9.980  22.369  1.00  0.00     0.016 C 
HETATM   39  C   UNL     1      64.070   9.294  21.723  1.00  0.00     0.012 C 
HETATM   40  C   UNL     1      62.805  11.450  21.958  1.00  0.00     0.012 C 
ENDBRANCH  16  38
BRANCH  18  41
HETATM   41  C   UNL     1      61.685  16.910  25.757  1.00  0.00     0.016 C 
HETATM   42  C   UNL     1      63.061  17.473  26.104  1.00  0.00     0.012 C 
HETATM   43  C   UNL     1      60.608  17.541  26.637  1.00  0.00     0.012 C 
ENDBRANCH  18  41
BRANCH  15  44
HETATM   44  C   UNL     1      65.701  12.978  26.205  1.00  0.00     0.010 C 
HETATM   45  C   UNL     1      65.594  14.230  27.071  1.00  0.00     0.012 C 
HETATM   46  C   UNL     1      67.067  12.905  25.530  1.00  0.00     0.012 C 
ENDBRANCH  15  44
TORSDOF 7
ENDMDL
MODEL 10
REMARK VINA RESULT:    -5.171      7.313     11.869
REMARK INTER + INTRA:          -6.295
REMARK INTER:                  -7.170
REMARK INTRA:                   0.876
REMARK UNBOUND:                 0.993
REMARK  7 active torsions:
REMARK  status: ('A' for Active; 'I' for Inactive)
REMARK    1  A    between atoms: C_13  and  C_14 
REMARK    2  A    between atoms: C_14  and  C_19 
REMARK    3  A    between atoms: C_15  and  C_20 
REMARK    4  A    between atoms: C_16  and  C_21 
REMARK    5  A    between atoms: C_17  and  C_23 
REMARK    6  A    between atoms: C_18  and  C_26 
REMARK    7  A    between atoms: C_22  and  C_28 
ROOT
HETATM    1  O   UNL     1      52.518  21.280  35.168  1.00  0.00    -0.304 OA
HETATM    2  O   UNL     1      51.431  18.325  30.999  1.00  0.00    -0.304 OA
HETATM    3  O   UNL     1      55.304  21.029  30.814  1.00  0.00    -0.304 OA
HETATM    4  O   UNL     1      50.023  20.465  32.907  1.00  0.00    -0.270 OA
HETATM    5  O   UNL     1      53.536  19.287  34.612  1.00  0.00    -0.263 OA
HETATM    6  O   UNL     1      52.433  22.150  32.728  1.00  0.00    -0.270 OA
HETATM    7  O   UNL     1      54.307  19.316  28.249  1.00  0.00    -0.270 OA
HETATM    8  O   UNL     1      50.751  16.471  29.825  1.00  0.00    -0.263 OA
HETATM    9  O   UNL     1      54.479  22.179  28.999  1.00  0.00    -0.263 OA
HETATM   10  N   UNL     1      50.866  18.571  33.951  1.00  0.00    -0.340 N 
HETATM   11  N   UNL     1      54.631  22.856  32.580  1.00  0.00    -0.340 N 
HETATM   12  N   UNL     1      53.996  18.149  30.237  1.00  0.00    -0.340 N 
HETATM   13  C   UNL     1      51.168  19.346  35.172  1.00  0.00     0.190 C 
HETATM   14  C   UNL     1      54.433  23.238  31.165  1.00  0.00     0.190 C 
HETATM   15  C   UNL     1      53.048  17.195  29.623  1.00  0.00     0.190 C 
HETATM   16  C   UNL     1      50.113  18.492  31.557  1.00  0.00     0.227 C 
HETATM   17  C   UNL     1      53.680  22.039  34.766  1.00  0.00     0.227 C 
HETATM   18  C   UNL     1      55.778  19.902  30.054  1.00  0.00     0.227 C 
HETATM   19  C   UNL     1      50.323  19.266  32.856  1.00  0.00     0.250 C 
HETATM   20  C   UNL     1      52.554  19.931  34.957  1.00  0.00     0.283 C 
HETATM   21  C   UNL     1      53.524  22.346  33.274  1.00  0.00     0.250 C 
HETATM   22  C   UNL     1      54.623  19.109  29.424  1.00  0.00     0.250 C 
HETATM   23  C   UNL     1      51.621  17.269  30.160  1.00  0.00     0.283 C 
HETATM   24  C   UNL     1      54.721  22.092  30.198  1.00  0.00     0.283 C 
HETATM   25  C   UNL     1      51.187  17.140  33.951  1.00  0.00     0.153 C 
HETATM   26  C   UNL     1      55.973  23.002  33.148  1.00  0.00     0.153 C 
HETATM   27  C   UNL     1      54.370  17.927  31.634  1.00  0.00     0.153 C 
ENDROOT
BRANCH  17  28
HETATM   28  C   UNL     1      53.672  23.323  35.583  1.00  0.00     0.016 C 
HETATM   29  C   UNL     1      52.328  24.038  35.449  1.00  0.00     0.012 C 
HETATM   30  C   UNL     1      53.978  23.030  37.051  1.00  0.00     0.012 C 
ENDBRANCH  17  28
BRANCH  13  31
HETATM   31  C   UNL     1      51.121  18.571  36.484  1.00  0.00     0.014 C 
HETATM   32  C   UNL     1      51.907  19.323  37.560  1.00  0.00     0.012 C 
BRANCH  31  33
HETATM   33  C   UNL     1      49.659  18.322  36.895  1.00  0.00     0.002 C 
HETATM   34  C   UNL     1      49.385  16.896  37.350  1.00  0.00     0.005 C 
ENDBRANCH  31  33
ENDBRANCH  13  31
BRANCH  14  35
HETATM   35  C   UNL     1      55.223  24.477  30.746  1.00  0.00     0.010 C 
HETATM   36  C   UNL     1      56.335  24.103  29.768  1.00  0.00     0.012 C 
HETATM   37  C   UNL     1      54.298  25.525  30.128  1.00  0.00     0.012 C 
ENDBRANCH  14  35
BRANCH  16  38
HETATM   38  C   UNL     1      49.257  19.275  30.565  1.00  0.00     0.016 C 
HETATM   39  C   UNL     1      48.105  18.414  30.050  1.00  0.00     0.012 C 
HETATM   40  C   UNL     1      50.108  19.783  29.402  1.00  0.00     0.012 C 
ENDBRANCH  16  38
BRANCH  18  41
HETATM   41  C   UNL     1      56.839  20.311  29.033  1.00  0.00     0.016 C 
HETATM   42  C   UNL     1      57.282  19.106  28.207  1.00  0.00     0.012 C 
HETATM   43  C   UNL     1      58.036  20.953  29.732  1.00  0.00     0.012 C 
ENDBRANCH  18  41
BRANCH  15  44
HETATM   44  C   UNL     1      53.576  15.762  29.698  1.00  0.00     0.010 C 
HETATM   45  C   UNL     1      55.091  15.759  29.875  1.00  0.00     0.012 C 
HETATM   46  C   UNL     1      53.176  14.981  28.450  1.00  0.00     0.012 C 
ENDBRANCH  15  44
TORSDOF 7
ENDMDL
MODEL 11
REMARK VINA RESULT:    -5.152      5.606     11.646
REMARK INTER + INTRA:          -6.267
REMARK INTER:                  -6.948
REMARK INTRA:                   0.681
REMARK UNBOUND:                 0.993
REMARK  7 active torsions:
REMARK  status: ('A' for Active; 'I' for Inactive)
REMARK    1  A    between atoms: C_13  and  C_14 
REMARK    2  A    between atoms: C_14  and  C_19 
REMARK    3  A    between atoms: C_15  and  C_20 
REMARK    4  A    between atoms: C_16  and  C_21 
REMARK    5  A    between atoms: C_17  and  C_23 
REMARK    6  A    between atoms: C_18  and  C_26 
REMARK    7  A    between atoms: C_22  and  C_28 
ROOT
HETATM    1  O   UNL     1      48.351  18.132  34.191  1.00  0.00    -0.304 OA
HETATM    2  O   UNL     1      52.172  18.689  30.673  1.00  0.00    -0.304 OA
HETATM    3  O   UNL     1      53.422  17.690  35.121  1.00  0.00    -0.304 OA
HETATM    4  O   UNL     1      49.594  20.242  31.741  1.00  0.00    -0.270 OA
HETATM    5  O   UNL     1      49.523  16.425  33.176  1.00  0.00    -0.263 OA
HETATM    6  O   UNL     1      50.430  19.648  34.502  1.00  0.00    -0.270 OA
HETATM    7  O   UNL     1      55.635  18.327  32.839  1.00  0.00    -0.270 OA
HETATM    8  O   UNL     1      53.251  18.487  28.654  1.00  0.00    -0.263 OA
HETATM    9  O   UNL     1      54.611  19.655  35.284  1.00  0.00    -0.263 OA
HETATM   10  N   UNL     1      49.223  18.108  30.906  1.00  0.00    -0.340 N 
HETATM   11  N   UNL     1      51.294  18.596  36.373  1.00  0.00    -0.340 N 
HETATM   12  N   UNL     1      53.862  17.080  31.995  1.00  0.00    -0.340 N 
HETATM   13  C   UNL     1      48.110  17.902  31.856  1.00  0.00     0.190 C 
HETATM   14  C   UNL     1      52.461  19.504  36.367  1.00  0.00     0.190 C 
HETATM   15  C   UNL     1      54.200  17.399  30.592  1.00  0.00     0.190 C 
HETATM   16  C   UNL     1      51.141  19.498  30.075  1.00  0.00     0.227 C 
HETATM   17  C   UNL     1      49.050  17.932  35.439  1.00  0.00     0.227 C 
HETATM   18  C   UNL     1      54.455  16.967  34.427  1.00  0.00     0.227 C 
HETATM   19  C   UNL     1      49.922  19.326  30.978  1.00  0.00     0.250 C 
HETATM   20  C   UNL     1      48.746  17.370  33.129  1.00  0.00     0.283 C 
HETATM   21  C   UNL     1      50.313  18.796  35.391  1.00  0.00     0.250 C 
HETATM   22  C   UNL     1      54.707  17.533  33.022  1.00  0.00     0.250 C 
HETATM   23  C   UNL     1      53.160  18.236  29.852  1.00  0.00     0.283 C 
HETATM   24  C   UNL     1      53.617  18.976  35.519  1.00  0.00     0.283 C 
HETATM   25  C   UNL     1      49.544  17.018  29.980  1.00  0.00     0.153 C 
HETATM   26  C   UNL     1      51.260  17.530  37.376  1.00  0.00     0.153 C 
HETATM   27  C   UNL     1      52.755  16.152  32.230  1.00  0.00     0.153 C 
ENDROOT
BRANCH  17  28
HETATM   28  C   UNL     1      48.118  18.405  36.546  1.00  0.00     0.016 C 
HETATM   29  C   UNL     1      46.905  19.125  35.959  1.00  0.00     0.012 C 
HETATM   30  C   UNL     1      47.673  17.229  37.415  1.00  0.00     0.012 C 
ENDBRANCH  17  28
BRANCH  13  31
HETATM   31  C   UNL     1      47.000  16.965  31.391  1.00  0.00     0.014 C 
HETATM   32  C   UNL     1      46.568  16.059  32.545  1.00  0.00     0.012 C 
BRANCH  31  33
HETATM   33  C   UNL     1      45.828  17.783  30.820  1.00  0.00     0.002 C 
HETATM   34  C   UNL     1      45.806  19.231  31.289  1.00  0.00     0.005 C 
ENDBRANCH  31  33
ENDBRANCH  13  31
BRANCH  14  35
HETATM   35  C   UNL     1      52.969  19.862  37.764  1.00  0.00     0.010 C 
HETATM   36  C   UNL     1      54.359  19.274  38.000  1.00  0.00     0.012 C 
HETATM   37  C   UNL     1      52.990  21.378  37.959  1.00  0.00     0.012 C 
ENDBRANCH  14  35
BRANCH  16  38
HETATM   38  C   UNL     1      51.616  20.948  30.038  1.00  0.00     0.016 C 
HETATM   39  C   UNL     1      51.845  21.405  28.599  1.00  0.00     0.012 C 
HETATM   40  C   UNL     1      52.891  21.118  30.863  1.00  0.00     0.012 C 
ENDBRANCH  16  38
BRANCH  18  41
HETATM   41  C   UNL     1      55.732  16.862  35.260  1.00  0.00     0.016 C 
HETATM   42  C   UNL     1      56.823  16.133  34.479  1.00  0.00     0.012 C 
HETATM   43  C   UNL     1      55.453  16.152  36.583  1.00  0.00     0.012 C 
ENDBRANCH  18  41
BRANCH  15  44
HETATM   44  C   UNL     1      54.532  16.133  29.800  1.00  0.00     0.010 C 
HETATM   45  C   UNL     1      55.731  16.373  28.887  1.00  0.00     0.012 C 
HETATM   46  C   UNL     1      53.321  15.678  28.991  1.00  0.00     0.012 C 
ENDBRANCH  15  44
TORSDOF 7
ENDMDL
MODEL 12
REMARK VINA RESULT:    -5.122      2.593      4.426
REMARK INTER + INTRA:          -6.226
REMARK INTER:                  -7.224
REMARK INTRA:                   0.998
REMARK UNBOUND:                 0.993
REMARK  7 active torsions:
REMARK  status: ('A' for Active; 'I' for Inactive)
REMARK    1  A    between atoms: C_13  and  C_14 
REMARK    2  A    between atoms: C_14  and  C_19 
REMARK    3  A    between atoms: C_15  and  C_20 
REMARK    4  A    between atoms: C_16  and  C_21 
REMARK    5  A    between atoms: C_17  and  C_23 
REMARK    6  A    between atoms: C_18  and  C_26 
REMARK    7  A    between atoms: C_22  and  C_28 
ROOT
HETATM    1  O   UNL     1      45.294  16.008  29.031  1.00  0.00    -0.304 OA
HETATM    2  O   UNL     1      43.098  16.100  33.770  1.00  0.00    -0.304 OA
HETATM    3  O   UNL     1      43.199  11.963  31.486  1.00  0.00    -0.304 OA
HETATM    4  O   UNL     1      42.941  17.643  30.978  1.00  0.00    -0.270 OA
HETATM    5  O   UNL     1      46.261  15.274  30.991  1.00  0.00    -0.263 OA
HETATM    6  O   UNL     1      42.952  15.046  29.588  1.00  0.00    -0.270 OA
HETATM    7  O   UNL     1      41.662  12.299  34.320  1.00  0.00    -0.270 OA
HETATM    8  O   UNL     1      42.831  16.669  35.980  1.00  0.00    -0.263 OA
HETATM    9  O   UNL     1      40.900  11.843  31.492  1.00  0.00    -0.263 OA
HETATM   10  N   UNL     1      45.019  17.619  32.011  1.00  0.00    -0.340 N 
HETATM   11  N   UNL     1      43.385  12.847  29.016  1.00  0.00    -0.340 N 
HETATM   12  N   UNL     1      43.640  13.521  34.263  1.00  0.00    -0.340 N 
HETATM   13  C   UNL     1      45.700  17.624  30.700  1.00  0.00     0.190 C 
HETATM   14  C   UNL     1      42.027  12.448  29.447  1.00  0.00     0.190 C 
HETATM   15  C   UNL     1      43.252  14.356  35.419  1.00  0.00     0.190 C 
HETATM   16  C   UNL     1      42.910  17.470  33.364  1.00  0.00     0.227 C 
HETATM   17  C   UNL     1      45.083  14.654  28.573  1.00  0.00     0.227 C 
HETATM   18  C   UNL     1      43.361  11.482  32.832  1.00  0.00     0.227 C 
HETATM   19  C   UNL     1      43.613  17.588  32.014  1.00  0.00     0.250 C 
HETATM   20  C   UNL     1      45.811  16.166  30.285  1.00  0.00     0.283 C 
HETATM   21  C   UNL     1      43.720  14.205  29.107  1.00  0.00     0.250 C 
HETATM   22  C   UNL     1      42.797  12.469  33.866  1.00  0.00     0.250 C 
HETATM   23  C   UNL     1      43.050  15.836  35.106  1.00  0.00     0.283 C 
HETATM   24  C   UNL     1      41.964  12.066  30.924  1.00  0.00     0.283 C 
HETATM   25  C   UNL     1      45.854  17.608  33.217  1.00  0.00     0.153 C 
HETATM   26  C   UNL     1      44.295  11.794  28.561  1.00  0.00     0.153 C 
HETATM   27  C   UNL     1      44.978  13.720  33.703  1.00  0.00     0.153 C 
ENDROOT
BRANCH  17  28
HETATM   28  C   UNL     1      45.077  14.699  27.052  1.00  0.00     0.016 C 
HETATM   29  C   UNL     1      44.706  16.096  26.556  1.00  0.00     0.012 C 
HETATM   30  C   UNL     1      46.435  14.276  26.494  1.00  0.00     0.012 C 
ENDBRANCH  17  28
BRANCH  13  31
HETATM   31  C   UNL     1      47.073  18.287  30.663  1.00  0.00     0.014 C 
HETATM   32  C   UNL     1      48.120  17.287  30.171  1.00  0.00     0.012 C 
BRANCH  31  33
HETATM   33  C   UNL     1      47.021  19.554  29.790  1.00  0.00     0.002 C 
HETATM   34  C   UNL     1      46.383  20.750  30.484  1.00  0.00     0.005 C 
ENDBRANCH  31  33
ENDBRANCH  13  31
BRANCH  14  35
HETATM   35  C   UNL     1      41.416  11.332  28.600  1.00  0.00     0.010 C 
HETATM   36  C   UNL     1      41.325  10.035  29.401  1.00  0.00     0.012 C 
HETATM   37  C   UNL     1      40.036  11.740  28.085  1.00  0.00     0.012 C 
ENDBRANCH  14  35
BRANCH  16  38
HETATM   38  C   UNL     1      41.413  17.744  33.245  1.00  0.00     0.016 C 
HETATM   39  C   UNL     1      40.963  18.749  34.304  1.00  0.00     0.012 C 
HETATM   40  C   UNL     1      40.616  16.446  33.367  1.00  0.00     0.012 C 
ENDBRANCH  16  38
BRANCH  18  41
HETATM   41  C   UNL     1      42.805  10.069  33.002  1.00  0.00     0.016 C 
HETATM   42  C   UNL     1      43.047   9.563  34.422  1.00  0.00     0.012 C 
HETATM   43  C   UNL     1      43.430   9.121  31.981  1.00  0.00     0.012 C 
ENDBRANCH  18  41
BRANCH  15  44
HETATM   44  C   UNL     1      44.230  14.184  36.582  1.00  0.00     0.010 C 
HETATM   45  C   UNL     1      44.792  12.765  36.603  1.00  0.00     0.012 C 
HETATM   46  C   UNL     1      43.547  14.513  37.907  1.00  0.00     0.012 C 
ENDBRANCH  15  44
TORSDOF 7
ENDMDL
MODEL 13
REMARK VINA RESULT:    -5.049     17.400     21.662
REMARK INTER + INTRA:          -6.122
REMARK INTER:                  -7.348
REMARK INTRA:                   1.226
REMARK UNBOUND:                 0.993
REMARK  7 active torsions:
REMARK  status: ('A' for Active; 'I' for Inactive)
REMARK    1  A    between atoms: C_13  and  C_14 
REMARK    2  A    between atoms: C_14  and  C_19 
REMARK    3  A    between atoms: C_15  and  C_20 
REMARK    4  A    between atoms: C_16  and  C_21 
REMARK    5  A    between atoms: C_17  and  C_23 
REMARK    6  A    between atoms: C_18  and  C_26 
REMARK    7  A    between atoms: C_22  and  C_28 
ROOT
HETATM    1  O   UNL     1      61.804   8.011  21.502  1.00  0.00    -0.304 OA
HETATM    2  O   UNL     1      61.926   7.026  26.631  1.00  0.00    -0.304 OA
HETATM    3  O   UNL     1      59.484  10.807  25.187  1.00  0.00    -0.304 OA
HETATM    4  O   UNL     1      63.925   7.370  24.163  1.00  0.00    -0.270 OA
HETATM    5  O   UNL     1      60.118   7.039  22.739  1.00  0.00    -0.263 OA
HETATM    6  O   UNL     1      62.412   9.753  23.321  1.00  0.00    -0.270 OA
HETATM    7  O   UNL     1      59.902  10.158  28.335  1.00  0.00    -0.270 OA
HETATM    8  O   UNL     1      61.893   5.776  28.558  1.00  0.00    -0.263 OA
HETATM    9  O   UNL     1      60.833  12.212  26.412  1.00  0.00    -0.263 OA
HETATM   10  N   UNL     1      62.320   5.708  23.947  1.00  0.00    -0.340 N 
HETATM   11  N   UNL     1      60.698  11.247  22.897  1.00  0.00    -0.340 N 
HETATM   12  N   UNL     1      59.570   8.219  27.094  1.00  0.00    -0.340 N 
HETATM   13  C   UNL     1      62.262   5.917  22.486  1.00  0.00     0.190 C 
HETATM   14  C   UNL     1      61.137  12.100  24.022  1.00  0.00     0.190 C 
HETATM   15  C   UNL     1      60.100   7.347  28.162  1.00  0.00     0.190 C 
HETATM   16  C   UNL     1      63.155   6.402  26.211  1.00  0.00     0.227 C 
HETATM   17  C   UNL     1      61.076   9.254  21.401  1.00  0.00     0.227 C 
HETATM   18  C   UNL     1      58.658  10.414  26.298  1.00  0.00     0.227 C 
HETATM   19  C   UNL     1      63.176   6.540  24.691  1.00  0.00     0.250 C 
HETATM   20  C   UNL     1      61.247   7.026  22.266  1.00  0.00     0.283 C 
HETATM   21  C   UNL     1      61.453  10.098  22.622  1.00  0.00     0.250 C 
HETATM   22  C   UNL     1      59.442   9.598  27.336  1.00  0.00     0.250 C 
HETATM   23  C   UNL     1      61.393   6.614  27.814  1.00  0.00     0.283 C 
HETATM   24  C   UNL     1      60.488  11.710  25.348  1.00  0.00     0.283 C 
HETATM   25  C   UNL     1      61.455   4.675  24.526  1.00  0.00     0.153 C 
HETATM   26  C   UNL     1      59.488  11.639  22.171  1.00  0.00     0.153 C 
HETATM   27  C   UNL     1      59.035   7.572  25.895  1.00  0.00     0.153 C 
ENDROOT
BRANCH  17  28
HETATM   28  C   UNL     1      61.536   9.931  20.118  1.00  0.00     0.016 C 
HETATM   29  C   UNL     1      62.866   9.346  19.646  1.00  0.00     0.012 C 
HETATM   30  C   UNL     1      60.475   9.797  19.026  1.00  0.00     0.012 C 
ENDBRANCH  17  28
BRANCH  13  31
HETATM   31  C   UNL     1      61.897   4.695  21.650  1.00  0.00     0.014 C 
HETATM   32  C   UNL     1      61.355   5.139  20.291  1.00  0.00     0.012 C 
BRANCH  31  33
HETATM   33  C   UNL     1      63.117   3.766  21.517  1.00  0.00     0.002 C 
HETATM   34  C   UNL     1      62.834   2.323  21.911  1.00  0.00     0.005 C 
ENDBRANCH  31  33
ENDBRANCH  13  31
BRANCH  14  35
HETATM   35  C   UNL     1      60.942  13.595  23.773  1.00  0.00     0.010 C 
HETATM   36  C   UNL     1      59.823  14.148  24.653  1.00  0.00     0.012 C 
HETATM   37  C   UNL     1      62.243  14.359  24.021  1.00  0.00     0.012 C 
ENDBRANCH  14  35
BRANCH  16  38
HETATM   38  C   UNL     1      64.325   7.137  26.860  1.00  0.00     0.016 C 
HETATM   39  C   UNL     1      64.302   8.619  26.492  1.00  0.00     0.012 C 
HETATM   40  C   UNL     1      65.654   6.504  26.451  1.00  0.00     0.012 C 
ENDBRANCH  16  38
BRANCH  18  41
HETATM   41  C   UNL     1      57.928  11.607  26.913  1.00  0.00     0.016 C 
HETATM   42  C   UNL     1      57.083  11.163  28.105  1.00  0.00     0.012 C 
HETATM   43  C   UNL     1      57.059  12.302  25.868  1.00  0.00     0.012 C 
ENDBRANCH  18  41
BRANCH  15  44
HETATM   44  C   UNL     1      59.040   6.360  28.651  1.00  0.00     0.010 C 
HETATM   45  C   UNL     1      58.676   5.374  27.545  1.00  0.00     0.012 C 
HETATM   46  C   UNL     1      57.800   7.106  29.137  1.00  0.00     0.012 C 
ENDBRANCH  15  44
TORSDOF 7
ENDMDL
MODEL 14
REMARK VINA RESULT:    -4.981      2.434      6.929
REMARK INTER + INTRA:          -6.026
REMARK INTER:                  -7.006
REMARK INTRA:                   0.979
REMARK UNBOUND:                 0.993
REMARK  7 active torsions:
REMARK  status: ('A' for Active; 'I' for Inactive)
REMARK    1  A    between atoms: C_13  and  C_14 
REMARK    2  A    between atoms: C_14  and  C_19 
REMARK    3  A    between atoms: C_15  and  C_20 
REMARK    4  A    between atoms: C_16  and  C_21 
REMARK    5  A    between atoms: C_17  and  C_23 
REMARK    6  A    between atoms: C_18  and  C_26 
REMARK    7  A    between atoms: C_22  and  C_28 
ROOT
HETATM    1  O   UNL     1      41.676  14.918  32.565  1.00  0.00    -0.304 OA
HETATM    2  O   UNL     1      46.150  15.162  35.251  1.00  0.00    -0.304 OA
HETATM    3  O   UNL     1      46.104  17.018  30.904  1.00  0.00    -0.304 OA
HETATM    4  O   UNL     1      43.949  13.023  34.365  1.00  0.00    -0.270 OA
HETATM    5  O   UNL     1      42.506  16.772  33.657  1.00  0.00    -0.263 OA
HETATM    6  O   UNL     1      43.984  14.170  31.653  1.00  0.00    -0.270 OA
HETATM    7  O   UNL     1      48.835  16.833  32.642  1.00  0.00    -0.270 OA
HETATM    8  O   UNL     1      47.527  15.447  37.068  1.00  0.00    -0.263 OA
HETATM    9  O   UNL     1      47.736  15.553  30.204  1.00  0.00    -0.263 OA
HETATM   10  N   UNL     1      43.176  14.821  35.613  1.00  0.00    -0.340 N 
HETATM   11  N   UNL     1      44.104  15.652  29.881  1.00  0.00    -0.340 N 
HETATM   12  N   UNL     1      47.001  17.359  33.973  1.00  0.00    -0.340 N 
HETATM   13  C   UNL     1      41.876  14.783  34.911  1.00  0.00     0.190 C 
HETATM   14  C   UNL     1      45.454  15.157  29.534  1.00  0.00     0.190 C 
HETATM   15  C   UNL     1      47.702  16.998  35.223  1.00  0.00     0.190 C 
HETATM   16  C   UNL     1      45.538  14.007  35.858  1.00  0.00     0.227 C 
HETATM   17  C   UNL     1      42.012  15.471  31.273  1.00  0.00     0.227 C 
HETATM   18  C   UNL     1      47.013  17.939  31.534  1.00  0.00     0.227 C 
HETATM   19  C   UNL     1      44.159  13.898  35.213  1.00  0.00     0.250 C 
HETATM   20  C   UNL     1      42.055  15.634  33.664  1.00  0.00     0.283 C 
HETATM   21  C   UNL     1      43.448  15.043  30.960  1.00  0.00     0.250 C 
HETATM   22  C   UNL     1      47.704  17.317  32.757  1.00  0.00     0.250 C 
HETATM   23  C   UNL     1      47.120  15.798  35.965  1.00  0.00     0.283 C 
HETATM   24  C   UNL     1      46.565  15.913  30.259  1.00  0.00     0.283 C 
HETATM   25  C   UNL     1      43.365  15.840  36.651  1.00  0.00     0.153 C 
HETATM   26  C   UNL     1      43.562  16.766  29.100  1.00  0.00     0.153 C 
HETATM   27  C   UNL     1      45.654  17.919  34.090  1.00  0.00     0.153 C 
ENDROOT
BRANCH  17  28
HETATM   28  C   UNL     1      41.040  14.868  30.269  1.00  0.00     0.016 C 
HETATM   29  C   UNL     1      40.372  13.621  30.848  1.00  0.00     0.012 C 
HETATM   30  C   UNL     1      39.988  15.894  29.853  1.00  0.00     0.012 C 
ENDBRANCH  17  28
BRANCH  13  31
HETATM   31  C   UNL     1      40.671  15.267  35.710  1.00  0.00     0.014 C 
HETATM   32  C   UNL     1      39.574  15.746  34.757  1.00  0.00     0.012 C 
BRANCH  31  33
HETATM   33  C   UNL     1      40.182  14.151  36.650  1.00  0.00     0.002 C 
HETATM   34  C   UNL     1      40.294  12.755  36.053  1.00  0.00     0.005 C 
ENDBRANCH  31  33
ENDBRANCH  13  31
BRANCH  14  35
HETATM   35  C   UNL     1      45.737  15.143  28.032  1.00  0.00     0.010 C 
HETATM   36  C   UNL     1      46.910  14.219  27.712  1.00  0.00     0.012 C 
HETATM   37  C   UNL     1      44.493  14.717  27.252  1.00  0.00     0.012 C 
ENDBRANCH  14  35
BRANCH  16  38
HETATM   38  C   UNL     1      46.399  12.782  35.560  1.00  0.00     0.016 C 
HETATM   39  C   UNL     1      47.030  12.242  36.842  1.00  0.00     0.012 C 
HETATM   40  C   UNL     1      47.478  13.120  34.533  1.00  0.00     0.012 C 
ENDBRANCH  16  38
BRANCH  18  41
HETATM   41  C   UNL     1      48.005  18.533  30.534  1.00  0.00     0.016 C 
HETATM   42  C   UNL     1      48.848  19.620  31.196  1.00  0.00     0.012 C 
HETATM   43  C   UNL     1      47.270  19.090  29.317  1.00  0.00     0.012 C 
ENDBRANCH  18  41
BRANCH  15  44
HETATM   44  C   UNL     1      47.823  18.200  36.160  1.00  0.00     0.010 C 
HETATM   45  C   UNL     1      49.224  18.271  36.761  1.00  0.00     0.012 C 
HETATM   46  C   UNL     1      46.768  18.128  37.259  1.00  0.00     0.012 C 
ENDBRANCH  15  44
TORSDOF 7
ENDMDL
MODEL 15
REMARK VINA RESULT:    -4.812      7.269     12.233
REMARK INTER + INTRA:          -5.789
REMARK INTER:                  -6.692
REMARK INTRA:                   0.903
REMARK UNBOUND:                 0.993
REMARK  7 active torsions:
REMARK  status: ('A' for Active; 'I' for Inactive)
REMARK    1  A    between atoms: C_13  and  C_14 
REMARK    2  A    between atoms: C_14  and  C_19 
REMARK    3  A    between atoms: C_15  and  C_20 
REMARK    4  A    between atoms: C_16  and  C_21 
REMARK    5  A    between atoms: C_17  and  C_23 
REMARK    6  A    between atoms: C_18  and  C_26 
REMARK    7  A    between atoms: C_22  and  C_28 
ROOT
HETATM    1  O   UNL     1      55.941  16.833  35.153  1.00  0.00    -0.304 OA
HETATM    2  O   UNL     1      54.054  17.735  30.366  1.00  0.00    -0.304 OA
HETATM    3  O   UNL     1      50.938  17.196  33.879  1.00  0.00    -0.304 OA
HETATM    4  O   UNL     1      56.084  15.772  31.859  1.00  0.00    -0.270 OA
HETATM    5  O   UNL     1      55.137  18.846  34.367  1.00  0.00    -0.263 OA
HETATM    6  O   UNL     1      54.098  15.417  34.005  1.00  0.00    -0.270 OA
HETATM    7  O   UNL     1      49.983  17.508  30.797  1.00  0.00    -0.270 OA
HETATM    8  O   UNL     1      53.919  18.680  28.276  1.00  0.00    -0.263 OA
HETATM    9  O   UNL     1      50.007  15.363  32.843  1.00  0.00    -0.263 OA
HETATM   10  N   UNL     1      56.547  18.039  32.034  1.00  0.00    -0.340 N 
HETATM   11  N   UNL     1      52.417  15.800  35.547  1.00  0.00    -0.340 N 
HETATM   12  N   UNL     1      51.804  18.873  31.277  1.00  0.00    -0.340 N 
HETATM   13  C   UNL     1      57.123  17.844  33.381  1.00  0.00     0.190 C 
HETATM   14  C   UNL     1      51.465  15.014  34.732  1.00  0.00     0.190 C 
HETATM   15  C   UNL     1      52.129  19.079  29.850  1.00  0.00     0.190 C 
HETATM   16  C   UNL     1      55.321  17.128  30.043  1.00  0.00     0.227 C 
HETATM   17  C   UNL     1      54.761  16.625  35.961  1.00  0.00     0.227 C 
HETATM   18  C   UNL     1      50.227  18.169  33.093  1.00  0.00     0.227 C 
HETATM   19  C   UNL     1      56.016  16.911  31.384  1.00  0.00     0.250 C 
HETATM   20  C   UNL     1      55.955  17.936  34.348  1.00  0.00     0.283 C 
HETATM   21  C   UNL     1      53.737  15.900  35.084  1.00  0.00     0.250 C 
HETATM   22  C   UNL     1      50.656  18.139  31.618  1.00  0.00     0.250 C 
HETATM   23  C   UNL     1      53.466  18.496  29.402  1.00  0.00     0.283 C 
HETATM   24  C   UNL     1      50.730  15.864  33.698  1.00  0.00     0.283 C 
HETATM   25  C   UNL     1      56.536  19.399  31.485  1.00  0.00     0.153 C 
HETATM   26  C   UNL     1      51.909  16.449  36.758  1.00  0.00     0.153 C 
HETATM   27  C   UNL     1      52.602  19.602  32.264  1.00  0.00     0.153 C 
ENDROOT
BRANCH  17  28
HETATM   28  C   UNL     1      55.180  15.749  37.134  1.00  0.00     0.016 C 
HETATM   29  C   UNL     1      55.688  14.395  36.641  1.00  0.00     0.012 C 
HETATM   30  C   UNL     1      56.247  16.447  37.975  1.00  0.00     0.012 C 
ENDBRANCH  17  28
BRANCH  13  31
HETATM   31  C   UNL     1      58.220  18.823  33.787  1.00  0.00     0.014 C 
HETATM   32  C   UNL     1      58.051  19.212  35.256  1.00  0.00     0.012 C 
BRANCH  31  33
HETATM   33  C   UNL     1      59.603  18.210  33.500  1.00  0.00     0.002 C 
HETATM   34  C   UNL     1      60.100  18.457  32.083  1.00  0.00     0.005 C 
ENDBRANCH  31  33
ENDBRANCH  13  31
BRANCH  14  35
HETATM   35  C   UNL     1      50.454  14.222  35.561  1.00  0.00     0.010 C 
HETATM   36  C   UNL     1      49.090  14.910  35.549  1.00  0.00     0.012 C 
HETATM   37  C   UNL     1      50.334  12.789  35.042  1.00  0.00     0.012 C 
ENDBRANCH  14  35
BRANCH  16  38
HETATM   38  C   UNL     1      55.062  15.808  29.321  1.00  0.00     0.016 C 
HETATM   39  C   UNL     1      55.550  15.879  27.875  1.00  0.00     0.012 C 
HETATM   40  C   UNL     1      53.578  15.450  29.368  1.00  0.00     0.012 C 
ENDBRANCH  16  38
BRANCH  18  41
HETATM   41  C   UNL     1      48.714  18.047  33.271  1.00  0.00     0.016 C 
HETATM   42  C   UNL     1      47.982  18.877  32.219  1.00  0.00     0.012 C 
HETATM   43  C   UNL     1      48.303  18.478  34.677  1.00  0.00     0.012 C 
ENDBRANCH  18  41
BRANCH  15  44
HETATM   44  C   UNL     1      52.033  20.557  29.466  1.00  0.00     0.010 C 
HETATM   45  C   UNL     1      51.253  20.721  28.164  1.00  0.00     0.012 C 
HETATM   46  C   UNL     1      53.426  21.167  29.341  1.00  0.00     0.012 C 
ENDBRANCH  15  44
TORSDOF 7
ENDMDL
MODEL 16
REMARK VINA RESULT:    -4.804      8.358     13.199
REMARK INTER + INTRA:          -5.778
REMARK INTER:                  -6.449
REMARK INTRA:                   0.671
REMARK UNBOUND:                 0.993
REMARK  7 active torsions:
REMARK  status: ('A' for Active; 'I' for Inactive)
REMARK    1  A    between atoms: C_13  and  C_14 
REMARK    2  A    between atoms: C_14  and  C_19 
REMARK    3  A    between atoms: C_15  and  C_20 
REMARK    4  A    between atoms: C_16  and  C_21 
REMARK    5  A    between atoms: C_17  and  C_23 
REMARK    6  A    between atoms: C_18  and  C_26 
REMARK    7  A    between atoms: C_22  and  C_28 
ROOT
HETATM    1  O   UNL     1      55.622  22.138  30.435  1.00  0.00    -0.304 OA
HETATM    2  O   UNL     1      52.801  17.745  30.618  1.00  0.00    -0.304 OA
HETATM    3  O   UNL     1      56.108  18.362  33.939  1.00  0.00    -0.304 OA
HETATM    4  O   UNL     1      54.556  19.434  28.551  1.00  0.00    -0.270 OA
HETATM    5  O   UNL     1      53.861  21.712  31.862  1.00  0.00    -0.263 OA
HETATM    6  O   UNL     1      56.620  19.755  30.628  1.00  0.00    -0.270 OA
HETATM    7  O   UNL     1      54.423  15.601  33.714  1.00  0.00    -0.270 OA
HETATM    8  O   UNL     1      50.940  16.405  30.483  1.00  0.00    -0.263 OA
HETATM    9  O   UNL     1      57.221  16.466  33.257  1.00  0.00    -0.263 OA
HETATM   10  N   UNL     1      52.762  20.550  29.512  1.00  0.00    -0.340 N 
HETATM   11  N   UNL     1      57.684  20.035  32.663  1.00  0.00    -0.340 N 
HETATM   12  N   UNL     1      53.096  17.459  33.267  1.00  0.00    -0.340 N 
HETATM   13  C   UNL     1      53.497  21.831  29.459  1.00  0.00     0.190 C 
HETATM   14  C   UNL     1      58.118  18.622  32.652  1.00  0.00     0.190 C 
HETATM   15  C   UNL     1      52.042  16.651  32.620  1.00  0.00     0.190 C 
HETATM   16  C   UNL     1      52.715  18.058  29.214  1.00  0.00     0.227 C 
HETATM   17  C   UNL     1      56.584  21.982  31.501  1.00  0.00     0.227 C 
HETATM   18  C   UNL     1      55.125  17.664  34.725  1.00  0.00     0.227 C 
HETATM   19  C   UNL     1      53.428  19.398  29.057  1.00  0.00     0.250 C 
HETATM   20  C   UNL     1      54.313  21.893  30.739  1.00  0.00     0.283 C 
HETATM   21  C   UNL     1      56.957  20.498  31.556  1.00  0.00     0.250 C 
HETATM   22  C   UNL     1      54.196  16.807  33.852  1.00  0.00     0.250 C 
HETATM   23  C   UNL     1      51.846  16.920  31.130  1.00  0.00     0.283 C 
HETATM   24  C   UNL     1      57.099  17.686  33.298  1.00  0.00     0.283 C 
HETATM   25  C   UNL     1      51.406  20.561  30.070  1.00  0.00     0.153 C 
HETATM   26  C   UNL     1      58.010  20.843  33.840  1.00  0.00     0.153 C 
HETATM   27  C   UNL     1      52.849  18.893  33.424  1.00  0.00     0.153 C 
ENDROOT
BRANCH  17  28
HETATM   28  C   UNL     1      57.794  22.826  31.129  1.00  0.00     0.016 C 
HETATM   29  C   UNL     1      57.819  23.100  29.626  1.00  0.00     0.012 C 
HETATM   30  C   UNL     1      57.798  24.138  31.912  1.00  0.00     0.012 C 
ENDBRANCH  17  28
BRANCH  13  31
HETATM   31  C   UNL     1      52.642  23.086  29.318  1.00  0.00     0.014 C 
HETATM   32  C   UNL     1      53.393  24.292  29.883  1.00  0.00     0.012 C 
BRANCH  31  33
HETATM   33  C   UNL     1      52.240  23.285  27.846  1.00  0.00     0.002 C 
HETATM   34  C   UNL     1      51.790  24.702  27.520  1.00  0.00     0.005 C 
ENDBRANCH  31  33
ENDBRANCH  13  31
BRANCH  14  35
HETATM   35  C   UNL     1      59.494  18.396  33.278  1.00  0.00     0.010 C 
HETATM   36  C   UNL     1      59.366  17.667  34.614  1.00  0.00     0.012 C 
HETATM   37  C   UNL     1      60.398  17.612  32.327  1.00  0.00     0.012 C 
ENDBRANCH  14  35
BRANCH  16  38
HETATM   38  C   UNL     1      53.409  16.953  28.422  1.00  0.00     0.016 C 
HETATM   39  C   UNL     1      52.385  16.093  27.683  1.00  0.00     0.012 C 
HETATM   40  C   UNL     1      54.269  16.089  29.343  1.00  0.00     0.012 C 
ENDBRANCH  16  38
BRANCH  18  41
HETATM   41  C   UNL     1      55.766  16.868  35.861  1.00  0.00     0.016 C 
HETATM   42  C   UNL     1      54.703  16.109  36.651  1.00  0.00     0.012 C 
HETATM   43  C   UNL     1      56.561  17.793  36.780  1.00  0.00     0.012 C 
ENDBRANCH  18  41
BRANCH  15  44
HETATM   44  C   UNL     1      50.712  16.773  33.365  1.00  0.00     0.010 C 
HETATM   45  C   UNL     1      50.129  15.391  33.648  1.00  0.00     0.012 C 
HETATM   46  C   UNL     1      49.727  17.620  32.564  1.00  0.00     0.012 C 
ENDBRANCH  15  44
TORSDOF 7
ENDMDL
MODEL 17
REMARK VINA RESULT:    -4.801     19.117     23.227
REMARK INTER + INTRA:          -5.773
REMARK INTER:                  -7.152
REMARK INTRA:                   1.379
REMARK UNBOUND:                 0.993
REMARK  7 active torsions:
REMARK  status: ('A' for Active; 'I' for Inactive)
REMARK    1  A    between atoms: C_13  and  C_14 
REMARK    2  A    between atoms: C_14  and  C_19 
REMARK    3  A    between atoms: C_15  and  C_20 
REMARK    4  A    between atoms: C_16  and  C_21 
REMARK    5  A    between atoms: C_17  and  C_23 
REMARK    6  A    between atoms: C_18  and  C_26 
REMARK    7  A    between atoms: C_22  and  C_28 
ROOT
HETATM    1  O   UNL     1      60.499   5.177  20.620  1.00  0.00    -0.304 OA
HETATM    2  O   UNL     1      59.542   5.039  25.754  1.00  0.00    -0.304 OA
HETATM    3  O   UNL     1      63.268   7.553  24.290  1.00  0.00    -0.304 OA
HETATM    4  O   UNL     1      59.912   3.045  23.286  1.00  0.00    -0.270 OA
HETATM    5  O   UNL     1      59.502   6.845  21.861  1.00  0.00    -0.263 OA
HETATM    6  O   UNL     1      62.262   4.603  22.432  1.00  0.00    -0.270 OA
HETATM    7  O   UNL     1      62.643   7.124  27.442  1.00  0.00    -0.270 OA
HETATM    8  O   UNL     1      58.300   5.050  27.687  1.00  0.00    -0.263 OA
HETATM    9  O   UNL     1      64.705   6.231  25.509  1.00  0.00    -0.263 OA
HETATM   10  N   UNL     1      58.219   4.619  23.077  1.00  0.00    -0.340 N 
HETATM   11  N   UNL     1      63.721   6.345  21.999  1.00  0.00    -0.340 N 
HETATM   12  N   UNL     1      60.692   7.418  26.209  1.00  0.00    -0.340 N 
HETATM   13  C   UNL     1      58.419   4.679  21.615  1.00  0.00     0.190 C 
HETATM   14  C   UNL     1      64.587   5.923  23.120  1.00  0.00     0.190 C 
HETATM   15  C   UNL     1      59.835   6.872  27.283  1.00  0.00     0.190 C 
HETATM   16  C   UNL     1      58.939   3.798  25.337  1.00  0.00     0.227 C 
HETATM   17  C   UNL     1      61.728   5.928  20.513  1.00  0.00     0.227 C 
HETATM   18  C   UNL     1      62.865   8.372  25.402  1.00  0.00     0.227 C 
HETATM   19  C   UNL     1      59.070   3.779  23.817  1.00  0.00     0.250 C 
HETATM   20  C   UNL     1      59.508   5.716  21.389  1.00  0.00     0.283 C 
HETATM   21  C   UNL     1      62.584   5.568  21.730  1.00  0.00     0.250 C 
HETATM   22  C   UNL     1      62.069   7.573  26.445  1.00  0.00     0.250 C 
HETATM   23  C   UNL     1      59.125   5.565  26.939  1.00  0.00     0.283 C 
HETATM   24  C   UNL     1      64.191   6.566  24.447  1.00  0.00     0.283 C 
HETATM   25  C   UNL     1      57.172   5.464  23.660  1.00  0.00     0.153 C 
HETATM   26  C   UNL     1      64.086   7.562  21.271  1.00  0.00     0.153 C 
HETATM   27  C   UNL     1      60.029   7.940  25.014  1.00  0.00     0.153 C 
ENDROOT
BRANCH  17  28
HETATM   28  C   UNL     1      62.408   5.481  19.227  1.00  0.00     0.016 C 
HETATM   29  C   UNL     1      61.828   4.151  18.745  1.00  0.00     0.012 C 
HETATM   30  C   UNL     1      62.269   6.548  18.143  1.00  0.00     0.012 C 
ENDBRANCH  17  28
BRANCH  13  31
HETATM   31  C   UNL     1      57.187   5.020  20.785  1.00  0.00     0.014 C 
HETATM   32  C   UNL     1      57.591   5.873  19.581  1.00  0.00     0.012 C 
BRANCH  31  33
HETATM   33  C   UNL     1      56.460   3.729  20.368  1.00  0.00     0.002 C 
HETATM   34  C   UNL     1      56.461   3.484  18.866  1.00  0.00     0.005 C 
ENDBRANCH  31  33
ENDBRANCH  13  31
BRANCH  14  35
HETATM   35  C   UNL     1      66.077   6.146  22.864  1.00  0.00     0.010 C 
HETATM   36  C   UNL     1      66.624   7.243  23.776  1.00  0.00     0.012 C 
HETATM   37  C   UNL     1      66.860   4.848  23.061  1.00  0.00     0.012 C 
ENDBRANCH  14  35
BRANCH  16  38
HETATM   38  C   UNL     1      59.699   2.643  25.984  1.00  0.00     0.016 C 
HETATM   39  C   UNL     1      61.191   2.737  25.670  1.00  0.00     0.012 C 
HETATM   40  C   UNL     1      59.138   1.301  25.519  1.00  0.00     0.012 C 
ENDBRANCH  16  38
BRANCH  18  41
HETATM   41  C   UNL     1      64.047   9.124  26.012  1.00  0.00     0.016 C 
HETATM   42  C   UNL     1      63.572  10.070  27.112  1.00  0.00     0.012 C 
HETATM   43  C   UNL     1      64.807   9.894  24.934  1.00  0.00     0.012 C 
ENDBRANCH  18  41
BRANCH  15  44
HETATM   44  C   UNL     1      58.831   7.914  27.776  1.00  0.00     0.010 C 
HETATM   45  C   UNL     1      59.546   9.206  28.161  1.00  0.00     0.012 C 
HETATM   46  C   UNL     1      58.032   7.368  28.956  1.00  0.00     0.012 C 
ENDBRANCH  15  44
TORSDOF 7
ENDMDL
MODEL 18
REMARK VINA RESULT:    -4.794     18.702     23.200
REMARK INTER + INTRA:          -5.763
REMARK INTER:                  -7.280
REMARK INTRA:                   1.517
REMARK UNBOUND:                 0.993
REMARK  7 active torsions:
REMARK  status: ('A' for Active; 'I' for Inactive)
REMARK    1  A    between atoms: C_13  and  C_14 
REMARK    2  A    between atoms: C_14  and  C_19 
REMARK    3  A    between atoms: C_15  and  C_20 
REMARK    4  A    between atoms: C_16  and  C_21 
REMARK    5  A    between atoms: C_17  and  C_23 
REMARK    6  A    between atoms: C_18  and  C_26 
REMARK    7  A    between atoms: C_22  and  C_28 
ROOT
HETATM    1  O   UNL     1      59.137   4.457  26.157  1.00  0.00    -0.304 OA
HETATM    2  O   UNL     1      61.761   5.821  21.851  1.00  0.00    -0.304 OA
HETATM    3  O   UNL     1      62.043   8.700  25.589  1.00  0.00    -0.304 OA
HETATM    4  O   UNL     1      58.822   4.944  22.743  1.00  0.00    -0.270 OA
HETATM    5  O   UNL     1      61.404   4.214  25.814  1.00  0.00    -0.263 OA
HETATM    6  O   UNL     1      59.010   6.788  25.032  1.00  0.00    -0.270 OA
HETATM    7  O   UNL     1      63.380   9.481  22.741  1.00  0.00    -0.270 OA
HETATM    8  O   UNL     1      63.060   5.548  19.976  1.00  0.00    -0.263 OA
HETATM    9  O   UNL     1      61.110  10.431  24.392  1.00  0.00    -0.263 OA
HETATM   10  N   UNL     1      60.522   3.440  23.225  1.00  0.00    -0.340 N 
HETATM   11  N   UNL     1      59.815   8.028  26.812  1.00  0.00    -0.340 N 
HETATM   12  N   UNL     1      63.608   7.213  23.206  1.00  0.00    -0.340 N 
HETATM   13  C   UNL     1      59.813   2.988  24.440  1.00  0.00     0.190 C 
HETATM   14  C   UNL     1      59.747   9.265  26.005  1.00  0.00     0.190 C 
HETATM   15  C   UNL     1      63.922   6.874  21.803  1.00  0.00     0.190 C 
HETATM   16  C   UNL     1      60.713   5.014  21.279  1.00  0.00     0.227 C 
HETATM   17  C   UNL     1      59.346   5.564  27.061  1.00  0.00     0.227 C 
HETATM   18  C   UNL     1      63.372   8.878  25.065  1.00  0.00     0.227 C 
HETATM   19  C   UNL     1      59.931   4.469  22.471  1.00  0.00     0.250 C 
HETATM   20  C   UNL     1      60.243   3.937  25.546  1.00  0.00     0.283 C 
HETATM   21  C   UNL     1      59.378   6.838  26.211  1.00  0.00     0.250 C 
HETATM   22  C   UNL     1      63.443   8.563  23.564  1.00  0.00     0.250 C 
HETATM   23  C   UNL     1      62.886   5.998  21.104  1.00  0.00     0.283 C 
HETATM   24  C   UNL     1      61.030   9.531  25.221  1.00  0.00     0.283 C 
HETATM   25  C   UNL     1      61.809   2.812  22.909  1.00  0.00     0.153 C 
HETATM   26  C   UNL     1      60.366   8.122  28.165  1.00  0.00     0.153 C 
HETATM   27  C   UNL     1      63.664   6.133  24.192  1.00  0.00     0.153 C 
ENDROOT
BRANCH  17  28
HETATM   28  C   UNL     1      58.160   5.584  28.014  1.00  0.00     0.016 C 
HETATM   29  C   UNL     1      58.632   5.740  29.459  1.00  0.00     0.012 C 
HETATM   30  C   UNL     1      57.189   6.706  27.645  1.00  0.00     0.012 C 
ENDBRANCH  17  28
BRANCH  13  31
HETATM   31  C   UNL     1      60.061   1.543  24.860  1.00  0.00     0.014 C 
HETATM   32  C   UNL     1      59.820   1.391  26.363  1.00  0.00     0.012 C 
BRANCH  31  33
HETATM   33  C   UNL     1      59.179   0.596  24.028  1.00  0.00     0.002 C 
HETATM   34  C   UNL     1      57.794   1.152  23.730  1.00  0.00     0.005 C 
ENDBRANCH  31  33
ENDBRANCH  13  31
BRANCH  14  35
HETATM   35  C   UNL     1      59.370  10.507  26.813  1.00  0.00     0.010 C 
HETATM   36  C   UNL     1      60.503  11.531  26.787  1.00  0.00     0.012 C 
HETATM   37  C   UNL     1      58.077  11.125  26.281  1.00  0.00     0.012 C 
ENDBRANCH  14  35
BRANCH  16  38
HETATM   38  C   UNL     1      59.843   5.900  20.391  1.00  0.00     0.016 C 
HETATM   39  C   UNL     1      59.986   5.499  18.924  1.00  0.00     0.012 C 
HETATM   40  C   UNL     1      60.203   7.372  20.580  1.00  0.00     0.012 C 
ENDBRANCH  16  38
BRANCH  18  41
HETATM   41  C   UNL     1      63.938  10.256  25.407  1.00  0.00     0.016 C 
HETATM   42  C   UNL     1      65.380  10.379  24.921  1.00  0.00     0.012 C 
HETATM   43  C   UNL     1      63.854  10.512  26.910  1.00  0.00     0.012 C 
ENDBRANCH  18  41
BRANCH  15  44
HETATM   44  C   UNL     1      65.316   6.257  21.678  1.00  0.00     0.010 C 
HETATM   45  C   UNL     1      66.276   6.902  22.675  1.00  0.00     0.012 C 
HETATM   46  C   UNL     1      65.840   6.404  20.253  1.00  0.00     0.012 C 
ENDBRANCH  15  44
TORSDOF 7
ENDMDL
MODEL 19
REMARK VINA RESULT:    -4.791      6.670     11.467
REMARK INTER + INTRA:          -5.760
REMARK INTER:                  -6.350
REMARK INTRA:                   0.591
REMARK UNBOUND:                 0.993
REMARK  7 active torsions:
REMARK  status: ('A' for Active; 'I' for Inactive)
REMARK    1  A    between atoms: C_13  and  C_14 
REMARK    2  A    between atoms: C_14  and  C_19 
REMARK    3  A    between atoms: C_15  and  C_20 
REMARK    4  A    between atoms: C_16  and  C_21 
REMARK    5  A    between atoms: C_17  and  C_23 
REMARK    6  A    between atoms: C_18  and  C_26 
REMARK    7  A    between atoms: C_22  and  C_28 
ROOT
HETATM    1  O   UNL     1      55.548  19.837  34.261  1.00  0.00    -0.304 OA
HETATM    2  O   UNL     1      51.819  18.230  30.974  1.00  0.00    -0.304 OA
HETATM    3  O   UNL     1      51.866  16.356  35.313  1.00  0.00    -0.304 OA
HETATM    4  O   UNL     1      54.993  18.575  31.084  1.00  0.00    -0.270 OA
HETATM    5  O   UNL     1      53.344  20.517  34.269  1.00  0.00    -0.263 OA
HETATM    6  O   UNL     1      54.992  17.355  33.765  1.00  0.00    -0.270 OA
HETATM    7  O   UNL     1      49.804  15.317  33.039  1.00  0.00    -0.270 OA
HETATM    8  O   UNL     1      50.204  18.390  29.348  1.00  0.00    -0.263 OA
HETATM    9  O   UNL     1      52.176  14.243  34.455  1.00  0.00    -0.263 OA
HETATM   10  N   UNL     1      53.747  20.498  31.456  1.00  0.00    -0.340 N 
HETATM   11  N   UNL     1      54.397  16.741  35.914  1.00  0.00    -0.340 N 
HETATM   12  N   UNL     1      50.102  17.622  32.942  1.00  0.00    -0.340 N 
HETATM   13  C   UNL     1      54.781  21.022  32.371  1.00  0.00     0.190 C 
HETATM   14  C   UNL     1      54.055  15.379  35.451  1.00  0.00     0.190 C 
HETATM   15  C   UNL     1      49.548  17.718  31.575  1.00  0.00     0.190 C 
HETATM   16  C   UNL     1      52.841  18.633  30.041  1.00  0.00     0.227 C 
HETATM   17  C   UNL     1      55.350  19.025  35.440  1.00  0.00     0.227 C 
HETATM   18  C   UNL     1      50.444  16.382  35.093  1.00  0.00     0.227 C 
HETATM   19  C   UNL     1      53.957  19.224  30.898  1.00  0.00     0.250 C 
HETATM   20  C   UNL     1      54.446  20.455  33.741  1.00  0.00     0.283 C 
HETATM   21  C   UNL     1      54.896  17.643  34.963  1.00  0.00     0.250 C 
HETATM   22  C   UNL     1      50.095  16.379  33.597  1.00  0.00     0.250 C 
HETATM   23  C   UNL     1      50.542  18.162  30.506  1.00  0.00     0.283 C 
HETATM   24  C   UNL     1      52.602  15.256  34.999  1.00  0.00     0.283 C 
HETATM   25  C   UNL     1      52.559  21.324  31.220  1.00  0.00     0.153 C 
HETATM   26  C   UNL     1      54.156  17.067  37.322  1.00  0.00     0.153 C 
HETATM   27  C   UNL     1      50.468  18.870  33.613  1.00  0.00     0.153 C 
ENDROOT
BRANCH  17  28
HETATM   28  C   UNL     1      56.696  18.936  36.144  1.00  0.00     0.016 C 
HETATM   29  C   UNL     1      57.840  19.050  35.138  1.00  0.00     0.012 C 
HETATM   30  C   UNL     1      56.817  20.019  37.216  1.00  0.00     0.012 C 
ENDBRANCH  17  28
BRANCH  13  31
HETATM   31  C   UNL     1      54.901  22.540  32.445  1.00  0.00     0.014 C 
HETATM   32  C   UNL     1      55.545  22.947  33.772  1.00  0.00     0.012 C 
BRANCH  31  33
HETATM   33  C   UNL     1      55.686  23.065  31.230  1.00  0.00     0.002 C 
HETATM   34  C   UNL     1      54.940  24.122  30.429  1.00  0.00     0.005 C 
ENDBRANCH  31  33
ENDBRANCH  13  31
BRANCH  14  35
HETATM   35  C   UNL     1      54.371  14.285  36.471  1.00  0.00     0.010 C 
HETATM   36  C   UNL     1      53.086  13.665  37.014  1.00  0.00     0.012 C 
HETATM   37  C   UNL     1      55.263  13.210  35.850  1.00  0.00     0.012 C 
ENDBRANCH  14  35
BRANCH  16  38
HETATM   38  C   UNL     1      53.312  17.403  29.270  1.00  0.00     0.016 C 
HETATM   39  C   UNL     1      52.877  17.482  27.808  1.00  0.00     0.012 C 
HETATM   40  C   UNL     1      52.781  16.125  29.918  1.00  0.00     0.012 C 
ENDBRANCH  16  38
BRANCH  18  41
HETATM   41  C   UNL     1      49.729  15.277  35.869  1.00  0.00     0.016 C 
HETATM   42  C   UNL     1      48.227  15.317  35.598  1.00  0.00     0.012 C 
HETATM   43  C   UNL     1      50.009  15.404  37.365  1.00  0.00     0.012 C 
ENDBRANCH  18  41
BRANCH  15  44
HETATM   44  C   UNL     1      48.298  18.598  31.543  1.00  0.00     0.010 C 
HETATM   45  C   UNL     1      47.152  17.874  30.842  1.00  0.00     0.012 C 
HETATM   46  C   UNL     1      48.598  19.926  30.856  1.00  0.00     0.012 C 
ENDBRANCH  15  44
TORSDOF 7
ENDMDL
MODEL 20
REMARK VINA RESULT:    -4.691      1.980      6.632
REMARK INTER + INTRA:          -5.619
REMARK INTER:                  -7.168
REMARK INTRA:                   1.549
REMARK UNBOUND:                 0.993
REMARK  7 active torsions:
REMARK  status: ('A' for Active; 'I' for Inactive)
REMARK    1  A    between atoms: C_13  and  C_14 
REMARK    2  A    between atoms: C_14  and  C_19 
REMARK    3  A    between atoms: C_15  and  C_20 
REMARK    4  A    between atoms: C_16  and  C_21 
REMARK    5  A    between atoms: C_17  and  C_23 
REMARK    6  A    between atoms: C_18  and  C_26 
REMARK    7  A    between atoms: C_22  and  C_28 
ROOT
HETATM    1  O   UNL     1      40.217  16.224  33.142  1.00  0.00    -0.304 OA
HETATM    2  O   UNL     1      45.299  17.430  33.062  1.00  0.00    -0.304 OA
HETATM    3  O   UNL     1      43.861  13.837  30.348  1.00  0.00    -0.304 OA
HETATM    4  O   UNL     1      42.977  16.783  35.158  1.00  0.00    -0.270 OA
HETATM    5  O   UNL     1      41.306  17.409  31.490  1.00  0.00    -0.263 OA
HETATM    6  O   UNL     1      42.140  14.518  33.470  1.00  0.00    -0.270 OA
HETATM    7  O   UNL     1      47.000  14.588  30.645  1.00  0.00    -0.270 OA
HETATM    8  O   UNL     1      47.168  18.766  33.040  1.00  0.00    -0.263 OA
HETATM    9  O   UNL     1      45.224  12.367  31.480  1.00  0.00    -0.263 OA
HETATM   10  N   UNL     1      42.594  18.578  33.738  1.00  0.00    -0.340 N 
HETATM   11  N   UNL     1      41.671  13.177  31.645  1.00  0.00    -0.340 N 
HETATM   12  N   UNL     1      45.662  16.490  30.577  1.00  0.00    -0.340 N 
HETATM   13  C   UNL     1      41.142  18.308  33.746  1.00  0.00     0.190 C 
HETATM   14  C   UNL     1      42.855  12.339  31.932  1.00  0.00     0.190 C 
HETATM   15  C   UNL     1      46.726  17.357  31.127  1.00  0.00     0.190 C 
HETATM   16  C   UNL     1      44.931  17.914  34.369  1.00  0.00     0.227 C 
HETATM   17  C   UNL     1      40.121  15.052  32.302  1.00  0.00     0.227 C 
HETATM   18  C   UNL     1      44.901  14.358  29.501  1.00  0.00     0.227 C 
HETATM   19  C   UNL     1      43.423  17.704  34.464  1.00  0.00     0.250 C 
HETATM   20  C   UNL     1      40.904  17.292  32.640  1.00  0.00     0.283 C 
HETATM   21  C   UNL     1      41.397  14.235  32.524  1.00  0.00     0.250 C 
HETATM   22  C   UNL     1      45.952  15.143  30.301  1.00  0.00     0.250 C 
HETATM   23  C   UNL     1      46.429  17.946  32.504  1.00  0.00     0.283 C 
HETATM   24  C   UNL     1      44.121  12.850  31.248  1.00  0.00     0.283 C 
HETATM   25  C   UNL     1      43.075  19.715  32.946  1.00  0.00     0.153 C 
HETATM   26  C   UNL     1      40.888  12.868  30.446  1.00  0.00     0.153 C 
HETATM   27  C   UNL     1      44.407  17.130  30.179  1.00  0.00     0.153 C 
ENDROOT
BRANCH  17  28
HETATM   28  C   UNL     1      38.898  14.276  32.768  1.00  0.00     0.016 C 
HETATM   29  C   UNL     1      38.042  13.852  31.574  1.00  0.00     0.012 C 
HETATM   30  C   UNL     1      39.314  13.055  33.588  1.00  0.00     0.012 C 
ENDBRANCH  17  28
BRANCH  13  31
HETATM   31  C   UNL     1      40.236  19.519  33.551  1.00  0.00     0.014 C 
HETATM   32  C   UNL     1      38.955  19.098  32.829  1.00  0.00     0.012 C 
BRANCH  31  33
HETATM   33  C   UNL     1      39.949  20.183  34.909  1.00  0.00     0.002 C 
HETATM   34  C   UNL     1      40.852  21.371  35.213  1.00  0.00     0.005 C 
ENDBRANCH  31  33
ENDBRANCH  13  31
BRANCH  14  35
HETATM   35  C   UNL     1      42.655  10.859  31.606  1.00  0.00     0.010 C 
HETATM   36  C   UNL     1      43.653  10.401  30.544  1.00  0.00     0.012 C 
HETATM   37  C   UNL     1      42.787  10.005  32.867  1.00  0.00     0.012 C 
ENDBRANCH  14  35
BRANCH  16  38
HETATM   38  C   UNL     1      45.682  17.102  35.421  1.00  0.00     0.016 C 
HETATM   39  C   UNL     1      46.696  17.977  36.156  1.00  0.00     0.012 C 
HETATM   40  C   UNL     1      46.377  15.901  34.780  1.00  0.00     0.012 C 
ENDBRANCH  16  38
BRANCH  18  41
HETATM   41  C   UNL     1      45.518  13.270  28.624  1.00  0.00     0.016 C 
HETATM   42  C   UNL     1      46.519  13.875  27.643  1.00  0.00     0.012 C 
HETATM   43  C   UNL     1      44.430  12.503  27.876  1.00  0.00     0.012 C 
ENDBRANCH  18  41
BRANCH  15  44
HETATM   44  C   UNL     1      47.107  18.462  30.142  1.00  0.00     0.010 C 
HETATM   45  C   UNL     1      48.621  18.657  30.117  1.00  0.00     0.012 C 
HETATM   46  C   UNL     1      46.401  19.766  30.503  1.00  0.00     0.012 C 
ENDBRANCH  15  44
TORSDOF 7
ENDMDL
