MODEL 1
REMARK VINA RESULT:    -5.542      0.000      0.000
REMARK INTER + INTRA:          -6.730
REMARK INTER:                  -7.810
REMARK INTRA:                   1.080
REMARK UNBOUND:                 1.080
REMARK  7 active torsions:
REMARK  status: ('A' for Active; 'I' for Inactive)
REMARK    1  A    between atoms: C_13  and  C_14 
REMARK    2  A    between atoms: C_14  and  C_19 
REMARK    3  A    between atoms: C_15  and  C_20 
REMARK    4  A    between atoms: C_16  and  C_21 
REMARK    5  A    between atoms: C_17  and  C_23 
REMARK    6  A    between atoms: C_18  and  C_26 
REMARK    7  A    between atoms: C_22  and  C_28 
ROOT
HETATM    1  O   UNL     1      18.613  35.372  58.049  1.00  0.00    -0.304 OA
HETATM    2  O   UNL     1      23.556  33.689  57.867  1.00  0.00    -0.304 OA
HETATM    3  O   UNL     1      22.741  38.209  56.749  1.00  0.00    -0.304 OA
HETATM    4  O   UNL     1      20.664  32.892  56.768  1.00  0.00    -0.270 OA
HETATM    5  O   UNL     1      20.240  35.760  59.636  1.00  0.00    -0.263 OA
HETATM    6  O   UNL     1      20.210  35.708  56.036  1.00  0.00    -0.270 OA
HETATM    7  O   UNL     1      25.689  36.894  56.456  1.00  0.00    -0.270 OA
HETATM    8  O   UNL     1      25.439  32.547  58.519  1.00  0.00    -0.263 OA
HETATM    9  O   UNL     1      23.579  37.891  54.629  1.00  0.00    -0.263 OA
HETATM   10  N   UNL     1      20.869  33.045  59.075  1.00  0.00    -0.340 N 
HETATM   11  N   UNL     1      20.216  38.022  56.037  1.00  0.00    -0.340 N 
HETATM   12  N   UNL     1      24.584  36.118  58.350  1.00  0.00    -0.340 N 
HETATM   13  C   UNL     1      19.467  33.495  59.195  1.00  0.00     0.190 C 
HETATM   14  C   UNL     1      21.190  38.039  54.924  1.00  0.00     0.190 C 
HETATM   15  C   UNL     1      25.493  34.963  58.506  1.00  0.00     0.190 C 
HETATM   16  C   UNL     1      22.846  32.454  57.646  1.00  0.00     0.227 C 
HETATM   17  C   UNL     1      18.688  36.733  57.572  1.00  0.00     0.227 C 
HETATM   18  C   UNL     1      24.026  38.360  57.379  1.00  0.00     0.227 C 
HETATM   19  C   UNL     1      21.369  32.811  57.781  1.00  0.00     0.250 C 
HETATM   20  C   UNL     1      19.500  35.004  59.021  1.00  0.00     0.283 C 
HETATM   21  C   UNL     1      19.770  36.771  56.489  1.00  0.00     0.250 C 
HETATM   22  C   UNL     1      24.841  37.058  57.338  1.00  0.00     0.250 C 
HETATM   23  C   UNL     1      24.838  33.597  58.316  1.00  0.00     0.283 C 
HETATM   24  C   UNL     1      22.639  38.020  55.406  1.00  0.00     0.283 C 
HETATM   25  C   UNL     1      21.653  32.910  60.306  1.00  0.00     0.153 C 
HETATM   26  C   UNL     1      19.814  39.306  56.615  1.00  0.00     0.153 C 
HETATM   27  C   UNL     1      23.562  36.318  59.379  1.00  0.00     0.153 C 
ENDROOT
BRANCH  17  28
HETATM   28  C   UNL     1      17.326  37.069  56.982  1.00  0.00     0.016 C 
HETATM   29  C   UNL     1      17.156  36.417  55.611  1.00  0.00     0.012 C 
HETATM   30  C   UNL     1      16.207  36.630  57.926  1.00  0.00     0.012 C 
ENDBRANCH  17  28
BRANCH  13  31
HETATM   31  C   UNL     1      18.758  33.131  60.495  1.00  0.00     0.014 C 
HETATM   32  C   UNL     1      17.568  34.067  60.718  1.00  0.00     0.012 C 
BRANCH  31  33
HETATM   33  C   UNL     1      18.339  31.651  60.468  1.00  0.00     0.002 C 
HETATM   34  C   UNL     1      16.841  31.441  60.302  1.00  0.00     0.005 C 
ENDBRANCH  31  33
ENDBRANCH  13  31
BRANCH  14  35
HETATM   35  C   UNL     1      20.986  39.196  53.947  1.00  0.00     0.010 C 
HETATM   36  C   UNL     1      22.101  39.224  52.904  1.00  0.00     0.012 C 
HETATM   37  C   UNL     1      19.621  39.096  53.268  1.00  0.00     0.012 C 
ENDBRANCH  14  35
BRANCH  16  38
HETATM   38  C   UNL     1      23.177  31.943  56.246  1.00  0.00     0.016 C 
HETATM   39  C   UNL     1      23.956  30.631  56.321  1.00  0.00     0.012 C 
HETATM   40  C   UNL     1      23.968  32.990  55.463  1.00  0.00     0.012 C 
ENDBRANCH  16  38
BRANCH  18  41
HETATM   41  C   UNL     1      24.795  39.556  56.821  1.00  0.00     0.016 C 
HETATM   42  C   UNL     1      26.006  39.871  57.697  1.00  0.00     0.012 C 
HETATM   43  C   UNL     1      23.883  40.775  56.708  1.00  0.00     0.012 C 
ENDBRANCH  18  41
BRANCH  15  44
HETATM   44  C   UNL     1      26.239  35.018  59.840  1.00  0.00     0.010 C 
HETATM   45  C   UNL     1      27.721  34.719  59.636  1.00  0.00     0.012 C 
HETATM   46  C   UNL     1      25.624  34.041  60.837  1.00  0.00     0.012 C 
ENDBRANCH  15  44
TORSDOF 7
ENDMDL
MODEL 2
REMARK VINA RESULT:    -5.232      3.308      5.789
REMARK INTER + INTRA:          -6.292
REMARK INTER:                  -7.385
REMARK INTRA:                   1.092
REMARK UNBOUND:                 1.080
REMARK  7 active torsions:
REMARK  status: ('A' for Active; 'I' for Inactive)
REMARK    1  A    between atoms: C_13  and  C_14 
REMARK    2  A    between atoms: C_14  and  C_19 
REMARK    3  A    between atoms: C_15  and  C_20 
REMARK    4  A    between atoms: C_16  and  C_21 
REMARK    5  A    between atoms: C_17  and  C_23 
REMARK    6  A    between atoms: C_18  and  C_26 
REMARK    7  A    between atoms: C_22  and  C_28 
ROOT
HETATM    1  O   UNL     1      20.071  37.761  55.414  1.00  0.00    -0.304 OA
HETATM    2  O   UNL     1      24.689  39.820  56.727  1.00  0.00    -0.304 OA
HETATM    3  O   UNL     1      20.816  42.370  57.647  1.00  0.00    -0.304 OA
HETATM    4  O   UNL     1      23.231  38.506  54.207  1.00  0.00    -0.270 OA
HETATM    5  O   UNL     1      20.971  37.836  57.536  1.00  0.00    -0.263 OA
HETATM    6  O   UNL     1      20.853  40.148  54.778  1.00  0.00    -0.270 OA
HETATM    7  O   UNL     1      23.790  43.562  58.144  1.00  0.00    -0.270 OA
HETATM    8  O   UNL     1      26.839  39.880  57.536  1.00  0.00    -0.263 OA
HETATM    9  O   UNL     1      21.545  44.069  56.275  1.00  0.00    -0.263 OA
HETATM   10  N   UNL     1      23.347  37.190  56.116  1.00  0.00    -0.340 N 
HETATM   11  N   UNL     1      19.185  41.317  55.874  1.00  0.00    -0.340 N 
HETATM   12  N   UNL     1      23.660  41.308  58.706  1.00  0.00    -0.340 N 
HETATM   13  C   UNL     1      22.060  36.547  55.782  1.00  0.00     0.190 C 
HETATM   14  C   UNL     1      19.802  42.602  55.483  1.00  0.00     0.190 C 
HETATM   15  C   UNL     1      25.128  41.137  58.691  1.00  0.00     0.190 C 
HETATM   16  C   UNL     1      25.085  38.942  55.655  1.00  0.00     0.227 C 
HETATM   17  C   UNL     1      19.121  38.802  55.730  1.00  0.00     0.227 C 
HETATM   18  C   UNL     1      21.617  42.758  58.777  1.00  0.00     0.227 C 
HETATM   19  C   UNL     1      23.813  38.200  55.254  1.00  0.00     0.250 C 
HETATM   20  C   UNL     1      20.984  37.441  56.378  1.00  0.00     0.283 C 
HETATM   21  C   UNL     1      19.798  40.140  55.422  1.00  0.00     0.250 C 
HETATM   22  C   UNL     1      23.119  42.589  58.502  1.00  0.00     0.250 C 
HETATM   23  C   UNL     1      25.657  40.203  57.605  1.00  0.00     0.283 C 
HETATM   24  C   UNL     1      20.832  43.096  56.496  1.00  0.00     0.283 C 
HETATM   25  C   UNL     1      24.032  36.759  57.338  1.00  0.00     0.153 C 
HETATM   26  C   UNL     1      18.000  41.359  56.734  1.00  0.00     0.153 C 
HETATM   27  C   UNL     1      22.849  40.160  59.114  1.00  0.00     0.153 C 
ENDROOT
BRANCH  17  28
HETATM   28  C   UNL     1      17.916  38.588  54.825  1.00  0.00     0.016 C 
HETATM   29  C   UNL     1      18.249  38.972  53.384  1.00  0.00     0.012 C 
HETATM   30  C   UNL     1      17.438  37.138  54.895  1.00  0.00     0.012 C 
ENDBRANCH  17  28
BRANCH  13  31
HETATM   31  C   UNL     1      21.883  35.114  56.271  1.00  0.00     0.014 C 
HETATM   32  C   UNL     1      20.401  34.735  56.245  1.00  0.00     0.012 C 
BRANCH  31  33
HETATM   33  C   UNL     1      22.743  34.160  55.423  1.00  0.00     0.002 C 
HETATM   34  C   UNL     1      22.982  32.806  56.076  1.00  0.00     0.005 C 
ENDBRANCH  31  33
ENDBRANCH  13  31
BRANCH  14  35
HETATM   35  C   UNL     1      18.788  43.710  55.199  1.00  0.00     0.010 C 
HETATM   36  C   UNL     1      19.495  44.985  54.742  1.00  0.00     0.012 C 
HETATM   37  C   UNL     1      17.773  43.257  54.150  1.00  0.00     0.012 C 
ENDBRANCH  14  35
BRANCH  16  38
HETATM   38  C   UNL     1      25.630  39.787  54.506  1.00  0.00     0.016 C 
HETATM   39  C   UNL     1      27.149  39.653  54.412  1.00  0.00     0.012 C 
HETATM   40  C   UNL     1      25.232  41.252  54.678  1.00  0.00     0.012 C 
ENDBRANCH  16  38
BRANCH  18  41
HETATM   41  C   UNL     1      21.262  44.160  59.270  1.00  0.00     0.016 C 
HETATM   42  C   UNL     1      21.908  44.432  60.627  1.00  0.00     0.012 C 
HETATM   43  C   UNL     1      19.747  44.332  59.353  1.00  0.00     0.012 C 
ENDBRANCH  18  41
BRANCH  15  44
HETATM   44  C   UNL     1      25.652  40.713  60.064  1.00  0.00     0.010 C 
HETATM   45  C   UNL     1      26.866  41.552  60.455  1.00  0.00     0.012 C 
HETATM   46  C   UNL     1      26.000  39.228  60.067  1.00  0.00     0.012 C 
ENDBRANCH  15  44
TORSDOF 7
ENDMDL
MODEL 3
REMARK VINA RESULT:    -5.053      1.870      6.277
REMARK INTER + INTRA:          -6.041
REMARK INTER:                  -7.251
REMARK INTRA:                   1.210
REMARK UNBOUND:                 1.080
REMARK  7 active torsions:
REMARK  status: ('A' for Active; 'I' for Inactive)
REMARK    1  A    between atoms: C_13  and  C_14 
REMARK    2  A    between atoms: C_14  and  C_19 
REMARK    3  A    between atoms: C_15  and  C_20 
REMARK    4  A    between atoms: C_16  and  C_21 
REMARK    5  A    between atoms: C_17  and  C_23 
REMARK    6  A    between atoms: C_18  and  C_26 
REMARK    7  A    between atoms: C_22  and  C_28 
ROOT
HETATM    1  O   UNL     1      24.335  33.035  57.527  1.00  0.00    -0.304 OA
HETATM    2  O   UNL     1      20.207  35.709  59.288  1.00  0.00    -0.304 OA
HETATM    3  O   UNL     1      22.392  37.348  55.430  1.00  0.00    -0.304 OA
HETATM    4  O   UNL     1      22.971  34.510  60.349  1.00  0.00    -0.270 OA
HETATM    5  O   UNL     1      22.205  32.981  56.646  1.00  0.00    -0.263 OA
HETATM    6  O   UNL     1      24.311  35.590  57.958  1.00  0.00    -0.270 OA
HETATM    7  O   UNL     1      19.975  38.988  56.836  1.00  0.00    -0.270 OA
HETATM    8  O   UNL     1      18.116  36.052  60.175  1.00  0.00    -0.263 OA
HETATM    9  O   UNL     1      22.900  39.326  56.493  1.00  0.00    -0.263 OA
HETATM   10  N   UNL     1      21.499  32.987  59.400  1.00  0.00    -0.340 N 
HETATM   11  N   UNL     1      24.762  36.267  55.793  1.00  0.00    -0.340 N 
HETATM   12  N   UNL     1      19.593  36.693  56.871  1.00  0.00    -0.340 N 
HETATM   13  C   UNL     1      22.625  32.170  58.902  1.00  0.00     0.190 C 
HETATM   14  C   UNL     1      24.643  37.686  56.192  1.00  0.00     0.190 C 
HETATM   15  C   UNL     1      18.558  36.799  57.920  1.00  0.00     0.190 C 
HETATM   16  C   UNL     1      20.653  35.076  60.504  1.00  0.00     0.227 C 
HETATM   17  C   UNL     1      24.822  33.828  56.423  1.00  0.00     0.227 C 
HETATM   18  C   UNL     1      21.041  37.717  55.099  1.00  0.00     0.227 C 
HETATM   19  C   UNL     1      21.811  34.175  60.086  1.00  0.00     0.250 C 
HETATM   20  C   UNL     1      22.998  32.758  57.551  1.00  0.00     0.283 C 
HETATM   21  C   UNL     1      24.605  35.298  56.794  1.00  0.00     0.250 C 
HETATM   22  C   UNL     1      20.165  37.868  56.352  1.00  0.00     0.250 C 
HETATM   23  C   UNL     1      18.916  36.139  59.248  1.00  0.00     0.283 C 
HETATM   24  C   UNL     1      23.216  38.216  56.076  1.00  0.00     0.283 C 
HETATM   25  C   UNL     1      20.138  32.525  59.113  1.00  0.00     0.153 C 
HETATM   26  C   UNL     1      24.997  35.971  54.378  1.00  0.00     0.153 C 
HETATM   27  C   UNL     1      19.842  35.370  56.296  1.00  0.00     0.153 C 
ENDROOT
BRANCH  17  28
HETATM   28  C   UNL     1      26.306  33.523  56.281  1.00  0.00     0.016 C 
HETATM   29  C   UNL     1      27.006  33.611  57.637  1.00  0.00     0.012 C 
HETATM   30  C   UNL     1      26.517  32.144  55.659  1.00  0.00     0.012 C 
ENDBRANCH  17  28
BRANCH  13  31
HETATM   31  C   UNL     1      22.357  30.675  58.768  1.00  0.00     0.014 C 
HETATM   32  C   UNL     1      23.329  30.061  57.760  1.00  0.00     0.012 C 
BRANCH  31  33
HETATM   33  C   UNL     1      22.445  30.000  60.149  1.00  0.00     0.002 C 
HETATM   34  C   UNL     1      23.694  30.375  60.935  1.00  0.00     0.005 C 
ENDBRANCH  31  33
ENDBRANCH  13  31
BRANCH  14  35
HETATM   35  C   UNL     1      25.600  38.617  55.447  1.00  0.00     0.010 C 
HETATM   36  C   UNL     1      24.848  39.445  54.407  1.00  0.00     0.012 C 
HETATM   37  C   UNL     1      26.337  39.530  56.426  1.00  0.00     0.012 C 
ENDBRANCH  14  35
BRANCH  16  38
HETATM   38  C   UNL     1      21.104  36.158  61.482  1.00  0.00     0.016 C 
HETATM   39  C   UNL     1      22.123  37.088  60.825  1.00  0.00     0.012 C 
HETATM   40  C   UNL     1      21.688  35.531  62.747  1.00  0.00     0.012 C 
ENDBRANCH  16  38
BRANCH  18  41
HETATM   41  C   UNL     1      20.994  38.948  54.195  1.00  0.00     0.016 C 
HETATM   42  C   UNL     1      19.549  39.327  53.879  1.00  0.00     0.012 C 
HETATM   43  C   UNL     1      21.777  38.698  52.908  1.00  0.00     0.012 C 
ENDBRANCH  18  41
BRANCH  15  44
HETATM   44  C   UNL     1      17.205  36.294  57.417  1.00  0.00     0.010 C 
HETATM   45  C   UNL     1      16.958  36.761  55.985  1.00  0.00     0.012 C 
HETATM   46  C   UNL     1      16.084  36.766  58.339  1.00  0.00     0.012 C 
ENDBRANCH  15  44
TORSDOF 7
ENDMDL
MODEL 4
REMARK VINA RESULT:    -4.977      2.532      8.437
REMARK INTER + INTRA:          -5.933
REMARK INTER:                  -7.324
REMARK INTRA:                   1.390
REMARK UNBOUND:                 1.080
REMARK  7 active torsions:
REMARK  status: ('A' for Active; 'I' for Inactive)
REMARK    1  A    between atoms: C_13  and  C_14 
REMARK    2  A    between atoms: C_14  and  C_19 
REMARK    3  A    between atoms: C_15  and  C_20 
REMARK    4  A    between atoms: C_16  and  C_21 
REMARK    5  A    between atoms: C_17  and  C_23 
REMARK    6  A    between atoms: C_18  and  C_26 
REMARK    7  A    between atoms: C_22  and  C_28 
ROOT
HETATM    1  O   UNL     1      23.930  36.976  55.735  1.00  0.00    -0.304 OA
HETATM    2  O   UNL     1      19.630  39.906  56.205  1.00  0.00    -0.304 OA
HETATM    3  O   UNL     1      20.174  36.318  59.234  1.00  0.00    -0.304 OA
HETATM    4  O   UNL     1      21.242  38.278  53.980  1.00  0.00    -0.270 OA
HETATM    5  O   UNL     1      23.574  38.624  57.308  1.00  0.00    -0.263 OA
HETATM    6  O   UNL     1      21.517  36.039  55.874  1.00  0.00    -0.270 OA
HETATM    7  O   UNL     1      17.467  38.101  59.183  1.00  0.00    -0.270 OA
HETATM    8  O   UNL     1      18.350  41.813  56.241  1.00  0.00    -0.263 OA
HETATM    9  O   UNL     1      18.237  35.324  58.486  1.00  0.00    -0.263 OA
HETATM   10  N   UNL     1      22.424  39.950  55.072  1.00  0.00    -0.340 N 
HETATM   11  N   UNL     1      21.784  34.802  57.811  1.00  0.00    -0.340 N 
HETATM   12  N   UNL     1      19.362  39.402  58.824  1.00  0.00    -0.340 N 
HETATM   13  C   UNL     1      23.680  39.183  54.942  1.00  0.00     0.190 C 
HETATM   14  C   UNL     1      20.357  34.415  57.782  1.00  0.00     0.190 C 
HETATM   15  C   UNL     1      18.581  40.531  58.277  1.00  0.00     0.190 C 
HETATM   16  C   UNL     1      19.932  40.099  54.809  1.00  0.00     0.227 C 
HETATM   17  C   UNL     1      23.753  35.934  56.719  1.00  0.00     0.227 C 
HETATM   18  C   UNL     1      19.516  37.254  60.107  1.00  0.00     0.227 C 
HETATM   19  C   UNL     1      21.247  39.360  54.577  1.00  0.00     0.250 C 
HETATM   20  C   UNL     1      23.729  38.262  56.149  1.00  0.00     0.283 C 
HETATM   21  C   UNL     1      22.258  35.604  56.762  1.00  0.00     0.250 C 
HETATM   22  C   UNL     1      18.681  38.278  59.324  1.00  0.00     0.250 C 
HETATM   23  C   UNL     1      18.842  40.841  56.805  1.00  0.00     0.283 C 
HETATM   24  C   UNL     1      19.460  35.405  58.522  1.00  0.00     0.283 C 
HETATM   25  C   UNL     1      22.484  41.255  55.739  1.00  0.00     0.153 C 
HETATM   26  C   UNL     1      22.592  34.354  58.947  1.00  0.00     0.153 C 
HETATM   27  C   UNL     1      20.804  39.591  58.984  1.00  0.00     0.153 C 
ENDROOT
BRANCH  17  28
HETATM   28  C   UNL     1      24.554  34.733  56.238  1.00  0.00     0.016 C 
HETATM   29  C   UNL     1      24.950  34.901  54.772  1.00  0.00     0.012 C 
HETATM   30  C   UNL     1      25.794  34.528  57.107  1.00  0.00     0.012 C 
ENDBRANCH  17  28
BRANCH  13  31
HETATM   31  C   UNL     1      24.960  40.007  54.856  1.00  0.00     0.014 C 
HETATM   32  C   UNL     1      26.173  39.078  54.791  1.00  0.00     0.012 C 
BRANCH  31  33
HETATM   33  C   UNL     1      24.891  40.962  53.651  1.00  0.00     0.002 C 
HETATM   34  C   UNL     1      25.993  42.012  53.637  1.00  0.00     0.005 C 
ENDBRANCH  31  33
ENDBRANCH  13  31
BRANCH  14  35
HETATM   35  C   UNL     1      20.093  32.999  58.295  1.00  0.00     0.010 C 
HETATM   36  C   UNL     1      21.075  32.008  57.674  1.00  0.00     0.012 C 
HETATM   37  C   UNL     1      20.179  32.953  59.820  1.00  0.00     0.012 C 
ENDBRANCH  14  35
BRANCH  16  38
HETATM   38  C   UNL     1      18.798  39.508  53.977  1.00  0.00     0.016 C 
HETATM   39  C   UNL     1      17.917  40.615  53.401  1.00  0.00     0.012 C 
HETATM   40  C   UNL     1      17.963  38.540  54.814  1.00  0.00     0.012 C 
ENDBRANCH  16  38
BRANCH  18  41
HETATM   41  C   UNL     1      18.712  36.545  61.196  1.00  0.00     0.016 C 
HETATM   42  C   UNL     1      17.996  37.562  62.082  1.00  0.00     0.012 C 
HETATM   43  C   UNL     1      19.619  35.648  62.034  1.00  0.00     0.012 C 
ENDBRANCH  18  41
BRANCH  15  44
HETATM   44  C   UNL     1      18.753  41.790  59.128  1.00  0.00     0.010 C 
HETATM   45  C   UNL     1      17.400  42.441  59.399  1.00  0.00     0.012 C 
HETATM   46  C   UNL     1      19.696  42.773  58.441  1.00  0.00     0.012 C 
ENDBRANCH  15  44
TORSDOF 7
ENDMDL
MODEL 5
REMARK VINA RESULT:    -4.876      4.941      9.018
REMARK INTER + INTRA:          -5.791
REMARK INTER:                  -6.584
REMARK INTRA:                   0.792
REMARK UNBOUND:                 1.080
REMARK  7 active torsions:
REMARK  status: ('A' for Active; 'I' for Inactive)
REMARK    1  A    between atoms: C_13  and  C_14 
REMARK    2  A    between atoms: C_14  and  C_19 
REMARK    3  A    between atoms: C_15  and  C_20 
REMARK    4  A    between atoms: C_16  and  C_21 
REMARK    5  A    between atoms: C_17  and  C_23 
REMARK    6  A    between atoms: C_18  and  C_26 
REMARK    7  A    between atoms: C_22  and  C_28 
ROOT
HETATM    1  O   UNL     1      19.101  40.906  55.433  1.00  0.00    -0.304 OA
HETATM    2  O   UNL     1      21.770  44.320  58.350  1.00  0.00    -0.304 OA
HETATM    3  O   UNL     1      24.167  41.898  55.074  1.00  0.00    -0.304 OA
HETATM    4  O   UNL     1      19.755  41.866  58.696  1.00  0.00    -0.270 OA
HETATM    5  O   UNL     1      19.779  43.012  54.782  1.00  0.00    -0.263 OA
HETATM    6  O   UNL     1      21.302  40.365  56.689  1.00  0.00    -0.270 OA
HETATM    7  O   UNL     1      25.669  43.874  57.159  1.00  0.00    -0.270 OA
HETATM    8  O   UNL     1      22.196  46.271  59.487  1.00  0.00    -0.263 OA
HETATM    9  O   UNL     1      25.515  40.952  56.683  1.00  0.00    -0.263 OA
HETATM   10  N   UNL     1      18.977  43.651  57.433  1.00  0.00    -0.340 N 
HETATM   11  N   UNL     1      22.580  39.815  54.840  1.00  0.00    -0.340 N 
HETATM   12  N   UNL     1      23.627  44.746  56.464  1.00  0.00    -0.340 N 
HETATM   13  C   UNL     1      18.174  42.740  56.591  1.00  0.00     0.190 C 
HETATM   14  C   UNL     1      23.768  39.614  55.697  1.00  0.00     0.190 C 
HETATM   15  C   UNL     1      23.570  45.716  57.578  1.00  0.00     0.190 C 
HETATM   16  C   UNL     1      20.683  44.003  59.240  1.00  0.00     0.227 C 
HETATM   17  C   UNL     1      20.113  40.277  54.615  1.00  0.00     0.227 C 
HETATM   18  C   UNL     1      24.889  43.141  55.010  1.00  0.00     0.227 C 
HETATM   19  C   UNL     1      19.769  43.076  58.443  1.00  0.00     0.250 C 
HETATM   20  C   UNL     1      19.105  42.271  55.485  1.00  0.00     0.283 C 
HETATM   21  C   UNL     1      21.376  40.162  55.472  1.00  0.00     0.250 C 
HETATM   22  C   UNL     1      24.770  43.942  56.315  1.00  0.00     0.250 C 
HETATM   23  C   UNL     1      22.435  45.487  58.573  1.00  0.00     0.283 C 
HETATM   24  C   UNL     1      24.578  40.893  55.894  1.00  0.00     0.283 C 
HETATM   25  C   UNL     1      18.922  45.086  57.134  1.00  0.00     0.153 C 
HETATM   26  C   UNL     1      22.748  39.675  53.392  1.00  0.00     0.153 C 
HETATM   27  C   UNL     1      22.562  44.803  55.462  1.00  0.00     0.153 C 
ENDROOT
BRANCH  17  28
HETATM   28  C   UNL     1      19.586  38.898  54.246  1.00  0.00     0.016 C 
HETATM   29  C   UNL     1      18.980  38.208  55.467  1.00  0.00     0.012 C 
HETATM   30  C   UNL     1      18.557  38.996  53.121  1.00  0.00     0.012 C 
ENDBRANCH  17  28
BRANCH  13  31
HETATM   31  C   UNL     1      16.902  43.329  55.993  1.00  0.00     0.014 C 
HETATM   32  C   UNL     1      16.704  42.803  54.571  1.00  0.00     0.012 C 
BRANCH  31  33
HETATM   33  C   UNL     1      15.701  43.018  56.904  1.00  0.00     0.002 C 
HETATM   34  C   UNL     1      14.381  43.576  56.389  1.00  0.00     0.005 C 
ENDBRANCH  31  33
ENDBRANCH  13  31
BRANCH  14  35
HETATM   35  C   UNL     1      24.687  38.490  55.220  1.00  0.00     0.010 C 
HETATM   36  C   UNL     1      26.011  39.055  54.711  1.00  0.00     0.012 C 
HETATM   37  C   UNL     1      24.934  37.481  56.342  1.00  0.00     0.012 C 
ENDBRANCH  14  35
BRANCH  16  38
HETATM   38  C   UNL     1      21.249  43.310  60.477  1.00  0.00     0.016 C 
HETATM   39  C   UNL     1      21.100  44.200  61.710  1.00  0.00     0.012 C 
HETATM   40  C   UNL     1      22.714  42.935  60.262  1.00  0.00     0.012 C 
ENDBRANCH  16  38
BRANCH  18  41
HETATM   41  C   UNL     1      26.339  42.934  54.574  1.00  0.00     0.016 C 
HETATM   42  C   UNL     1      27.091  44.263  54.565  1.00  0.00     0.012 C 
HETATM   43  C   UNL     1      26.396  42.276  53.197  1.00  0.00     0.012 C 
ENDBRANCH  18  41
BRANCH  15  44
HETATM   44  C   UNL     1      23.549  47.155  57.061  1.00  0.00     0.010 C 
HETATM   45  C   UNL     1      24.546  48.014  57.833  1.00  0.00     0.012 C 
HETATM   46  C   UNL     1      22.142  47.738  57.164  1.00  0.00     0.012 C 
ENDBRANCH  15  44
TORSDOF 7
ENDMDL
MODEL 6
REMARK VINA RESULT:    -4.749      2.075      6.490
REMARK INTER + INTRA:          -5.613
REMARK INTER:                  -6.625
REMARK INTRA:                   1.013
REMARK UNBOUND:                 1.080
REMARK  7 active torsions:
REMARK  status: ('A' for Active; 'I' for Inactive)
REMARK    1  A    between atoms: C_13  and  C_14 
REMARK    2  A    between atoms: C_14  and  C_19 
REMARK    3  A    between atoms: C_15  and  C_20 
REMARK    4  A    between atoms: C_16  and  C_21 
REMARK    5  A    between atoms: C_17  and  C_23 
REMARK    6  A    between atoms: C_18  and  C_26 
REMARK    7  A    between atoms: C_22  and  C_28 
ROOT
HETATM    1  O   UNL     1      23.939  35.609  55.984  1.00  0.00    -0.304 OA
HETATM    2  O   UNL     1      22.415  33.131  60.324  1.00  0.00    -0.304 OA
HETATM    3  O   UNL     1      19.437  36.286  58.446  1.00  0.00    -0.304 OA
HETATM    4  O   UNL     1      24.897  34.808  59.214  1.00  0.00    -0.270 OA
HETATM    5  O   UNL     1      22.455  33.847  56.093  1.00  0.00    -0.263 OA
HETATM    6  O   UNL     1      23.016  36.782  58.102  1.00  0.00    -0.270 OA
HETATM    7  O   UNL     1      18.803  34.826  61.269  1.00  0.00    -0.270 OA
HETATM    8  O   UNL     1      22.134  31.383  61.788  1.00  0.00    -0.263 OA
HETATM    9  O   UNL     1      19.496  37.561  60.361  1.00  0.00    -0.263 OA
HETATM   10  N   UNL     1      24.333  32.907  58.008  1.00  0.00    -0.340 N 
HETATM   11  N   UNL     1      21.164  37.764  57.123  1.00  0.00    -0.340 N 
HETATM   12  N   UNL     1      19.806  33.373  59.755  1.00  0.00    -0.340 N 
HETATM   13  C   UNL     1      24.778  33.542  56.750  1.00  0.00     0.190 C 
HETATM   14  C   UNL     1      20.736  38.306  58.431  1.00  0.00     0.190 C 
HETATM   15  C   UNL     1      20.175  32.402  60.807  1.00  0.00     0.190 C 
HETATM   16  C   UNL     1      23.847  33.060  60.466  1.00  0.00     0.227 C 
HETATM   17  C   UNL     1      22.874  36.550  55.726  1.00  0.00     0.227 C 
HETATM   18  C   UNL     1      18.477  35.338  58.946  1.00  0.00     0.227 C 
HETATM   19  C   UNL     1      24.408  33.672  59.185  1.00  0.00     0.250 C 
HETATM   20  C   UNL     1      23.577  34.315  56.230  1.00  0.00     0.283 C 
HETATM   21  C   UNL     1      22.361  37.034  57.085  1.00  0.00     0.250 C 
HETATM   22  C   UNL     1      19.045  34.502  60.103  1.00  0.00     0.250 C 
HETATM   23  C   UNL     1      21.675  32.229  61.026  1.00  0.00     0.283 C 
HETATM   24  C   UNL     1      19.835  37.344  59.203  1.00  0.00     0.283 C 
HETATM   25  C   UNL     1      23.810  31.539  57.937  1.00  0.00     0.153 C 
HETATM   26  C   UNL     1      20.293  37.994  55.968  1.00  0.00     0.153 C 
HETATM   27  C   UNL     1      20.100  33.012  58.367  1.00  0.00     0.153 C 
ENDROOT
BRANCH  17  28
HETATM   28  C   UNL     1      23.485  37.702  54.940  1.00  0.00     0.016 C 
HETATM   29  C   UNL     1      24.977  37.464  54.708  1.00  0.00     0.012 C 
HETATM   30  C   UNL     1      22.760  37.892  53.609  1.00  0.00     0.012 C 
ENDBRANCH  17  28
BRANCH  13  31
HETATM   31  C   UNL     1      25.302  32.597  55.674  1.00  0.00     0.014 C 
HETATM   32  C   UNL     1      25.665  33.391  54.418  1.00  0.00     0.012 C 
BRANCH  31  33
HETATM   33  C   UNL     1      26.493  31.790  56.219  1.00  0.00     0.002 C 
HETATM   34  C   UNL     1      27.704  32.644  56.568  1.00  0.00     0.005 C 
ENDBRANCH  31  33
ENDBRANCH  13  31
BRANCH  14  35
HETATM   35  C   UNL     1      20.067  39.677  58.340  1.00  0.00     0.010 C 
HETATM   36  C   UNL     1      18.555  39.553  58.521  1.00  0.00     0.012 C 
HETATM   37  C   UNL     1      20.653  40.634  59.377  1.00  0.00     0.012 C 
ENDBRANCH  14  35
BRANCH  16  38
HETATM   38  C   UNL     1      24.257  33.860  61.700  1.00  0.00     0.016 C 
HETATM   39  C   UNL     1      24.802  32.934  62.786  1.00  0.00     0.012 C 
HETATM   40  C   UNL     1      23.077  34.671  62.233  1.00  0.00     0.012 C 
ENDBRANCH  16  38
BRANCH  18  41
HETATM   41  C   UNL     1      17.149  36.007  59.298  1.00  0.00     0.016 C 
HETATM   42  C   UNL     1      16.199  35.004  59.947  1.00  0.00     0.012 C 
HETATM   43  C   UNL     1      16.512  36.622  58.053  1.00  0.00     0.012 C 
ENDBRANCH  18  41
BRANCH  15  44
HETATM   44  C   UNL     1      19.507  31.047  60.570  1.00  0.00     0.010 C 
HETATM   45  C   UNL     1      18.029  31.229  60.237  1.00  0.00     0.012 C 
HETATM   46  C   UNL     1      19.678  30.148  61.792  1.00  0.00     0.012 C 
ENDBRANCH  15  44
TORSDOF 7
ENDMDL
MODEL 7
REMARK VINA RESULT:    -4.603      2.068      6.628
REMARK INTER + INTRA:          -5.407
REMARK INTER:                  -6.124
REMARK INTRA:                   0.718
REMARK UNBOUND:                 1.080
REMARK  7 active torsions:
REMARK  status: ('A' for Active; 'I' for Inactive)
REMARK    1  A    between atoms: C_13  and  C_14 
REMARK    2  A    between atoms: C_14  and  C_19 
REMARK    3  A    between atoms: C_15  and  C_20 
REMARK    4  A    between atoms: C_16  and  C_21 
REMARK    5  A    between atoms: C_17  and  C_23 
REMARK    6  A    between atoms: C_18  and  C_26 
REMARK    7  A    between atoms: C_22  and  C_28 
ROOT
HETATM    1  O   UNL     1      19.601  33.496  60.519  1.00  0.00    -0.304 OA
HETATM    2  O   UNL     1      22.055  37.349  57.983  1.00  0.00    -0.304 OA
HETATM    3  O   UNL     1      23.849  32.992  57.606  1.00  0.00    -0.304 OA
HETATM    4  O   UNL     1      20.970  36.654  60.906  1.00  0.00    -0.270 OA
HETATM    5  O   UNL     1      19.461  33.942  58.261  1.00  0.00    -0.263 OA
HETATM    6  O   UNL     1      22.146  33.965  60.660  1.00  0.00    -0.270 OA
HETATM    7  O   UNL     1      25.353  35.563  56.328  1.00  0.00    -0.270 OA
HETATM    8  O   UNL     1      22.287  39.258  56.726  1.00  0.00    -0.263 OA
HETATM    9  O   UNL     1      25.832  33.669  58.557  1.00  0.00    -0.263 OA
HETATM   10  N   UNL     1      19.394  36.623  59.203  1.00  0.00    -0.340 N 
HETATM   11  N   UNL     1      22.875  31.940  59.811  1.00  0.00    -0.340 N 
HETATM   12  N   UNL     1      23.043  35.716  56.100  1.00  0.00    -0.340 N 
HETATM   13  C   UNL     1      18.638  35.554  59.887  1.00  0.00     0.190 C 
HETATM   14  C   UNL     1      24.281  32.391  59.890  1.00  0.00     0.190 C 
HETATM   15  C   UNL     1      23.086  37.166  55.818  1.00  0.00     0.190 C 
HETATM   16  C   UNL     1      21.426  38.090  59.047  1.00  0.00     0.227 C 
HETATM   17  C   UNL     1      20.432  32.338  60.286  1.00  0.00     0.227 C 
HETATM   18  C   UNL     1      24.159  33.480  56.289  1.00  0.00     0.227 C 
HETATM   19  C   UNL     1      20.585  37.066  59.806  1.00  0.00     0.250 C 
HETATM   20  C   UNL     1      19.262  34.247  59.430  1.00  0.00     0.283 C 
HETATM   21  C   UNL     1      21.885  32.823  60.266  1.00  0.00     0.250 C 
HETATM   22  C   UNL     1      24.251  35.012  56.251  1.00  0.00     0.250 C 
HETATM   23  C   UNL     1      22.424  38.048  56.874  1.00  0.00     0.283 C 
HETATM   24  C   UNL     1      24.745  33.106  58.623  1.00  0.00     0.283 C 
HETATM   25  C   UNL     1      18.873  37.122  57.926  1.00  0.00     0.153 C 
HETATM   26  C   UNL     1      22.610  30.622  59.230  1.00  0.00     0.153 C 
HETATM   27  C   UNL     1      21.742  35.051  56.029  1.00  0.00     0.153 C 
ENDROOT
BRANCH  17  28
HETATM   28  C   UNL     1      20.199  31.387  61.450  1.00  0.00     0.016 C 
HETATM   29  C   UNL     1      20.358  32.117  62.783  1.00  0.00     0.012 C 
HETATM   30  C   UNL     1      18.816  30.745  61.354  1.00  0.00     0.012 C 
ENDBRANCH  17  28
BRANCH  13  31
HETATM   31  C   UNL     1      17.134  35.535  59.637  1.00  0.00     0.014 C 
HETATM   32  C   UNL     1      16.535  34.233  60.170  1.00  0.00     0.012 C 
BRANCH  31  33
HETATM   33  C   UNL     1      16.481  36.779  60.266  1.00  0.00     0.002 C 
HETATM   34  C   UNL     1      15.227  37.246  59.540  1.00  0.00     0.005 C 
ENDBRANCH  31  33
ENDBRANCH  13  31
BRANCH  14  35
HETATM   35  C   UNL     1      25.266  31.277  60.243  1.00  0.00     0.010 C 
HETATM   36  C   UNL     1      26.124  30.912  59.034  1.00  0.00     0.012 C 
HETATM   37  C   UNL     1      26.148  31.689  61.421  1.00  0.00     0.012 C 
ENDBRANCH  14  35
BRANCH  16  38
HETATM   38  C   UNL     1      22.513  38.694  59.932  1.00  0.00     0.016 C 
HETATM   39  C   UNL     1      22.529  40.216  59.804  1.00  0.00     0.012 C 
HETATM   40  C   UNL     1      23.881  38.113  59.578  1.00  0.00     0.012 C 
ENDBRANCH  16  38
BRANCH  18  41
HETATM   41  C   UNL     1      25.399  32.800  55.709  1.00  0.00     0.016 C 
HETATM   42  C   UNL     1      25.753  33.399  54.350  1.00  0.00     0.012 C 
HETATM   43  C   UNL     1      25.180  31.293  55.591  1.00  0.00     0.012 C 
ENDBRANCH  18  41
BRANCH  15  44
HETATM   44  C   UNL     1      22.526  37.479  54.431  1.00  0.00     0.010 C 
HETATM   45  C   UNL     1      23.502  38.348  53.643  1.00  0.00     0.012 C 
HETATM   46  C   UNL     1      21.167  38.164  54.546  1.00  0.00     0.012 C 
ENDBRANCH  15  44
TORSDOF 7
ENDMDL
MODEL 8
REMARK VINA RESULT:    -4.573      1.852      6.658
REMARK INTER + INTRA:          -5.364
REMARK INTER:                  -7.026
REMARK INTRA:                   1.662
REMARK UNBOUND:                 1.080
REMARK  7 active torsions:
REMARK  status: ('A' for Active; 'I' for Inactive)
REMARK    1  A    between atoms: C_13  and  C_14 
REMARK    2  A    between atoms: C_14  and  C_19 
REMARK    3  A    between atoms: C_15  and  C_20 
REMARK    4  A    between atoms: C_16  and  C_21 
REMARK    5  A    between atoms: C_17  and  C_23 
REMARK    6  A    between atoms: C_18  and  C_26 
REMARK    7  A    between atoms: C_22  and  C_28 
ROOT
HETATM    1  O   UNL     1      18.127  37.492  57.741  1.00  0.00    -0.304 OA
HETATM    2  O   UNL     1      23.299  37.276  57.041  1.00  0.00    -0.304 OA
HETATM    3  O   UNL     1      21.223  33.594  59.155  1.00  0.00    -0.304 OA
HETATM    4  O   UNL     1      21.080  39.228  58.251  1.00  0.00    -0.270 OA
HETATM    5  O   UNL     1      19.228  36.296  56.105  1.00  0.00    -0.263 OA
HETATM    6  O   UNL     1      19.842  36.920  59.598  1.00  0.00    -0.270 OA
HETATM    7  O   UNL     1      24.445  33.781  58.852  1.00  0.00    -0.270 OA
HETATM    8  O   UNL     1      25.314  37.542  55.968  1.00  0.00    -0.263 OA
HETATM    9  O   UNL     1      22.473  33.915  61.061  1.00  0.00    -0.263 OA
HETATM   10  N   UNL     1      20.818  38.651  56.019  1.00  0.00    -0.340 N 
HETATM   11  N   UNL     1      19.072  34.792  60.077  1.00  0.00    -0.340 N 
HETATM   12  N   UNL     1      23.354  34.597  56.966  1.00  0.00    -0.340 N 
HETATM   13  C   UNL     1      19.348  38.727  56.145  1.00  0.00     0.190 C 
HETATM   14  C   UNL     1      20.160  34.599  61.059  1.00  0.00     0.190 C 
HETATM   15  C   UNL     1      24.556  35.305  56.478  1.00  0.00     0.190 C 
HETATM   16  C   UNL     1      23.095  38.703  57.074  1.00  0.00     0.227 C 
HETATM   17  C   UNL     1      17.823  36.289  58.480  1.00  0.00     0.227 C 
HETATM   18  C   UNL     1      22.253  32.891  58.437  1.00  0.00     0.227 C 
HETATM   19  C   UNL     1      21.583  38.889  57.174  1.00  0.00     0.250 C 
HETATM   20  C   UNL     1      18.903  37.355  56.625  1.00  0.00     0.283 C 
HETATM   21  C   UNL     1      18.999  36.032  59.426  1.00  0.00     0.250 C 
HETATM   22  C   UNL     1      23.451  33.798  58.119  1.00  0.00     0.250 C 
HETATM   23  C   UNL     1      24.440  36.826  56.448  1.00  0.00     0.283 C 
HETATM   24  C   UNL     1      21.425  34.015  60.433  1.00  0.00     0.283 C 
HETATM   25  C   UNL     1      21.376  38.298  54.710  1.00  0.00     0.153 C 
HETATM   26  C   UNL     1      18.168  33.667  59.826  1.00  0.00     0.153 C 
HETATM   27  C   UNL     1      22.162  34.621  56.117  1.00  0.00     0.153 C 
ENDROOT
BRANCH  17  28
HETATM   28  C   UNL     1      16.551  36.566  59.268  1.00  0.00     0.016 C 
HETATM   29  C   UNL     1      16.578  37.975  59.858  1.00  0.00     0.012 C 
HETATM   30  C   UNL     1      15.317  36.379  58.386  1.00  0.00     0.012 C 
ENDBRANCH  17  28
BRANCH  13  31
HETATM   31  C   UNL     1      18.588  39.113  54.881  1.00  0.00     0.014 C 
HETATM   32  C   UNL     1      17.609  38.001  54.502  1.00  0.00     0.012 C 
BRANCH  31  33
HETATM   33  C   UNL     1      17.884  40.467  55.085  1.00  0.00     0.002 C 
HETATM   34  C   UNL     1      17.570  41.196  53.786  1.00  0.00     0.005 C 
ENDBRANCH  31  33
ENDBRANCH  13  31
BRANCH  14  35
HETATM   35  C   UNL     1      19.753  33.762  62.272  1.00  0.00     0.010 C 
HETATM   36  C   UNL     1      18.532  34.367  62.960  1.00  0.00     0.012 C 
HETATM   37  C   UNL     1      19.475  32.316  61.862  1.00  0.00     0.012 C 
ENDBRANCH  14  35
BRANCH  16  38
HETATM   38  C   UNL     1      23.815  39.272  58.294  1.00  0.00     0.016 C 
HETATM   39  C   UNL     1      24.999  40.137  57.865  1.00  0.00     0.012 C 
HETATM   40  C   UNL     1      24.281  38.148  59.218  1.00  0.00     0.012 C 
ENDBRANCH  16  38
BRANCH  18  41
HETATM   41  C   UNL     1      22.662  31.601  59.147  1.00  0.00     0.016 C 
HETATM   42  C   UNL     1      23.693  30.837  58.320  1.00  0.00     0.012 C 
HETATM   43  C   UNL     1      21.438  30.728  59.418  1.00  0.00     0.012 C 
ENDBRANCH  18  41
BRANCH  15  44
HETATM   44  C   UNL     1      24.997  34.774  55.113  1.00  0.00     0.010 C 
HETATM   45  C   UNL     1      23.958  35.112  54.047  1.00  0.00     0.012 C 
HETATM   46  C   UNL     1      25.233  33.268  55.177  1.00  0.00     0.012 C 
ENDBRANCH  15  44
TORSDOF 7
ENDMDL
MODEL 9
REMARK VINA RESULT:    -4.553      3.691      7.746
REMARK INTER + INTRA:          -5.336
REMARK INTER:                  -6.423
REMARK INTRA:                   1.088
REMARK UNBOUND:                 1.080
REMARK  7 active torsions:
REMARK  status: ('A' for Active; 'I' for Inactive)
REMARK    1  A    between atoms: C_13  and  C_14 
REMARK    2  A    between atoms: C_14  and  C_19 
REMARK    3  A    between atoms: C_15  and  C_20 
REMARK    4  A    between atoms: C_16  and  C_21 
REMARK    5  A    between atoms: C_17  and  C_23 
REMARK    6  A    between atoms: C_18  and  C_26 
REMARK    7  A    between atoms: C_22  and  C_28 
ROOT
HETATM    1  O   UNL     1      20.470  44.190  56.762  1.00  0.00    -0.304 OA
HETATM    2  O   UNL     1      19.238  39.143  56.214  1.00  0.00    -0.304 OA
HETATM    3  O   UNL     1      23.788  40.222  56.908  1.00  0.00    -0.304 OA
HETATM    4  O   UNL     1      18.797  41.938  54.731  1.00  0.00    -0.270 OA
HETATM    5  O   UNL     1      20.281  42.645  58.464  1.00  0.00    -0.263 OA
HETATM    6  O   UNL     1      21.649  42.555  55.134  1.00  0.00    -0.270 OA
HETATM    7  O   UNL     1      22.839  37.184  56.290  1.00  0.00    -0.270 OA
HETATM    8  O   UNL     1      18.024  37.210  56.472  1.00  0.00    -0.263 OA
HETATM    9  O   UNL     1      24.371  39.296  54.883  1.00  0.00    -0.263 OA
HETATM   10  N   UNL     1      18.041  41.819  56.922  1.00  0.00    -0.340 N 
HETATM   11  N   UNL     1      23.773  42.704  56.040  1.00  0.00    -0.340 N 
HETATM   12  N   UNL     1      21.327  38.296  57.665  1.00  0.00    -0.340 N 
HETATM   13  C   UNL     1      18.338  43.251  57.130  1.00  0.00     0.190 C 
HETATM   14  C   UNL     1      24.274  41.698  55.078  1.00  0.00     0.190 C 
HETATM   15  C   UNL     1      20.250  37.317  57.407  1.00  0.00     0.190 C 
HETATM   16  C   UNL     1      18.157  39.761  55.489  1.00  0.00     0.227 C 
HETATM   17  C   UNL     1      21.911  44.191  56.860  1.00  0.00     0.227 C 
HETATM   18  C   UNL     1      23.741  38.971  57.617  1.00  0.00     0.227 C 
HETATM   19  C   UNL     1      18.359  41.263  55.670  1.00  0.00     0.250 C 
HETATM   20  C   UNL     1      19.794  43.313  57.561  1.00  0.00     0.283 C 
HETATM   21  C   UNL     1      22.425  43.080  55.940  1.00  0.00     0.250 C 
HETATM   22  C   UNL     1      22.602  38.070  57.117  1.00  0.00     0.250 C 
HETATM   23  C   UNL     1      19.039  37.873  56.663  1.00  0.00     0.283 C 
HETATM   24  C   UNL     1      24.138  40.268  55.594  1.00  0.00     0.283 C 
HETATM   25  C   UNL     1      17.470  41.067  58.045  1.00  0.00     0.153 C 
HETATM   26  C   UNL     1      24.705  43.209  57.050  1.00  0.00     0.153 C 
HETATM   27  C   UNL     1      21.057  39.361  58.631  1.00  0.00     0.153 C 
ENDROOT
BRANCH  17  28
HETATM   28  C   UNL     1      22.385  45.553  56.374  1.00  0.00     0.016 C 
HETATM   29  C   UNL     1      22.027  45.754  54.902  1.00  0.00     0.012 C 
HETATM   30  C   UNL     1      21.786  46.669  57.228  1.00  0.00     0.012 C 
ENDBRANCH  17  28
BRANCH  13  31
HETATM   31  C   UNL     1      17.458  43.976  58.143  1.00  0.00     0.014 C 
HETATM   32  C   UNL     1      18.165  45.240  58.634  1.00  0.00     0.012 C 
BRANCH  31  33
HETATM   33  C   UNL     1      16.083  44.279  57.521  1.00  0.00     0.002 C 
HETATM   34  C   UNL     1      14.910  43.804  58.367  1.00  0.00     0.005 C 
ENDBRANCH  31  33
ENDBRANCH  13  31
BRANCH  14  35
HETATM   35  C   UNL     1      25.711  41.947  54.621  1.00  0.00     0.010 C 
HETATM   36  C   UNL     1      26.427  40.625  54.348  1.00  0.00     0.012 C 
HETATM   37  C   UNL     1      25.736  42.835  53.377  1.00  0.00     0.012 C 
ENDBRANCH  14  35
BRANCH  16  38
HETATM   38  C   UNL     1      18.255  39.352  54.021  1.00  0.00     0.016 C 
HETATM   39  C   UNL     1      17.284  38.213  53.714  1.00  0.00     0.012 C 
HETATM   40  C   UNL     1      19.685  38.946  53.669  1.00  0.00     0.012 C 
ENDBRANCH  16  38
BRANCH  18  41
HETATM   41  C   UNL     1      25.096  38.265  57.615  1.00  0.00     0.016 C 
HETATM   42  C   UNL     1      25.087  37.083  58.582  1.00  0.00     0.012 C 
HETATM   43  C   UNL     1      26.211  39.244  57.975  1.00  0.00     0.012 C 
ENDBRANCH  18  41
BRANCH  15  44
HETATM   44  C   UNL     1      19.813  36.620  58.696  1.00  0.00     0.010 C 
HETATM   45  C   UNL     1      19.655  35.120  58.465  1.00  0.00     0.012 C 
HETATM   46  C   UNL     1      18.512  37.225  59.215  1.00  0.00     0.012 C 
ENDBRANCH  15  44
TORSDOF 7
ENDMDL
MODEL 10
REMARK VINA RESULT:    -4.550      2.170      6.527
REMARK INTER + INTRA:          -5.332
REMARK INTER:                  -6.022
REMARK INTRA:                   0.690
REMARK UNBOUND:                 1.080
REMARK  7 active torsions:
REMARK  status: ('A' for Active; 'I' for Inactive)
REMARK    1  A    between atoms: C_13  and  C_14 
REMARK    2  A    between atoms: C_14  and  C_19 
REMARK    3  A    between atoms: C_15  and  C_20 
REMARK    4  A    between atoms: C_16  and  C_21 
REMARK    5  A    between atoms: C_17  and  C_23 
REMARK    6  A    between atoms: C_18  and  C_26 
REMARK    7  A    between atoms: C_22  and  C_28 
ROOT
HETATM    1  O   UNL     1      20.100  33.022  60.626  1.00  0.00    -0.304 OA
HETATM    2  O   UNL     1      19.994  37.772  58.453  1.00  0.00    -0.304 OA
HETATM    3  O   UNL     1      23.532  34.885  57.231  1.00  0.00    -0.304 OA
HETATM    4  O   UNL     1      19.869  36.404  61.337  1.00  0.00    -0.270 OA
HETATM    5  O   UNL     1      19.391  33.524  58.490  1.00  0.00    -0.263 OA
HETATM    6  O   UNL     1      22.110  34.657  60.561  1.00  0.00    -0.270 OA
HETATM    7  O   UNL     1      23.416  37.957  56.202  1.00  0.00    -0.270 OA
HETATM    8  O   UNL     1      19.089  39.647  57.483  1.00  0.00    -0.263 OA
HETATM    9  O   UNL     1      25.093  36.363  58.054  1.00  0.00    -0.263 OA
HETATM   10  N   UNL     1      18.233  35.747  59.829  1.00  0.00    -0.340 N 
HETATM   11  N   UNL     1      23.551  33.319  59.342  1.00  0.00    -0.340 N 
HETATM   12  N   UNL     1      21.303  36.985  56.250  1.00  0.00    -0.340 N 
HETATM   13  C   UNL     1      18.193  34.394  60.421  1.00  0.00     0.190 C 
HETATM   14  C   UNL     1      24.571  34.389  59.337  1.00  0.00     0.190 C 
HETATM   15  C   UNL     1      20.612  38.290  56.188  1.00  0.00     0.190 C 
HETATM   16  C   UNL     1      19.279  38.024  59.679  1.00  0.00     0.227 C 
HETATM   17  C   UNL     1      21.326  32.438  60.132  1.00  0.00     0.227 C 
HETATM   18  C   UNL     1      23.352  35.567  55.976  1.00  0.00     0.227 C 
HETATM   19  C   UNL     1      19.158  36.664  60.360  1.00  0.00     0.250 C 
HETATM   20  C   UNL     1      19.272  33.598  59.706  1.00  0.00     0.283 C 
HETATM   21  C   UNL     1      22.354  33.568  60.030  1.00  0.00     0.250 C 
HETATM   22  C   UNL     1      22.705  36.948  56.161  1.00  0.00     0.250 C 
HETATM   23  C   UNL     1      19.801  38.649  57.430  1.00  0.00     0.283 C 
HETATM   24  C   UNL     1      24.426  35.338  58.150  1.00  0.00     0.283 C 
HETATM   25  C   UNL     1      17.333  36.030  58.706  1.00  0.00     0.153 C 
HETATM   26  C   UNL     1      23.843  32.090  58.600  1.00  0.00     0.153 C 
HETATM   27  C   UNL     1      20.475  35.778  56.219  1.00  0.00     0.153 C 
ENDROOT
BRANCH  17  28
HETATM   28  C   UNL     1      21.765  31.403  61.158  1.00  0.00     0.016 C 
HETATM   29  C   UNL     1      21.192  31.732  62.536  1.00  0.00     0.012 C 
HETATM   30  C   UNL     1      21.343  30.000  60.724  1.00  0.00     0.012 C 
ENDBRANCH  17  28
BRANCH  13  31
HETATM   31  C   UNL     1      16.856  33.666  60.334  1.00  0.00     0.014 C 
HETATM   32  C   UNL     1      17.073  32.161  60.504  1.00  0.00     0.012 C 
BRANCH  31  33
HETATM   33  C   UNL     1      15.878  34.237  61.376  1.00  0.00     0.002 C 
HETATM   34  C   UNL     1      14.503  33.585  61.347  1.00  0.00     0.005 C 
ENDBRANCH  31  33
ENDBRANCH  13  31
BRANCH  14  35
HETATM   35  C   UNL     1      26.007  33.870  59.410  1.00  0.00     0.010 C 
HETATM   36  C   UNL     1      26.691  33.983  58.049  1.00  0.00     0.012 C 
HETATM   37  C   UNL     1      26.802  34.628  60.472  1.00  0.00     0.012 C 
ENDBRANCH  14  35
BRANCH  16  38
HETATM   38  C   UNL     1      20.086  39.008  60.523  1.00  0.00     0.016 C 
HETATM   39  C   UNL     1      19.365  40.351  60.623  1.00  0.00     0.012 C 
HETATM   40  C   UNL     1      21.487  39.194  59.941  1.00  0.00     0.012 C 
ENDBRANCH  16  38
BRANCH  18  41
HETATM   41  C   UNL     1      24.649  35.626  55.170  1.00  0.00     0.016 C 
HETATM   42  C   UNL     1      24.488  36.544  53.961  1.00  0.00     0.012 C 
HETATM   43  C   UNL     1      25.071  34.226  54.730  1.00  0.00     0.012 C 
ENDBRANCH  18  41
BRANCH  15  44
HETATM   44  C   UNL     1      19.747  38.401  54.932  1.00  0.00     0.010 C 
HETATM   45  C   UNL     1      19.972  39.745  54.245  1.00  0.00     0.012 C 
HETATM   46  C   UNL     1      18.274  38.213  55.280  1.00  0.00     0.012 C 
ENDBRANCH  15  44
TORSDOF 7
ENDMDL
MODEL 11
REMARK VINA RESULT:    -4.521      3.916      8.028
REMARK INTER + INTRA:          -5.290
REMARK INTER:                  -6.171
REMARK INTRA:                   0.880
REMARK UNBOUND:                 1.080
REMARK  7 active torsions:
REMARK  status: ('A' for Active; 'I' for Inactive)
REMARK    1  A    between atoms: C_13  and  C_14 
REMARK    2  A    between atoms: C_14  and  C_19 
REMARK    3  A    between atoms: C_15  and  C_20 
REMARK    4  A    between atoms: C_16  and  C_21 
REMARK    5  A    between atoms: C_17  and  C_23 
REMARK    6  A    between atoms: C_18  and  C_26 
REMARK    7  A    between atoms: C_22  and  C_28 
ROOT
HETATM    1  O   UNL     1      18.736  40.325  55.764  1.00  0.00    -0.304 OA
HETATM    2  O   UNL     1      22.016  42.947  58.872  1.00  0.00    -0.304 OA
HETATM    3  O   UNL     1      23.845  39.578  56.105  1.00  0.00    -0.304 OA
HETATM    4  O   UNL     1      19.269  41.325  59.037  1.00  0.00    -0.270 OA
HETATM    5  O   UNL     1      20.154  42.025  55.118  1.00  0.00    -0.263 OA
HETATM    6  O   UNL     1      20.457  39.219  57.355  1.00  0.00    -0.270 OA
HETATM    7  O   UNL     1      25.655  41.147  58.290  1.00  0.00    -0.270 OA
HETATM    8  O   UNL     1      22.928  44.751  59.963  1.00  0.00    -0.263 OA
HETATM    9  O   UNL     1      24.591  38.403  57.939  1.00  0.00    -0.263 OA
HETATM   10  N   UNL     1      19.295  43.138  57.588  1.00  0.00    -0.340 N 
HETATM   11  N   UNL     1      21.693  38.112  55.742  1.00  0.00    -0.340 N 
HETATM   12  N   UNL     1      24.125  42.566  57.260  1.00  0.00    -0.340 N 
HETATM   13  C   UNL     1      18.343  42.462  56.683  1.00  0.00     0.190 C 
HETATM   14  C   UNL     1      22.630  37.618  56.773  1.00  0.00     0.190 C 
HETATM   15  C   UNL     1      24.260  43.602  58.305  1.00  0.00     0.190 C 
HETATM   16  C   UNL     1      20.785  43.086  59.608  1.00  0.00     0.227 C 
HETATM   17  C   UNL     1      19.570  39.328  55.135  1.00  0.00     0.227 C 
HETATM   18  C   UNL     1      24.944  40.508  56.087  1.00  0.00     0.227 C 
HETATM   19  C   UNL     1      19.718  42.436  58.731  1.00  0.00     0.250 C 
HETATM   20  C   UNL     1      19.190  41.613  55.750  1.00  0.00     0.283 C 
HETATM   21  C   UNL     1      20.608  38.890  56.173  1.00  0.00     0.250 C 
HETATM   22  C   UNL     1      24.941  41.423  57.320  1.00  0.00     0.250 C 
HETATM   23  C   UNL     1      23.001  43.850  59.133  1.00  0.00     0.283 C 
HETATM   24  C   UNL     1      23.792  38.577  57.025  1.00  0.00     0.283 C 
HETATM   25  C   UNL     1      19.761  44.478  57.215  1.00  0.00     0.153 C 
HETATM   26  C   UNL     1      21.980  37.789  54.343  1.00  0.00     0.153 C 
HETATM   27  C   UNL     1      23.270  42.870  56.111  1.00  0.00     0.153 C 
ENDROOT
BRANCH  17  28
HETATM   28  C   UNL     1      18.661  38.166  54.761  1.00  0.00     0.016 C 
HETATM   29  C   UNL     1      17.894  37.665  55.984  1.00  0.00     0.012 C 
HETATM   30  C   UNL     1      17.693  38.574  53.652  1.00  0.00     0.012 C 
ENDBRANCH  17  28
BRANCH  13  31
HETATM   31  C   UNL     1      17.424  43.373  55.877  1.00  0.00     0.014 C 
HETATM   32  C   UNL     1      17.066  42.706  54.548  1.00  0.00     0.012 C 
BRANCH  31  33
HETATM   33  C   UNL     1      16.177  43.729  56.706  1.00  0.00     0.002 C 
HETATM   34  C   UNL     1      14.900  43.821  55.883  1.00  0.00     0.005 C 
ENDBRANCH  31  33
ENDBRANCH  13  31
BRANCH  14  35
HETATM   35  C   UNL     1      23.172  36.217  56.492  1.00  0.00     0.010 C 
HETATM   36  C   UNL     1      24.653  36.273  56.126  1.00  0.00     0.012 C 
HETATM   37  C   UNL     1      22.953  35.301  57.696  1.00  0.00     0.012 C 
ENDBRANCH  14  35
BRANCH  16  38
HETATM   38  C   UNL     1      20.930  42.367  60.946  1.00  0.00     0.016 C 
HETATM   39  C   UNL     1      20.945  43.369  62.098  1.00  0.00     0.012 C 
HETATM   40  C   UNL     1      22.196  41.512  60.964  1.00  0.00     0.012 C 
ENDBRANCH  16  38
BRANCH  18  41
HETATM   41  C   UNL     1      26.282  39.801  55.879  1.00  0.00     0.016 C 
HETATM   42  C   UNL     1      27.429  40.808  55.896  1.00  0.00     0.012 C 
HETATM   43  C   UNL     1      26.277  39.016  54.569  1.00  0.00     0.012 C 
ENDBRANCH  18  41
BRANCH  15  44
HETATM   44  C   UNL     1      24.785  44.914  57.722  1.00  0.00     0.010 C 
HETATM   45  C   UNL     1      25.805  44.640  56.621  1.00  0.00     0.012 C 
HETATM   46  C   UNL     1      25.396  45.780  58.820  1.00  0.00     0.012 C 
ENDBRANCH  15  44
TORSDOF 7
ENDMDL
MODEL 12
REMARK VINA RESULT:    -4.508      1.844      2.513
REMARK INTER + INTRA:          -5.272
REMARK INTER:                  -6.710
REMARK INTRA:                   1.437
REMARK UNBOUND:                 1.080
REMARK  7 active torsions:
REMARK  status: ('A' for Active; 'I' for Inactive)
REMARK    1  A    between atoms: C_13  and  C_14 
REMARK    2  A    between atoms: C_14  and  C_19 
REMARK    3  A    between atoms: C_15  and  C_20 
REMARK    4  A    between atoms: C_16  and  C_21 
REMARK    5  A    between atoms: C_17  and  C_23 
REMARK    6  A    between atoms: C_18  and  C_26 
REMARK    7  A    between atoms: C_22  and  C_28 
ROOT
HETATM    1  O   UNL     1      18.614  37.094  56.856  1.00  0.00    -0.304 OA
HETATM    2  O   UNL     1      22.292  34.376  59.380  1.00  0.00    -0.304 OA
HETATM    3  O   UNL     1      23.617  38.364  57.215  1.00  0.00    -0.304 OA
HETATM    4  O   UNL     1      20.008  33.941  57.190  1.00  0.00    -0.270 OA
HETATM    5  O   UNL     1      19.488  37.592  58.930  1.00  0.00    -0.263 OA
HETATM    6  O   UNL     1      20.894  36.402  55.836  1.00  0.00    -0.270 OA
HETATM    7  O   UNL     1      25.778  36.397  58.619  1.00  0.00    -0.270 OA
HETATM    8  O   UNL     1      23.230  33.109  61.052  1.00  0.00    -0.263 OA
HETATM    9  O   UNL     1      25.071  37.206  55.857  1.00  0.00    -0.263 OA
HETATM   10  N   UNL     1      19.306  34.773  59.240  1.00  0.00    -0.340 N 
HETATM   11  N   UNL     1      21.700  38.531  55.424  1.00  0.00    -0.340 N 
HETATM   12  N   UNL     1      23.810  36.535  59.852  1.00  0.00    -0.340 N 
HETATM   13  C   UNL     1      18.226  35.540  58.588  1.00  0.00     0.190 C 
HETATM   14  C   UNL     1      22.978  37.973  54.934  1.00  0.00     0.190 C 
HETATM   15  C   UNL     1      24.118  35.317  60.631  1.00  0.00     0.190 C 
HETATM   16  C   UNL     1      21.352  33.328  59.071  1.00  0.00     0.227 C 
HETATM   17  C   UNL     1      19.341  38.178  56.237  1.00  0.00     0.227 C 
HETATM   18  C   UNL     1      24.505  38.415  58.347  1.00  0.00     0.227 C 
HETATM   19  C   UNL     1      20.169  34.032  58.412  1.00  0.00     0.250 C 
HETATM   20  C   UNL     1      18.847  36.867  58.182  1.00  0.00     0.283 C 
HETATM   21  C   UNL     1      20.707  37.624  55.821  1.00  0.00     0.250 C 
HETATM   22  C   UNL     1      24.761  37.020  58.938  1.00  0.00     0.250 C 
HETATM   23  C   UNL     1      23.166  34.146  60.399  1.00  0.00     0.283 C 
HETATM   24  C   UNL     1      24.006  37.784  56.048  1.00  0.00     0.283 C 
HETATM   25  C   UNL     1      19.429  34.865  60.698  1.00  0.00     0.153 C 
HETATM   26  C   UNL     1      21.571  39.988  55.495  1.00  0.00     0.153 C 
HETATM   27  C   UNL     1      22.600  37.278  60.207  1.00  0.00     0.153 C 
ENDROOT
BRANCH  17  28
HETATM   28  C   UNL     1      18.540  38.605  55.016  1.00  0.00     0.016 C 
HETATM   29  C   UNL     1      17.499  37.546  54.656  1.00  0.00     0.012 C 
HETATM   30  C   UNL     1      17.868  39.956  55.256  1.00  0.00     0.012 C 
ENDBRANCH  17  28
BRANCH  13  31
HETATM   31  C   UNL     1      16.976  35.780  59.428  1.00  0.00     0.014 C 
HETATM   32  C   UNL     1      15.947  36.568  58.615  1.00  0.00     0.012 C 
BRANCH  31  33
HETATM   33  C   UNL     1      16.417  34.437  59.931  1.00  0.00     0.002 C 
HETATM   34  C   UNL     1      15.258  34.584  60.907  1.00  0.00     0.005 C 
ENDBRANCH  31  33
ENDBRANCH  13  31
BRANCH  14  35
HETATM   35  C   UNL     1      23.600  38.772  53.789  1.00  0.00     0.010 C 
HETATM   36  C   UNL     1      22.537  39.167  52.766  1.00  0.00     0.012 C 
HETATM   37  C   UNL     1      24.316  40.012  54.323  1.00  0.00     0.012 C 
ENDBRANCH  14  35
BRANCH  16  38
HETATM   38  C   UNL     1      22.019  32.336  58.122  1.00  0.00     0.016 C 
HETATM   39  C   UNL     1      22.235  30.991  58.812  1.00  0.00     0.012 C 
HETATM   40  C   UNL     1      23.346  32.892  57.606  1.00  0.00     0.012 C 
ENDBRANCH  16  38
BRANCH  18  41
HETATM   41  C   UNL     1      25.796  39.165  58.023  1.00  0.00     0.016 C 
HETATM   42  C   UNL     1      26.728  39.175  59.232  1.00  0.00     0.012 C 
HETATM   43  C   UNL     1      25.489  40.591  57.570  1.00  0.00     0.012 C 
ENDBRANCH  18  41
BRANCH  15  44
HETATM   44  C   UNL     1      24.233  35.626  62.124  1.00  0.00     0.010 C 
HETATM   45  C   UNL     1      25.472  34.960  62.715  1.00  0.00     0.012 C 
HETATM   46  C   UNL     1      22.975  35.175  62.861  1.00  0.00     0.012 C 
ENDBRANCH  15  44
TORSDOF 7
ENDMDL
MODEL 13
REMARK VINA RESULT:    -4.481      3.369      8.192
REMARK INTER + INTRA:          -5.235
REMARK INTER:                  -6.169
REMARK INTRA:                   0.935
REMARK UNBOUND:                 1.080
REMARK  7 active torsions:
REMARK  status: ('A' for Active; 'I' for Inactive)
REMARK    1  A    between atoms: C_13  and  C_14 
REMARK    2  A    between atoms: C_14  and  C_19 
REMARK    3  A    between atoms: C_15  and  C_20 
REMARK    4  A    between atoms: C_16  and  C_21 
REMARK    5  A    between atoms: C_17  and  C_23 
REMARK    6  A    between atoms: C_18  and  C_26 
REMARK    7  A    between atoms: C_22  and  C_28 
ROOT
HETATM    1  O   UNL     1      25.161  39.070  56.806  1.00  0.00    -0.304 OA
HETATM    2  O   UNL     1      19.950  39.022  57.166  1.00  0.00    -0.304 OA
HETATM    3  O   UNL     1      22.042  43.164  56.267  1.00  0.00    -0.304 OA
HETATM    4  O   UNL     1      22.518  38.076  58.812  1.00  0.00    -0.270 OA
HETATM    5  O   UNL     1      23.677  39.112  55.042  1.00  0.00    -0.263 OA
HETATM    6  O   UNL     1      23.772  40.688  58.278  1.00  0.00    -0.270 OA
HETATM    7  O   UNL     1      18.849  42.953  56.783  1.00  0.00    -0.270 OA
HETATM    8  O   UNL     1      17.805  38.250  56.880  1.00  0.00    -0.263 OA
HETATM    9  O   UNL     1      21.196  44.072  58.206  1.00  0.00    -0.263 OA
HETATM   10  N   UNL     1      22.314  37.219  56.665  1.00  0.00    -0.340 N 
HETATM   11  N   UNL     1      24.424  42.660  57.260  1.00  0.00    -0.340 N 
HETATM   12  N   UNL     1      19.644  41.144  55.556  1.00  0.00    -0.340 N 
HETATM   13  C   UNL     1      23.783  37.178  56.514  1.00  0.00     0.190 C 
HETATM   14  C   UNL     1      23.521  43.434  58.139  1.00  0.00     0.190 C 
HETATM   15  C   UNL     1      18.441  40.329  55.825  1.00  0.00     0.190 C 
HETATM   16  C   UNL     1      20.283  37.882  57.983  1.00  0.00     0.227 C 
HETATM   17  C   UNL     1      25.487  40.465  56.626  1.00  0.00     0.227 C 
HETATM   18  C   UNL     1      20.840  43.346  55.499  1.00  0.00     0.227 C 
HETATM   19  C   UNL     1      21.798  37.735  57.867  1.00  0.00     0.250 C 
HETATM   20  C   UNL     1      24.185  38.551  56.004  1.00  0.00     0.283 C 
HETATM   21  C   UNL     1      24.486  41.272  57.456  1.00  0.00     0.250 C 
HETATM   22  C   UNL     1      19.689  42.470  56.017  1.00  0.00     0.250 C 
HETATM   23  C   UNL     1      18.684  39.078  56.665  1.00  0.00     0.283 C 
HETATM   24  C   UNL     1      22.117  43.583  57.559  1.00  0.00     0.283 C 
HETATM   25  C   UNL     1      21.496  36.754  55.541  1.00  0.00     0.153 C 
HETATM   26  C   UNL     1      25.162  43.387  56.225  1.00  0.00     0.153 C 
HETATM   27  C   UNL     1      20.658  40.580  54.662  1.00  0.00     0.153 C 
ENDROOT
BRANCH  17  28
HETATM   28  C   UNL     1      26.902  40.659  57.153  1.00  0.00     0.016 C 
HETATM   29  C   UNL     1      27.155  39.758  58.361  1.00  0.00     0.012 C 
HETATM   30  C   UNL     1      27.929  40.383  56.056  1.00  0.00     0.012 C 
ENDBRANCH  17  28
BRANCH  13  31
HETATM   31  C   UNL     1      24.330  36.093  55.592  1.00  0.00     0.014 C 
HETATM   32  C   UNL     1      25.107  36.733  54.440  1.00  0.00     0.012 C 
BRANCH  31  33
HETATM   33  C   UNL     1      25.190  35.104  56.398  1.00  0.00     0.002 C 
HETATM   34  C   UNL     1      25.382  35.504  57.854  1.00  0.00     0.005 C 
ENDBRANCH  31  33
ENDBRANCH  13  31
BRANCH  14  35
HETATM   35  C   UNL     1      24.067  44.809  58.525  1.00  0.00     0.010 C 
HETATM   36  C   UNL     1      23.273  45.918  57.838  1.00  0.00     0.012 C 
HETATM   37  C   UNL     1      24.042  44.994  60.042  1.00  0.00     0.012 C 
ENDBRANCH  14  35
BRANCH  16  38
HETATM   38  C   UNL     1      19.852  38.167  59.419  1.00  0.00     0.016 C 
HETATM   39  C   UNL     1      18.690  37.261  59.823  1.00  0.00     0.012 C 
HETATM   40  C   UNL     1      19.467  39.636  59.586  1.00  0.00     0.012 C 
ENDBRANCH  16  38
BRANCH  18  41
HETATM   41  C   UNL     1      20.455  44.821  55.387  1.00  0.00     0.016 C 
HETATM   42  C   UNL     1      19.186  44.983  54.553  1.00  0.00     0.012 C 
HETATM   43  C   UNL     1      21.601  45.629  54.782  1.00  0.00     0.012 C 
ENDBRANCH  18  41
BRANCH  15  44
HETATM   44  C   UNL     1      17.712  39.970  54.529  1.00  0.00     0.010 C 
HETATM   45  C   UNL     1      18.518  38.953  53.726  1.00  0.00     0.012 C 
HETATM   46  C   UNL     1      17.449  41.224  53.701  1.00  0.00     0.012 C 
ENDBRANCH  15  44
TORSDOF 7
ENDMDL
MODEL 14
REMARK VINA RESULT:    -4.457      2.390      6.796
REMARK INTER + INTRA:          -5.200
REMARK INTER:                  -6.487
REMARK INTRA:                   1.286
REMARK UNBOUND:                 1.080
REMARK  7 active torsions:
REMARK  status: ('A' for Active; 'I' for Inactive)
REMARK    1  A    between atoms: C_13  and  C_14 
REMARK    2  A    between atoms: C_14  and  C_19 
REMARK    3  A    between atoms: C_15  and  C_20 
REMARK    4  A    between atoms: C_16  and  C_21 
REMARK    5  A    between atoms: C_17  and  C_23 
REMARK    6  A    between atoms: C_18  and  C_26 
REMARK    7  A    between atoms: C_22  and  C_28 
ROOT
HETATM    1  O   UNL     1      19.704  34.402  59.984  1.00  0.00    -0.304 OA
HETATM    2  O   UNL     1      18.766  39.295  58.413  1.00  0.00    -0.304 OA
HETATM    3  O   UNL     1      22.354  36.992  56.372  1.00  0.00    -0.304 OA
HETATM    4  O   UNL     1      19.234  37.645  61.107  1.00  0.00    -0.270 OA
HETATM    5  O   UNL     1      18.624  35.023  58.043  1.00  0.00    -0.263 OA
HETATM    6  O   UNL     1      21.498  36.266  59.822  1.00  0.00    -0.270 OA
HETATM    7  O   UNL     1      21.759  40.113  55.732  1.00  0.00    -0.270 OA
HETATM    8  O   UNL     1      17.531  41.134  57.805  1.00  0.00    -0.263 OA
HETATM    9  O   UNL     1      23.861  38.559  57.129  1.00  0.00    -0.263 OA
HETATM   10  N   UNL     1      17.461  36.947  59.782  1.00  0.00    -0.340 N 
HETATM   11  N   UNL     1      22.863  35.238  58.263  1.00  0.00    -0.340 N 
HETATM   12  N   UNL     1      19.793  38.893  55.969  1.00  0.00    -0.340 N 
HETATM   13  C   UNL     1      17.655  35.548  60.213  1.00  0.00     0.190 C 
HETATM   14  C   UNL     1      23.753  36.419  58.237  1.00  0.00     0.190 C 
HETATM   15  C   UNL     1      18.968  40.105  56.157  1.00  0.00     0.190 C 
HETATM   16  C   UNL     1      18.228  39.337  59.749  1.00  0.00     0.227 C 
HETATM   17  C   UNL     1      20.892  34.022  59.256  1.00  0.00     0.227 C 
HETATM   18  C   UNL     1      21.912  37.767  55.243  1.00  0.00     0.227 C 
HETATM   19  C   UNL     1      18.356  37.912  60.278  1.00  0.00     0.250 C 
HETATM   20  C   UNL     1      18.687  34.962  59.264  1.00  0.00     0.283 C 
HETATM   21  C   UNL     1      21.768  35.272  59.139  1.00  0.00     0.250 C 
HETATM   22  C   UNL     1      21.161  39.035  55.677  1.00  0.00     0.250 C 
HETATM   23  C   UNL     1      18.326  40.239  57.535  1.00  0.00     0.283 C 
HETATM   24  C   UNL     1      23.328  37.456  57.200  1.00  0.00     0.283 C 
HETATM   25  C   UNL     1      16.373  37.229  58.839  1.00  0.00     0.153 C 
HETATM   26  C   UNL     1      23.164  34.133  57.350  1.00  0.00     0.153 C 
HETATM   27  C   UNL     1      19.101  37.604  55.917  1.00  0.00     0.153 C 
ENDROOT
BRANCH  17  28
HETATM   28  C   UNL     1      21.591  32.951  60.081  1.00  0.00     0.016 C 
HETATM   29  C   UNL     1      21.067  32.950  61.517  1.00  0.00     0.012 C 
HETATM   30  C   UNL     1      21.409  31.574  59.444  1.00  0.00     0.012 C 
ENDBRANCH  17  28
BRANCH  13  31
HETATM   31  C   UNL     1      16.404  34.675  60.234  1.00  0.00     0.014 C 
HETATM   32  C   UNL     1      16.802  33.199  60.294  1.00  0.00     0.012 C 
BRANCH  31  33
HETATM   33  C   UNL     1      15.498  35.085  61.409  1.00  0.00     0.002 C 
HETATM   34  C   UNL     1      14.053  35.344  61.006  1.00  0.00     0.005 C 
ENDBRANCH  31  33
ENDBRANCH  13  31
BRANCH  14  35
HETATM   35  C   UNL     1      25.229  36.072  58.043  1.00  0.00     0.010 C 
HETATM   36  C   UNL     1      25.724  35.165  59.167  1.00  0.00     0.012 C 
HETATM   37  C   UNL     1      25.455  35.410  56.683  1.00  0.00     0.012 C 
ENDBRANCH  14  35
BRANCH  16  38
HETATM   38  C   UNL     1      19.048  40.323  60.577  1.00  0.00     0.016 C 
HETATM   39  C   UNL     1      18.225  41.567  60.907  1.00  0.00     0.012 C 
HETATM   40  C   UNL     1      20.330  40.709  59.840  1.00  0.00     0.012 C 
ENDBRANCH  16  38
BRANCH  18  41
HETATM   41  C   UNL     1      23.055  38.062  54.273  1.00  0.00     0.016 C 
HETATM   42  C   UNL     1      22.534  38.788  53.035  1.00  0.00     0.012 C 
HETATM   43  C   UNL     1      23.768  36.771  53.877  1.00  0.00     0.012 C 
ENDBRANCH  18  41
BRANCH  15  44
HETATM   44  C   UNL     1      17.912  40.234  55.059  1.00  0.00     0.010 C 
HETATM   45  C   UNL     1      18.418  39.622  53.756  1.00  0.00     0.012 C 
HETATM   46  C   UNL     1      17.532  41.698  54.855  1.00  0.00     0.012 C 
ENDBRANCH  15  44
TORSDOF 7
ENDMDL
MODEL 15
REMARK VINA RESULT:    -4.436      4.164      8.914
REMARK INTER + INTRA:          -5.171
REMARK INTER:                  -6.818
REMARK INTRA:                   1.647
REMARK UNBOUND:                 1.080
REMARK  7 active torsions:
REMARK  status: ('A' for Active; 'I' for Inactive)
REMARK    1  A    between atoms: C_13  and  C_14 
REMARK    2  A    between atoms: C_14  and  C_19 
REMARK    3  A    between atoms: C_15  and  C_20 
REMARK    4  A    between atoms: C_16  and  C_21 
REMARK    5  A    between atoms: C_17  and  C_23 
REMARK    6  A    between atoms: C_18  and  C_26 
REMARK    7  A    between atoms: C_22  and  C_28 
ROOT
HETATM    1  O   UNL     1      23.577  39.577  57.547  1.00  0.00    -0.304 OA
HETATM    2  O   UNL     1      18.797  39.783  55.450  1.00  0.00    -0.304 OA
HETATM    3  O   UNL     1      19.849  42.934  58.814  1.00  0.00    -0.304 OA
HETATM    4  O   UNL     1      20.781  37.675  56.800  1.00  0.00    -0.270 OA
HETATM    5  O   UNL     1      22.854  41.085  55.961  1.00  0.00    -0.263 OA
HETATM    6  O   UNL     1      21.373  39.643  58.910  1.00  0.00    -0.270 OA
HETATM    7  O   UNL     1      16.866  42.720  57.562  1.00  0.00    -0.270 OA
HETATM    8  O   UNL     1      17.188  39.711  53.812  1.00  0.00    -0.263 OA
HETATM    9  O   UNL     1      18.163  42.136  60.163  1.00  0.00    -0.263 OA
HETATM   10  N   UNL     1      21.585  38.766  54.916  1.00  0.00    -0.340 N 
HETATM   11  N   UNL     1      21.772  41.623  60.036  1.00  0.00    -0.340 N 
HETATM   12  N   UNL     1      18.504  42.403  55.942  1.00  0.00    -0.340 N 
HETATM   13  C   UNL     1      22.965  38.711  55.441  1.00  0.00     0.190 C 
HETATM   14  C   UNL     1      20.444  41.546  60.681  1.00  0.00     0.190 C 
HETATM   15  C   UNL     1      17.557  41.791  54.987  1.00  0.00     0.190 C 
HETATM   16  C   UNL     1      19.123  38.396  55.234  1.00  0.00     0.227 C 
HETATM   17  C   UNL     1      23.549  40.582  58.584  1.00  0.00     0.227 C 
HETATM   18  C   UNL     1      18.990  43.751  57.998  1.00  0.00     0.227 C 
HETATM   19  C   UNL     1      20.560  38.241  55.723  1.00  0.00     0.250 C 
HETATM   20  C   UNL     1      23.126  39.945  56.312  1.00  0.00     0.283 C 
HETATM   21  C   UNL     1      22.140  40.573  59.183  1.00  0.00     0.250 C 
HETATM   22  C   UNL     1      18.019  42.906  57.161  1.00  0.00     0.250 C 
HETATM   23  C   UNL     1      17.824  40.323  54.665  1.00  0.00     0.283 C 
HETATM   24  C   UNL     1      19.348  42.219  59.857  1.00  0.00     0.283 C 
HETATM   25  C   UNL     1      21.374  39.398  53.609  1.00  0.00     0.153 C 
HETATM   26  C   UNL     1      22.596  42.804  60.304  1.00  0.00     0.153 C 
HETATM   27  C   UNL     1      19.879  42.616  55.487  1.00  0.00     0.153 C 
ENDROOT
BRANCH  17  28
HETATM   28  C   UNL     1      24.579  40.170  59.626  1.00  0.00     0.016 C 
HETATM   29  C   UNL     1      24.173  38.857  60.295  1.00  0.00     0.012 C 
HETATM   30  C   UNL     1      25.965  40.043  58.995  1.00  0.00     0.012 C 
ENDBRANCH  17  28
BRANCH  13  31
HETATM   31  C   UNL     1      24.075  38.655  54.397  1.00  0.00     0.014 C 
HETATM   32  C   UNL     1      25.420  38.977  55.051  1.00  0.00     0.012 C 
BRANCH  31  33
HETATM   33  C   UNL     1      24.076  37.280  53.705  1.00  0.00     0.002 C 
HETATM   34  C   UNL     1      24.857  36.215  54.461  1.00  0.00     0.005 C 
ENDBRANCH  31  33
ENDBRANCH  13  31
BRANCH  14  35
HETATM   35  C   UNL     1      20.420  42.088  62.110  1.00  0.00     0.010 C 
HETATM   36  C   UNL     1      19.951  43.542  62.128  1.00  0.00     0.012 C 
HETATM   37  C   UNL     1      19.526  41.226  63.000  1.00  0.00     0.012 C 
ENDBRANCH  14  35
BRANCH  16  38
HETATM   38  C   UNL     1      18.155  37.535  56.042  1.00  0.00     0.016 C 
HETATM   39  C   UNL     1      18.045  38.048  57.476  1.00  0.00     0.012 C 
HETATM   40  C   UNL     1      18.597  36.072  56.029  1.00  0.00     0.012 C 
ENDBRANCH  16  38
BRANCH  18  41
HETATM   41  C   UNL     1      18.280  44.826  58.820  1.00  0.00     0.016 C 
HETATM   42  C   UNL     1      17.255  45.566  57.964  1.00  0.00     0.012 C 
HETATM   43  C   UNL     1      19.292  45.805  59.412  1.00  0.00     0.012 C 
ENDBRANCH  18  41
BRANCH  15  44
HETATM   44  C   UNL     1      17.455  42.611  53.701  1.00  0.00     0.010 C 
HETATM   45  C   UNL     1      18.125  43.971  53.880  1.00  0.00     0.012 C 
HETATM   46  C   UNL     1      15.996  42.779  53.289  1.00  0.00     0.012 C 
ENDBRANCH  15  44
TORSDOF 7
ENDMDL
MODEL 16
REMARK VINA RESULT:    -4.369     19.809     24.611
REMARK INTER + INTRA:          -5.077
REMARK INTER:                  -5.722
REMARK INTRA:                   0.645
REMARK UNBOUND:                 1.080
REMARK  7 active torsions:
REMARK  status: ('A' for Active; 'I' for Inactive)
REMARK    1  A    between atoms: C_13  and  C_14 
REMARK    2  A    between atoms: C_14  and  C_19 
REMARK    3  A    between atoms: C_15  and  C_20 
REMARK    4  A    between atoms: C_16  and  C_21 
REMARK    5  A    between atoms: C_17  and  C_23 
REMARK    6  A    between atoms: C_18  and  C_26 
REMARK    7  A    between atoms: C_22  and  C_28 
ROOT
HETATM    1  O   UNL     1      22.254  55.082  43.215  1.00  0.00    -0.304 OA
HETATM    2  O   UNL     1      25.795  53.719  39.624  1.00  0.00    -0.304 OA
HETATM    3  O   UNL     1      25.387  50.971  43.449  1.00  0.00    -0.304 OA
HETATM    4  O   UNL     1      24.926  56.260  41.353  1.00  0.00    -0.270 OA
HETATM    5  O   UNL     1      22.019  53.414  41.640  1.00  0.00    -0.263 OA
HETATM    6  O   UNL     1      24.733  54.529  43.728  1.00  0.00    -0.270 OA
HETATM    7  O   UNL     1      27.690  50.454  41.227  1.00  0.00    -0.270 OA
HETATM    8  O   UNL     1      26.680  53.378  37.532  1.00  0.00    -0.263 OA
HETATM    9  O   UNL     1      27.574  51.378  44.041  1.00  0.00    -0.263 OA
HETATM   10  N   UNL     1      23.285  55.350  39.987  1.00  0.00    -0.340 N 
HETATM   11  N   UNL     1      24.358  52.720  45.120  1.00  0.00    -0.340 N 
HETATM   12  N   UNL     1      25.684  51.114  40.251  1.00  0.00    -0.340 N 
HETATM   13  C   UNL     1      22.233  55.738  40.949  1.00  0.00     0.190 C 
HETATM   14  C   UNL     1      25.814  52.496  45.253  1.00  0.00     0.190 C 
HETATM   15  C   UNL     1      26.330  51.467  38.969  1.00  0.00     0.190 C 
HETATM   16  C   UNL     1      25.715  55.139  39.393  1.00  0.00     0.227 C 
HETATM   17  C   UNL     1      22.440  54.119  44.275  1.00  0.00     0.227 C 
HETATM   18  C   UNL     1      25.699  49.958  42.475  1.00  0.00     0.227 C 
HETATM   19  C   UNL     1      24.619  55.637  40.330  1.00  0.00     0.250 C 
HETATM   20  C   UNL     1      22.140  54.593  41.945  1.00  0.00     0.283 C 
HETATM   21  C   UNL     1      23.938  53.810  44.344  1.00  0.00     0.250 C 
HETATM   22  C   UNL     1      26.458  50.536  41.271  1.00  0.00     0.250 C 
HETATM   23  C   UNL     1      26.282  52.950  38.611  1.00  0.00     0.283 C 
HETATM   24  C   UNL     1      26.370  51.569  44.175  1.00  0.00     0.283 C 
HETATM   25  C   UNL     1      22.872  54.660  38.761  1.00  0.00     0.153 C 
HETATM   26  C   UNL     1      23.456  51.771  45.777  1.00  0.00     0.153 C 
HETATM   27  C   UNL     1      24.226  51.219  40.325  1.00  0.00     0.153 C 
ENDROOT
BRANCH  17  28
HETATM   28  C   UNL     1      21.969  54.782  45.561  1.00  0.00     0.016 C 
HETATM   29  C   UNL     1      22.329  56.267  45.565  1.00  0.00     0.012 C 
HETATM   30  C   UNL     1      20.463  54.597  45.743  1.00  0.00     0.012 C 
ENDBRANCH  17  28
BRANCH  13  31
HETATM   31  C   UNL     1      20.860  56.031  40.354  1.00  0.00     0.014 C 
HETATM   32  C   UNL     1      19.790  55.929  41.443  1.00  0.00     0.012 C 
BRANCH  31  33
HETATM   33  C   UNL     1      20.868  57.411  39.672  1.00  0.00     0.002 C 
HETATM   34  C   UNL     1      20.237  57.411  38.286  1.00  0.00     0.005 C 
ENDBRANCH  31  33
ENDBRANCH  13  31
BRANCH  14  35
HETATM   35  C   UNL     1      26.236  51.993  46.633  1.00  0.00     0.010 C 
HETATM   36  C   UNL     1      26.879  50.612  46.530  1.00  0.00     0.012 C 
HETATM   37  C   UNL     1      27.193  52.981  47.299  1.00  0.00     0.012 C 
ENDBRANCH  14  35
BRANCH  16  38
HETATM   38  C   UNL     1      27.067  55.766  39.722  1.00  0.00     0.016 C 
HETATM   39  C   UNL     1      27.743  56.286  38.455  1.00  0.00     0.012 C 
HETATM   40  C   UNL     1      27.969  54.759  40.435  1.00  0.00     0.012 C 
ENDBRANCH  16  38
BRANCH  18  41
HETATM   41  C   UNL     1      26.413  48.764  43.106  1.00  0.00     0.016 C 
HETATM   42  C   UNL     1      26.628  47.660  42.073  1.00  0.00     0.012 C 
HETATM   43  C   UNL     1      25.622  48.235  44.300  1.00  0.00     0.012 C 
ENDBRANCH  18  41
BRANCH  15  44
HETATM   44  C   UNL     1      25.784  50.620  37.819  1.00  0.00     0.010 C 
HETATM   45  C   UNL     1      26.928  50.018  37.009  1.00  0.00     0.012 C 
HETATM   46  C   UNL     1      24.873  51.456  36.926  1.00  0.00     0.012 C 
ENDBRANCH  15  44
TORSDOF 7
ENDMDL
MODEL 17
REMARK VINA RESULT:    -4.345      4.322      9.452
REMARK INTER + INTRA:          -5.042
REMARK INTER:                  -5.717
REMARK INTRA:                   0.675
REMARK UNBOUND:                 1.080
REMARK  7 active torsions:
REMARK  status: ('A' for Active; 'I' for Inactive)
REMARK    1  A    between atoms: C_13  and  C_14 
REMARK    2  A    between atoms: C_14  and  C_19 
REMARK    3  A    between atoms: C_15  and  C_20 
REMARK    4  A    between atoms: C_16  and  C_21 
REMARK    5  A    between atoms: C_17  and  C_23 
REMARK    6  A    between atoms: C_18  and  C_26 
REMARK    7  A    between atoms: C_22  and  C_28 
ROOT
HETATM    1  O   UNL     1      24.662  43.269  56.960  1.00  0.00    -0.304 OA
HETATM    2  O   UNL     1      21.225  39.396  56.268  1.00  0.00    -0.304 OA
HETATM    3  O   UNL     1      19.623  43.436  58.126  1.00  0.00    -0.304 OA
HETATM    4  O   UNL     1      24.083  39.913  57.596  1.00  0.00    -0.270 OA
HETATM    5  O   UNL     1      23.119  43.109  55.253  1.00  0.00    -0.263 OA
HETATM    6  O   UNL     1      23.037  42.398  58.782  1.00  0.00    -0.270 OA
HETATM    7  O   UNL     1      17.722  40.825  57.849  1.00  0.00    -0.270 OA
HETATM    8  O   UNL     1      20.193  37.629  55.223  1.00  0.00    -0.263 OA
HETATM    9  O   UNL     1      18.979  42.356  60.054  1.00  0.00    -0.263 OA
HETATM   10  N   UNL     1      23.915  40.382  55.329  1.00  0.00    -0.340 N 
HETATM   11  N   UNL     1      21.873  44.369  59.117  1.00  0.00    -0.340 N 
HETATM   12  N   UNL     1      19.137  41.058  56.017  1.00  0.00    -0.340 N 
HETATM   13  C   UNL     1      24.907  41.470  55.454  1.00  0.00     0.190 C 
HETATM   14  C   UNL     1      20.981  43.699  60.088  1.00  0.00     0.190 C 
HETATM   15  C   UNL     1      18.935  39.661  55.581  1.00  0.00     0.190 C 
HETATM   16  C   UNL     1      22.449  38.645  56.395  1.00  0.00     0.227 C 
HETATM   17  C   UNL     1      23.897  44.303  57.617  1.00  0.00     0.227 C 
HETATM   18  C   UNL     1      18.460  43.059  57.367  1.00  0.00     0.227 C 
HETATM   19  C   UNL     1      23.553  39.694  56.501  1.00  0.00     0.250 C 
HETATM   20  C   UNL     1      24.115  42.708  55.841  1.00  0.00     0.283 C 
HETATM   21  C   UNL     1      22.902  43.604  58.548  1.00  0.00     0.250 C 
HETATM   22  C   UNL     1      18.406  41.545  57.115  1.00  0.00     0.250 C 
HETATM   23  C   UNL     1      20.179  38.779  55.651  1.00  0.00     0.283 C 
HETATM   24  C   UNL     1      19.756  43.070  59.429  1.00  0.00     0.283 C 
HETATM   25  C   UNL     1      23.350  40.118  54.001  1.00  0.00     0.153 C 
HETATM   26  C   UNL     1      21.599  45.769  58.788  1.00  0.00     0.153 C 
HETATM   27  C   UNL     1      19.958  41.921  55.166  1.00  0.00     0.153 C 
ENDROOT
BRANCH  17  28
HETATM   28  C   UNL     1      24.884  45.140  58.417  1.00  0.00     0.016 C 
HETATM   29  C   UNL     1      26.187  44.373  58.639  1.00  0.00     0.012 C 
HETATM   30  C   UNL     1      25.159  46.468  57.713  1.00  0.00     0.012 C 
ENDBRANCH  17  28
BRANCH  13  31
HETATM   31  C   UNL     1      25.750  41.750  54.215  1.00  0.00     0.014 C 
HETATM   32  C   UNL     1      26.327  43.165  54.289  1.00  0.00     0.012 C 
BRANCH  31  33
HETATM   33  C   UNL     1      26.846  40.680  54.073  1.00  0.00     0.002 C 
HETATM   34  C   UNL     1      27.490  40.283  55.394  1.00  0.00     0.005 C 
ENDBRANCH  31  33
ENDBRANCH  13  31
BRANCH  14  35
HETATM   35  C   UNL     1      20.541  44.600  61.242  1.00  0.00     0.010 C 
HETATM   36  C   UNL     1      19.040  44.874  61.170  1.00  0.00     0.012 C 
HETATM   37  C   UNL     1      20.906  43.973  62.587  1.00  0.00     0.012 C 
ENDBRANCH  14  35
BRANCH  16  38
HETATM   38  C   UNL     1      22.366  37.783  57.652  1.00  0.00     0.016 C 
HETATM   39  C   UNL     1      22.284  36.302  57.286  1.00  0.00     0.012 C 
HETATM   40  C   UNL     1      21.168  38.190  58.507  1.00  0.00     0.012 C 
ENDBRANCH  16  38
BRANCH  18  41
HETATM   41  C   UNL     1      17.174  43.599  57.992  1.00  0.00     0.016 C 
HETATM   42  C   UNL     1      15.959  43.171  57.173  1.00  0.00     0.012 C 
HETATM   43  C   UNL     1      17.233  45.121  58.109  1.00  0.00     0.012 C 
ENDBRANCH  18  41
BRANCH  15  44
HETATM   44  C   UNL     1      18.312  39.598  54.186  1.00  0.00     0.010 C 
HETATM   45  C   UNL     1      17.432  40.820  53.938  1.00  0.00     0.012 C 
HETATM   46  C   UNL     1      17.509  38.312  54.018  1.00  0.00     0.012 C 
ENDBRANCH  15  44
TORSDOF 7
ENDMDL
MODEL 18
REMARK VINA RESULT:    -4.257      5.089      9.580
REMARK INTER + INTRA:          -4.919
REMARK INTER:                  -5.564
REMARK INTRA:                   0.645
REMARK UNBOUND:                 1.080
REMARK  7 active torsions:
REMARK  status: ('A' for Active; 'I' for Inactive)
REMARK    1  A    between atoms: C_13  and  C_14 
REMARK    2  A    between atoms: C_14  and  C_19 
REMARK    3  A    between atoms: C_15  and  C_20 
REMARK    4  A    between atoms: C_16  and  C_21 
REMARK    5  A    between atoms: C_17  and  C_23 
REMARK    6  A    between atoms: C_18  and  C_26 
REMARK    7  A    between atoms: C_22  and  C_28 
ROOT
HETATM    1  O   UNL     1      22.835  39.940  55.628  1.00  0.00    -0.304 OA
HETATM    2  O   UNL     1      23.481  44.832  57.342  1.00  0.00    -0.304 OA
HETATM    3  O   UNL     1      19.124  43.008  57.522  1.00  0.00    -0.304 OA
HETATM    4  O   UNL     1      24.131  43.038  54.780  1.00  0.00    -0.270 OA
HETATM    5  O   UNL     1      22.958  40.602  57.833  1.00  0.00    -0.263 OA
HETATM    6  O   UNL     1      21.391  41.961  54.889  1.00  0.00    -0.270 OA
HETATM    7  O   UNL     1      19.701  46.104  58.294  1.00  0.00    -0.270 OA
HETATM    8  O   UNL     1      24.493  46.594  58.415  1.00  0.00    -0.263 OA
HETATM    9  O   UNL     1      18.325  44.643  56.112  1.00  0.00    -0.263 OA
HETATM   10  N   UNL     1      25.000  42.285  56.796  1.00  0.00    -0.340 N 
HETATM   11  N   UNL     1      19.354  41.174  55.652  1.00  0.00    -0.340 N 
HETATM   12  N   UNL     1      21.404  44.700  59.031  1.00  0.00    -0.340 N 
HETATM   13  C   UNL     1      24.872  40.880  56.356  1.00  0.00     0.190 C 
HETATM   14  C   UNL     1      18.692  42.428  55.233  1.00  0.00     0.190 C 
HETATM   15  C   UNL     1      22.352  45.818  59.222  1.00  0.00     0.190 C 
HETATM   16  C   UNL     1      24.578  44.729  56.412  1.00  0.00     0.227 C 
HETATM   17  C   UNL     1      21.411  39.720  55.725  1.00  0.00     0.227 C 
HETATM   18  C   UNL     1      19.079  43.822  58.708  1.00  0.00     0.227 C 
HETATM   19  C   UNL     1      24.549  43.286  55.917  1.00  0.00     0.250 C 
HETATM   20  C   UNL     1      23.459  40.458  56.726  1.00  0.00     0.283 C 
HETATM   21  C   UNL     1      20.726  41.047  55.389  1.00  0.00     0.250 C 
HETATM   22  C   UNL     1      20.082  44.983  58.646  1.00  0.00     0.250 C 
HETATM   23  C   UNL     1      23.569  45.795  58.301  1.00  0.00     0.283 C 
HETATM   24  C   UNL     1      18.703  43.496  56.324  1.00  0.00     0.283 C 
HETATM   25  C   UNL     1      25.552  42.537  58.131  1.00  0.00     0.153 C 
HETATM   26  C   UNL     1      18.544  40.169  56.344  1.00  0.00     0.153 C 
HETATM   27  C   UNL     1      21.844  43.363  59.430  1.00  0.00     0.153 C 
ENDROOT
BRANCH  17  28
HETATM   28  C   UNL     1      21.058  38.658  54.693  1.00  0.00     0.016 C 
HETATM   29  C   UNL     1      21.678  38.995  53.338  1.00  0.00     0.012 C 
HETATM   30  C   UNL     1      21.515  37.277  55.162  1.00  0.00     0.012 C 
ENDBRANCH  17  28
BRANCH  13  31
HETATM   31  C   UNL     1      25.884  39.902  56.942  1.00  0.00     0.014 C 
HETATM   32  C   UNL     1      25.352  38.472  56.826  1.00  0.00     0.012 C 
BRANCH  31  33
HETATM   33  C   UNL     1      27.246  40.076  56.248  1.00  0.00     0.002 C 
HETATM   34  C   UNL     1      27.170  40.022  54.728  1.00  0.00     0.005 C 
ENDBRANCH  31  33
ENDBRANCH  13  31
BRANCH  14  35
HETATM   35  C   UNL     1      17.265  42.228  54.722  1.00  0.00     0.010 C 
HETATM   36  C   UNL     1      16.255  42.847  55.687  1.00  0.00     0.012 C 
HETATM   37  C   UNL     1      17.103  42.824  53.324  1.00  0.00     0.012 C 
ENDBRANCH  14  35
BRANCH  16  38
HETATM   38  C   UNL     1      24.349  45.721  55.274  1.00  0.00     0.016 C 
HETATM   39  C   UNL     1      25.380  46.847  55.325  1.00  0.00     0.012 C 
HETATM   40  C   UNL     1      22.932  46.289  55.331  1.00  0.00     0.012 C 
ENDBRANCH  16  38
BRANCH  18  41
HETATM   41  C   UNL     1      17.657  44.286  59.025  1.00  0.00     0.016 C 
HETATM   42  C   UNL     1      17.644  45.156  60.279  1.00  0.00     0.012 C 
HETATM   43  C   UNL     1      16.727  43.086  59.194  1.00  0.00     0.012 C 
ENDBRANCH  18  41
BRANCH  15  44
HETATM   44  C   UNL     1      22.788  45.933  60.684  1.00  0.00     0.010 C 
HETATM   45  C   UNL     1      22.929  47.398  61.085  1.00  0.00     0.012 C 
HETATM   46  C   UNL     1      24.097  45.183  60.911  1.00  0.00     0.012 C 
ENDBRANCH  15  44
TORSDOF 7
ENDMDL
MODEL 19
REMARK VINA RESULT:    -4.228      1.759      8.114
REMARK INTER + INTRA:          -4.878
REMARK INTER:                  -6.040
REMARK INTRA:                   1.162
REMARK UNBOUND:                 1.080
REMARK  7 active torsions:
REMARK  status: ('A' for Active; 'I' for Inactive)
REMARK    1  A    between atoms: C_13  and  C_14 
REMARK    2  A    between atoms: C_14  and  C_19 
REMARK    3  A    between atoms: C_15  and  C_20 
REMARK    4  A    between atoms: C_16  and  C_21 
REMARK    5  A    between atoms: C_17  and  C_23 
REMARK    6  A    between atoms: C_18  and  C_26 
REMARK    7  A    between atoms: C_22  and  C_28 
ROOT
HETATM    1  O   UNL     1      25.504  36.313  58.825  1.00  0.00    -0.304 OA
HETATM    2  O   UNL     1      21.972  38.888  55.963  1.00  0.00    -0.304 OA
HETATM    3  O   UNL     1      20.468  35.178  58.477  1.00  0.00    -0.304 OA
HETATM    4  O   UNL     1      24.839  37.515  55.645  1.00  0.00    -0.270 OA
HETATM    5  O   UNL     1      23.964  37.836  59.616  1.00  0.00    -0.263 OA
HETATM    6  O   UNL     1      23.853  35.196  57.169  1.00  0.00    -0.270 OA
HETATM    7  O   UNL     1      18.502  36.757  56.439  1.00  0.00    -0.270 OA
HETATM    8  O   UNL     1      20.900  40.690  55.026  1.00  0.00    -0.263 OA
HETATM    9  O   UNL     1      19.790  34.090  56.565  1.00  0.00    -0.263 OA
HETATM   10  N   UNL     1      24.690  39.203  57.231  1.00  0.00    -0.340 N 
HETATM   11  N   UNL     1      22.737  33.870  58.703  1.00  0.00    -0.340 N 
HETATM   12  N   UNL     1      19.928  38.213  57.561  1.00  0.00    -0.340 N 
HETATM   13  C   UNL     1      25.708  38.539  58.071  1.00  0.00     0.190 C 
HETATM   14  C   UNL     1      21.826  33.382  57.645  1.00  0.00     0.190 C 
HETATM   15  C   UNL     1      19.693  39.312  56.601  1.00  0.00     0.190 C 
HETATM   16  C   UNL     1      23.176  39.184  55.229  1.00  0.00     0.227 C 
HETATM   17  C   UNL     1      24.764  35.205  59.381  1.00  0.00     0.227 C 
HETATM   18  C   UNL     1      19.298  36.010  58.578  1.00  0.00     0.227 C 
HETATM   19  C   UNL     1      24.306  38.558  56.042  1.00  0.00     0.250 C 
HETATM   20  C   UNL     1      24.947  37.555  58.943  1.00  0.00     0.283 C 
HETATM   21  C   UNL     1      23.749  34.765  58.323  1.00  0.00     0.250 C 
HETATM   22  C   UNL     1      19.206  37.015  57.420  1.00  0.00     0.250 C 
HETATM   23  C   UNL     1      20.913  39.725  55.783  1.00  0.00     0.283 C 
HETATM   24  C   UNL     1      20.587  34.259  57.481  1.00  0.00     0.283 C 
HETATM   25  C   UNL     1      24.123  40.467  57.712  1.00  0.00     0.153 C 
HETATM   26  C   UNL     1      22.500  33.417  60.075  1.00  0.00     0.153 C 
HETATM   27  C   UNL     1      20.773  38.497  58.722  1.00  0.00     0.153 C 
ENDROOT
BRANCH  17  28
HETATM   28  C   UNL     1      25.770  34.096  59.655  1.00  0.00     0.016 C 
HETATM   29  C   UNL     1      27.015  34.271  58.787  1.00  0.00     0.012 C 
HETATM   30  C   UNL     1      26.150  34.066  61.135  1.00  0.00     0.012 C 
ENDBRANCH  17  28
BRANCH  13  31
HETATM   31  C   UNL     1      26.563  39.458  58.937  1.00  0.00     0.014 C 
HETATM   32  C   UNL     1      27.201  38.657  60.073  1.00  0.00     0.012 C 
BRANCH  31  33
HETATM   33  C   UNL     1      27.611  40.174  58.067  1.00  0.00     0.002 C 
HETATM   34  C   UNL     1      27.614  41.687  58.231  1.00  0.00     0.005 C 
ENDBRANCH  31  33
ENDBRANCH  13  31
BRANCH  14  35
HETATM   35  C   UNL     1      21.405  31.923  57.822  1.00  0.00     0.010 C 
HETATM   36  C   UNL     1      22.629  31.014  57.910  1.00  0.00     0.012 C 
HETATM   37  C   UNL     1      20.528  31.760  59.064  1.00  0.00     0.012 C 
ENDBRANCH  14  35
BRANCH  16  38
HETATM   38  C   UNL     1      23.068  38.561  53.840  1.00  0.00     0.016 C 
HETATM   39  C   UNL     1      22.795  39.633  52.787  1.00  0.00     0.012 C 
HETATM   40  C   UNL     1      21.975  37.493  53.811  1.00  0.00     0.012 C 
ENDBRANCH  16  38
BRANCH  18  41
HETATM   41  C   UNL     1      18.024  35.182  58.743  1.00  0.00     0.016 C 
HETATM   42  C   UNL     1      16.815  36.092  58.949  1.00  0.00     0.012 C 
HETATM   43  C   UNL     1      18.166  34.207  59.910  1.00  0.00     0.012 C 
ENDBRANCH  18  41
BRANCH  15  44
HETATM   44  C   UNL     1      19.073  40.528  57.290  1.00  0.00     0.010 C 
HETATM   45  C   UNL     1      17.955  41.116  56.433  1.00  0.00     0.012 C 
HETATM   46  C   UNL     1      20.140  41.579  57.580  1.00  0.00     0.012 C 
ENDBRANCH  15  44
TORSDOF 7
ENDMDL
MODEL 20
REMARK VINA RESULT:    -4.220      4.885      9.413
REMARK INTER + INTRA:          -4.867
REMARK INTER:                  -5.631
REMARK INTRA:                   0.764
REMARK UNBOUND:                 1.080
REMARK  7 active torsions:
REMARK  status: ('A' for Active; 'I' for Inactive)
REMARK    1  A    between atoms: C_13  and  C_14 
REMARK    2  A    between atoms: C_14  and  C_19 
REMARK    3  A    between atoms: C_15  and  C_20 
REMARK    4  A    between atoms: C_16  and  C_21 
REMARK    5  A    between atoms: C_17  and  C_23 
REMARK    6  A    between atoms: C_18  and  C_26 
REMARK    7  A    between atoms: C_22  and  C_28 
ROOT
HETATM    1  O   UNL     1      23.675  45.301  55.779  1.00  0.00    -0.304 OA
HETATM    2  O   UNL     1      23.823  40.289  57.245  1.00  0.00    -0.304 OA
HETATM    3  O   UNL     1      19.818  41.884  55.307  1.00  0.00    -0.304 OA
HETATM    4  O   UNL     1      24.413  43.197  58.429  1.00  0.00    -0.270 OA
HETATM    5  O   UNL     1      23.961  43.486  54.386  1.00  0.00    -0.263 OA
HETATM    6  O   UNL     1      21.884  44.144  57.253  1.00  0.00    -0.270 OA
HETATM    7  O   UNL     1      20.040  38.885  56.517  1.00  0.00    -0.270 OA
HETATM    8  O   UNL     1      24.696  38.185  57.542  1.00  0.00    -0.263 OA
HETATM    9  O   UNL     1      18.636  41.399  57.222  1.00  0.00    -0.263 OA
HETATM   10  N   UNL     1      25.610  42.610  56.529  1.00  0.00    -0.340 N 
HETATM   11  N   UNL     1      20.082  44.447  55.834  1.00  0.00    -0.340 N 
HETATM   12  N   UNL     1      21.998  39.525  55.436  1.00  0.00    -0.340 N 
HETATM   13  C   UNL     1      25.630  44.016  56.076  1.00  0.00     0.190 C 
HETATM   14  C   UNL     1      19.205  43.696  56.758  1.00  0.00     0.190 C 
HETATM   15  C   UNL     1      22.795  38.457  56.075  1.00  0.00     0.190 C 
HETATM   16  C   UNL     1      24.806  40.855  58.134  1.00  0.00     0.227 C 
HETATM   17  C   UNL     1      22.317  45.494  55.325  1.00  0.00     0.227 C 
HETATM   18  C   UNL     1      19.798  40.540  54.794  1.00  0.00     0.227 C 
HETATM   19  C   UNL     1      24.923  42.320  57.722  1.00  0.00     0.250 C 
HETATM   20  C   UNL     1      24.345  44.216  55.291  1.00  0.00     0.283 C 
HETATM   21  C   UNL     1      21.418  44.635  56.219  1.00  0.00     0.250 C 
HETATM   22  C   UNL     1      20.613  39.579  55.672  1.00  0.00     0.250 C 
HETATM   23  C   UNL     1      23.887  38.947  57.023  1.00  0.00     0.283 C 
HETATM   24  C   UNL     1      19.194  42.196  56.475  1.00  0.00     0.283 C 
HETATM   25  C   UNL     1      26.275  41.610  55.688  1.00  0.00     0.153 C 
HETATM   26  C   UNL     1      19.509  44.908  54.568  1.00  0.00     0.153 C 
HETATM   27  C   UNL     1      22.666  40.366  54.442  1.00  0.00     0.153 C 
ENDROOT
BRANCH  17  28
HETATM   28  C   UNL     1      21.998  46.971  55.503  1.00  0.00     0.016 C 
HETATM   29  C   UNL     1      22.821  47.566  56.645  1.00  0.00     0.012 C 
HETATM   30  C   UNL     1      22.251  47.738  54.206  1.00  0.00     0.012 C 
ENDBRANCH  17  28
BRANCH  13  31
HETATM   31  C   UNL     1      26.832  44.429  55.233  1.00  0.00     0.014 C 
HETATM   32  C   UNL     1      26.430  45.546  54.268  1.00  0.00     0.012 C 
BRANCH  31  33
HETATM   33  C   UNL     1      27.999  44.840  56.148  1.00  0.00     0.002 C 
HETATM   34  C   UNL     1      27.582  45.733  57.309  1.00  0.00     0.005 C 
ENDBRANCH  31  33
ENDBRANCH  13  31
BRANCH  14  35
HETATM   35  C   UNL     1      17.770  44.221  56.807  1.00  0.00     0.010 C 
HETATM   36  C   UNL     1      16.807  43.221  56.170  1.00  0.00     0.012 C 
HETATM   37  C   UNL     1      17.354  44.523  58.246  1.00  0.00     0.012 C 
ENDBRANCH  14  35
BRANCH  16  38
HETATM   38  C   UNL     1      24.307  40.711  59.570  1.00  0.00     0.016 C 
HETATM   39  C   UNL     1      25.171  39.717  60.344  1.00  0.00     0.012 C 
HETATM   40  C   UNL     1      22.843  40.277  59.591  1.00  0.00     0.012 C 
ENDBRANCH  16  38
BRANCH  18  41
HETATM   41  C   UNL     1      18.373  40.047  54.546  1.00  0.00     0.016 C 
HETATM   42  C   UNL     1      18.387  38.646  53.939  1.00  0.00     0.012 C 
HETATM   43  C   UNL     1      17.620  41.018  53.638  1.00  0.00     0.012 C 
ENDBRANCH  18  41
BRANCH  15  44
HETATM   44  C   UNL     1      23.379  37.501  55.034  1.00  0.00     0.010 C 
HETATM   45  C   UNL     1      24.604  38.121  54.367  1.00  0.00     0.012 C 
HETATM   46  C   UNL     1      22.325  37.137  53.992  1.00  0.00     0.012 C 
ENDBRANCH  15  44
TORSDOF 7
ENDMDL
