MODEL 1
REMARK VINA RESULT:    -6.234      0.000      0.000
REMARK INTER + INTRA:          -7.991
REMARK INTER:                  -8.786
REMARK INTRA:                   0.795
REMARK UNBOUND:                 0.795
REMARK  7 active torsions:
REMARK  status: ('A' for Active; 'I' for Inactive)
REMARK    1  A    between atoms: C_13  and  C_14 
REMARK    2  A    between atoms: C_14  and  C_19 
REMARK    3  A    between atoms: C_15  and  C_20 
REMARK    4  A    between atoms: C_16  and  C_21 
REMARK    5  A    between atoms: C_17  and  C_23 
REMARK    6  A    between atoms: C_18  and  C_26 
REMARK    7  A    between atoms: C_22  and  C_28 
ROOT
HETATM    1  O   UNL     1      15.385  42.122   2.783  1.00  0.00    -0.304 OA
HETATM    2  O   UNL     1      14.583  37.873  -0.148  1.00  0.00    -0.304 OA
HETATM    3  O   UNL     1      19.026  38.826   1.153  1.00  0.00    -0.304 OA
HETATM    4  O   UNL     1      13.906  40.994  -0.139  1.00  0.00    -0.270 OA
HETATM    5  O   UNL     1      15.330  39.943   3.536  1.00  0.00    -0.263 OA
HETATM    6  O   UNL     1      16.696  41.556   0.620  1.00  0.00    -0.270 OA
HETATM    7  O   UNL     1      18.337  36.391  -0.872  1.00  0.00    -0.270 OA
HETATM    8  O   UNL     1      13.538  35.966  -0.889  1.00  0.00    -0.263 OA
HETATM    9  O   UNL     1      19.683  39.026  -1.044  1.00  0.00    -0.263 OA
HETATM   10  N   UNL     1      13.165  39.787   1.700  1.00  0.00    -0.340 N 
HETATM   11  N   UNL     1      18.800  41.412   1.570  1.00  0.00    -0.340 N 
HETATM   12  N   UNL     1      16.738  36.594   0.805  1.00  0.00    -0.340 N 
HETATM   13  C   UNL     1      13.340  40.964   2.576  1.00  0.00     0.190 C 
HETATM   14  C   UNL     1      19.383  41.029   0.267  1.00  0.00     0.190 C 
HETATM   15  C   UNL     1      15.747  35.780   0.071  1.00  0.00     0.190 C 
HETATM   16  C   UNL     1      13.453  38.679  -0.534  1.00  0.00     0.227 C 
HETATM   17  C   UNL     1      16.821  42.184   2.926  1.00  0.00     0.227 C 
HETATM   18  C   UNL     1      19.086  37.389   1.180  1.00  0.00     0.227 C 
HETATM   19  C   UNL     1      13.528  39.922   0.348  1.00  0.00     0.250 C 
HETATM   20  C   UNL     1      14.786  40.922   3.041  1.00  0.00     0.283 C 
HETATM   21  C   UNL     1      17.426  41.688   1.609  1.00  0.00     0.250 C 
HETATM   22  C   UNL     1      18.027  36.754   0.267  1.00  0.00     0.250 C 
HETATM   23  C   UNL     1      14.493  36.531  -0.366  1.00  0.00     0.283 C 
HETATM   24  C   UNL     1      19.370  39.519   0.034  1.00  0.00     0.283 C 
HETATM   25  C   UNL     1      12.662  38.551   2.306  1.00  0.00     0.153 C 
HETATM   26  C   UNL     1      19.688  41.443   2.735  1.00  0.00     0.153 C 
HETATM   27  C   UNL     1      16.380  37.045   2.151  1.00  0.00     0.153 C 
ENDROOT
BRANCH  17  28
HETATM   28  C   UNL     1      17.177  43.644   3.165  1.00  0.00     0.016 C 
HETATM   29  C   UNL     1      16.044  44.558   2.703  1.00  0.00     0.012 C 
HETATM   30  C   UNL     1      17.494  43.887   4.640  1.00  0.00     0.012 C 
ENDBRANCH  17  28
BRANCH  13  31
HETATM   31  C   UNL     1      12.403  41.049   3.776  1.00  0.00     0.014 C 
HETATM   32  C   UNL     1      12.890  42.133   4.739  1.00  0.00     0.012 C 
BRANCH  31  33
HETATM   33  C   UNL     1      10.961  41.296   3.299  1.00  0.00     0.002 C 
HETATM   34  C   UNL     1       9.936  40.378   3.949  1.00  0.00     0.005 C 
ENDBRANCH  31  33
ENDBRANCH  13  31
BRANCH  14  35
HETATM   35  C   UNL     1      20.794  41.572   0.040  1.00  0.00     0.010 C 
HETATM   36  C   UNL     1      21.820  40.442   0.076  1.00  0.00     0.012 C 
HETATM   37  C   UNL     1      20.875  42.325  -1.288  1.00  0.00     0.012 C 
ENDBRANCH  14  35
BRANCH  16  38
HETATM   38  C   UNL     1      13.583  39.028  -2.014  1.00  0.00     0.016 C 
HETATM   39  C   UNL     1      12.489  38.340  -2.829  1.00  0.00     0.012 C 
HETATM   40  C   UNL     1      14.965  38.642  -2.540  1.00  0.00     0.012 C 
ENDBRANCH  16  38
BRANCH  18  41
HETATM   41  C   UNL     1      20.496  36.873   0.895  1.00  0.00     0.016 C 
HETATM   42  C   UNL     1      20.520  35.347   0.897  1.00  0.00     0.012 C 
HETATM   43  C   UNL     1      21.486  37.427   1.918  1.00  0.00     0.012 C 
ENDBRANCH  18  41
BRANCH  15  44
HETATM   44  C   UNL     1      15.372  34.521   0.855  1.00  0.00     0.010 C 
HETATM   45  C   UNL     1      16.503  34.123   1.800  1.00  0.00     0.012 C 
HETATM   46  C   UNL     1      15.039  33.378  -0.099  1.00  0.00     0.012 C 
ENDBRANCH  15  44
TORSDOF 7
ENDMDL
MODEL 2
REMARK VINA RESULT:    -5.849      2.586      7.482
REMARK INTER + INTRA:          -7.448
REMARK INTER:                  -7.981
REMARK INTRA:                   0.532
REMARK UNBOUND:                 0.795
REMARK  7 active torsions:
REMARK  status: ('A' for Active; 'I' for Inactive)
REMARK    1  A    between atoms: C_13  and  C_14 
REMARK    2  A    between atoms: C_14  and  C_19 
REMARK    3  A    between atoms: C_15  and  C_20 
REMARK    4  A    between atoms: C_16  and  C_21 
REMARK    5  A    between atoms: C_17  and  C_23 
REMARK    6  A    between atoms: C_18  and  C_26 
REMARK    7  A    between atoms: C_22  and  C_28 
ROOT
HETATM    1  O   UNL     1      19.278  41.007  -0.755  1.00  0.00    -0.304 OA
HETATM    2  O   UNL     1      21.052  37.083   2.203  1.00  0.00    -0.304 OA
HETATM    3  O   UNL     1      16.641  36.746   0.537  1.00  0.00    -0.304 OA
HETATM    4  O   UNL     1      20.786  40.266   2.274  1.00  0.00    -0.270 OA
HETATM    5  O   UNL     1      20.026  38.963  -1.516  1.00  0.00    -0.263 OA
HETATM    6  O   UNL     1      18.023  40.017   1.285  1.00  0.00    -0.270 OA
HETATM    7  O   UNL     1      17.850  34.553   2.596  1.00  0.00    -0.270 OA
HETATM    8  O   UNL     1      22.547  35.540   3.015  1.00  0.00    -0.263 OA
HETATM    9  O   UNL     1      15.784  36.677   2.672  1.00  0.00    -0.263 OA
HETATM   10  N   UNL     1      21.990  39.385   0.495  1.00  0.00    -0.340 N 
HETATM   11  N   UNL     1      16.134  39.298   0.159  1.00  0.00    -0.340 N 
HETATM   12  N   UNL     1      19.446  35.265   1.061  1.00  0.00    -0.340 N 
HETATM   13  C   UNL     1      21.548  40.487  -0.383  1.00  0.00     0.190 C 
HETATM   14  C   UNL     1      15.588  38.720   1.406  1.00  0.00     0.190 C 
HETATM   15  C   UNL     1      20.571  34.751   1.870  1.00  0.00     0.190 C 
HETATM   16  C   UNL     1      21.863  38.171   2.689  1.00  0.00     0.227 C 
HETATM   17  C   UNL     1      17.902  40.653  -1.018  1.00  0.00     0.227 C 
HETATM   18  C   UNL     1      17.006  35.354   0.495  1.00  0.00     0.227 C 
HETATM   19  C   UNL     1      21.499  39.366   1.813  1.00  0.00     0.250 C 
HETATM   20  C   UNL     1      20.219  40.041  -0.970  1.00  0.00     0.283 C 
HETATM   21  C   UNL     1      17.367  39.962   0.239  1.00  0.00     0.250 C 
HETATM   22  C   UNL     1      18.129  35.026   1.490  1.00  0.00     0.250 C 
HETATM   23  C   UNL     1      21.513  35.820   2.418  1.00  0.00     0.283 C 
HETATM   24  C   UNL     1      16.023  37.273   1.628  1.00  0.00     0.283 C 
HETATM   25  C   UNL     1      22.879  38.368  -0.075  1.00  0.00     0.153 C 
HETATM   26  C   UNL     1      15.371  39.106  -1.076  1.00  0.00     0.153 C 
HETATM   27  C   UNL     1      19.762  35.843  -0.246  1.00  0.00     0.153 C 
ENDROOT
BRANCH  17  28
HETATM   28  C   UNL     1      17.155  41.954  -1.276  1.00  0.00     0.016 C 
HETATM   29  C   UNL     1      17.933  43.144  -0.717  1.00  0.00     0.012 C 
HETATM   30  C   UNL     1      16.894  42.139  -2.770  1.00  0.00     0.012 C 
ENDBRANCH  17  28
BRANCH  13  31
HETATM   31  C   UNL     1      22.511  40.879  -1.499  1.00  0.00     0.014 C 
HETATM   32  C   UNL     1      21.744  41.566  -2.630  1.00  0.00     0.012 C 
BRANCH  31  33
HETATM   33  C   UNL     1      23.636  41.764  -0.935  1.00  0.00     0.002 C 
HETATM   34  C   UNL     1      23.162  42.764   0.111  1.00  0.00     0.005 C 
ENDBRANCH  31  33
ENDBRANCH  13  31
BRANCH  14  35
HETATM   35  C   UNL     1      14.067  38.823   1.517  1.00  0.00     0.010 C 
HETATM   36  C   UNL     1      13.421  37.446   1.377  1.00  0.00     0.012 C 
HETATM   37  C   UNL     1      13.664  39.470   2.842  1.00  0.00     0.012 C 
ENDBRANCH  14  35
BRANCH  16  38
HETATM   38  C   UNL     1      21.521  38.420   4.155  1.00  0.00     0.016 C 
HETATM   39  C   UNL     1      22.703  38.061   5.054  1.00  0.00     0.012 C 
HETATM   40  C   UNL     1      20.280  37.626   4.561  1.00  0.00     0.012 C 
ENDBRANCH  16  38
BRANCH  18  41
HETATM   41  C   UNL     1      15.790  34.443   0.655  1.00  0.00     0.016 C 
HETATM   42  C   UNL     1      16.211  32.976   0.619  1.00  0.00     0.012 C 
HETATM   43  C   UNL     1      14.756  34.732  -0.431  1.00  0.00     0.012 C 
ENDBRANCH  18  41
BRANCH  15  44
HETATM   44  C   UNL     1      21.358  33.681   1.112  1.00  0.00     0.010 C 
HETATM   45  C   UNL     1      21.574  32.452   1.991  1.00  0.00     0.012 C 
HETATM   46  C   UNL     1      22.693  34.241   0.631  1.00  0.00     0.012 C 
ENDBRANCH  15  44
TORSDOF 7
ENDMDL
MODEL 3
REMARK VINA RESULT:    -5.824      3.618      6.722
REMARK INTER + INTRA:          -7.413
REMARK INTER:                  -8.165
REMARK INTRA:                   0.753
REMARK UNBOUND:                 0.795
REMARK  7 active torsions:
REMARK  status: ('A' for Active; 'I' for Inactive)
REMARK    1  A    between atoms: C_13  and  C_14 
REMARK    2  A    between atoms: C_14  and  C_19 
REMARK    3  A    between atoms: C_15  and  C_20 
REMARK    4  A    between atoms: C_16  and  C_21 
REMARK    5  A    between atoms: C_17  and  C_23 
REMARK    6  A    between atoms: C_18  and  C_26 
REMARK    7  A    between atoms: C_22  and  C_28 
ROOT
HETATM    1  O   UNL     1      17.402  36.888   1.341  1.00  0.00    -0.304 OA
HETATM    2  O   UNL     1      21.356  34.095  -0.624  1.00  0.00    -0.304 OA
HETATM    3  O   UNL     1      22.408  37.469   2.516  1.00  0.00    -0.304 OA
HETATM    4  O   UNL     1      18.841  35.796  -1.615  1.00  0.00    -0.270 OA
HETATM    5  O   UNL     1      18.504  35.160   2.400  1.00  0.00    -0.263 OA
HETATM    6  O   UNL     1      19.555  37.903   0.316  1.00  0.00    -0.270 OA
HETATM    7  O   UNL     1      24.724  35.794   0.985  1.00  0.00    -0.270 OA
HETATM    8  O   UNL     1      22.484  32.239  -1.373  1.00  0.00    -0.263 OA
HETATM    9  O   UNL     1      23.704  38.578   0.970  1.00  0.00    -0.263 OA
HETATM   10  N   UNL     1      18.372  34.018  -0.200  1.00  0.00    -0.340 N 
HETATM   11  N   UNL     1      20.299  39.008   2.207  1.00  0.00    -0.340 N 
HETATM   12  N   UNL     1      22.908  34.448   1.534  1.00  0.00    -0.340 N 
HETATM   13  C   UNL     1      17.221  34.744   0.374  1.00  0.00     0.190 C 
HETATM   14  C   UNL     1      21.517  39.449   1.494  1.00  0.00     0.190 C 
HETATM   15  C   UNL     1      23.307  33.384   0.589  1.00  0.00     0.190 C 
HETATM   16  C   UNL     1      20.393  33.977  -1.689  1.00  0.00     0.227 C 
HETATM   17  C   UNL     1      18.049  37.873   2.175  1.00  0.00     0.227 C 
HETATM   18  C   UNL     1      23.418  36.506   2.871  1.00  0.00     0.227 C 
HETATM   19  C   UNL     1      19.139  34.680  -1.175  1.00  0.00     0.250 C 
HETATM   20  C   UNL     1      17.785  35.587   1.505  1.00  0.00     0.283 C 
HETATM   21  C   UNL     1      19.362  38.255   1.485  1.00  0.00     0.250 C 
HETATM   22  C   UNL     1      23.746  35.563   1.704  1.00  0.00     0.250 C 
HETATM   23  C   UNL     1      22.341  33.156  -0.570  1.00  0.00     0.283 C 
HETATM   24  C   UNL     1      22.665  38.449   1.609  1.00  0.00     0.283 C 
HETATM   25  C   UNL     1      18.658  32.673   0.312  1.00  0.00     0.153 C 
HETATM   26  C   UNL     1      20.172  39.355   3.625  1.00  0.00     0.153 C 
HETATM   27  C   UNL     1      21.742  34.197   2.383  1.00  0.00     0.153 C 
ENDROOT
BRANCH  17  28
HETATM   28  C   UNL     1      17.113  39.071   2.249  1.00  0.00     0.016 C 
HETATM   29  C   UNL     1      16.874  39.655   0.858  1.00  0.00     0.012 C 
HETATM   30  C   UNL     1      15.788  38.680   2.901  1.00  0.00     0.012 C 
ENDBRANCH  17  28
BRANCH  13  31
HETATM   31  C   UNL     1      16.073  33.879   0.884  1.00  0.00     0.014 C 
HETATM   32  C   UNL     1      15.395  34.565   2.072  1.00  0.00     0.012 C 
BRANCH  31  33
HETATM   33  C   UNL     1      15.087  33.586  -0.261  1.00  0.00     0.002 C 
HETATM   34  C   UNL     1      15.308  32.235  -0.928  1.00  0.00     0.005 C 
ENDBRANCH  31  33
ENDBRANCH  13  31
BRANCH  14  35
HETATM   35  C   UNL     1      22.001  40.840   1.905  1.00  0.00     0.010 C 
HETATM   36  C   UNL     1      23.246  40.740   2.783  1.00  0.00     0.012 C 
HETATM   37  C   UNL     1      22.284  41.699   0.673  1.00  0.00     0.012 C 
ENDBRANCH  14  35
BRANCH  16  38
HETATM   38  C   UNL     1      20.953  34.661  -2.934  1.00  0.00     0.016 C 
HETATM   39  C   UNL     1      21.257  33.633  -4.022  1.00  0.00     0.012 C 
HETATM   40  C   UNL     1      22.206  35.463  -2.590  1.00  0.00     0.012 C 
ENDBRANCH  16  38
BRANCH  18  41
HETATM   41  C   UNL     1      24.660  37.176   3.456  1.00  0.00     0.016 C 
HETATM   42  C   UNL     1      25.751  36.142   3.724  1.00  0.00     0.012 C 
HETATM   43  C   UNL     1      24.310  37.932   4.736  1.00  0.00     0.012 C 
ENDBRANCH  18  41
BRANCH  15  44
HETATM   44  C   UNL     1      23.589  32.070   1.319  1.00  0.00     0.010 C 
HETATM   45  C   UNL     1      24.896  31.455   0.826  1.00  0.00     0.012 C 
HETATM   46  C   UNL     1      22.430  31.096   1.131  1.00  0.00     0.012 C 
ENDBRANCH  15  44
TORSDOF 7
ENDMDL
MODEL 4
REMARK VINA RESULT:    -5.376      4.053      8.210
REMARK INTER + INTRA:          -6.782
REMARK INTER:                  -7.873
REMARK INTRA:                   1.091
REMARK UNBOUND:                 0.795
REMARK  7 active torsions:
REMARK  status: ('A' for Active; 'I' for Inactive)
REMARK    1  A    between atoms: C_13  and  C_14 
REMARK    2  A    between atoms: C_14  and  C_19 
REMARK    3  A    between atoms: C_15  and  C_20 
REMARK    4  A    between atoms: C_16  and  C_21 
REMARK    5  A    between atoms: C_17  and  C_23 
REMARK    6  A    between atoms: C_18  and  C_26 
REMARK    7  A    between atoms: C_22  and  C_28 
ROOT
HETATM    1  O   UNL     1      21.495  38.188  -2.744  1.00  0.00    -0.304 OA
HETATM    2  O   UNL     1      20.128  33.275  -1.612  1.00  0.00    -0.304 OA
HETATM    3  O   UNL     1      18.325  36.721   1.074  1.00  0.00    -0.304 OA
HETATM    4  O   UNL     1      22.754  35.026  -2.104  1.00  0.00    -0.270 OA
HETATM    5  O   UNL     1      19.496  37.175  -3.286  1.00  0.00    -0.263 OA
HETATM    6  O   UNL     1      21.624  37.131  -0.381  1.00  0.00    -0.270 OA
HETATM    7  O   UNL     1      17.814  33.594   1.757  1.00  0.00    -0.270 OA
HETATM    8  O   UNL     1      19.508  31.097  -1.999  1.00  0.00    -0.263 OA
HETATM    9  O   UNL     1      19.321  35.847   2.956  1.00  0.00    -0.263 OA
HETATM   10  N   UNL     1      21.219  34.984  -3.844  1.00  0.00    -0.340 N 
HETATM   11  N   UNL     1      20.153  38.570   0.675  1.00  0.00    -0.340 N 
HETATM   12  N   UNL     1      17.780  33.991  -0.535  1.00  0.00    -0.340 N 
HETATM   13  C   UNL     1      21.585  36.361  -4.234  1.00  0.00     0.190 C 
HETATM   14  C   UNL     1      20.285  37.809   1.936  1.00  0.00     0.190 C 
HETATM   15  C   UNL     1      17.956  32.562  -0.867  1.00  0.00     0.190 C 
HETATM   16  C   UNL     1      21.404  33.056  -2.247  1.00  0.00     0.227 C 
HETATM   17  C   UNL     1      20.869  38.974  -1.707  1.00  0.00     0.227 C 
HETATM   18  C   UNL     1      17.206  35.817   1.083  1.00  0.00     0.227 C 
HETATM   19  C   UNL     1      21.858  34.435  -2.718  1.00  0.00     0.250 C 
HETATM   20  C   UNL     1      20.711  37.276  -3.391  1.00  0.00     0.283 C 
HETATM   21  C   UNL     1      20.915  38.142  -0.422  1.00  0.00     0.250 C 
HETATM   22  C   UNL     1      17.636  34.368   0.812  1.00  0.00     0.250 C 
HETATM   23  C   UNL     1      19.268  32.220  -1.567  1.00  0.00     0.283 C 
HETATM   24  C   UNL     1      19.273  36.670   2.048  1.00  0.00     0.283 C 
HETATM   25  C   UNL     1      20.191  34.299  -4.633  1.00  0.00     0.153 C 
HETATM   26  C   UNL     1      19.211  39.691   0.647  1.00  0.00     0.153 C 
HETATM   27  C   UNL     1      17.584  34.925  -1.645  1.00  0.00     0.153 C 
ENDROOT
BRANCH  17  28
HETATM   28  C   UNL     1      21.696  40.243  -1.555  1.00  0.00     0.016 C 
HETATM   29  C   UNL     1      23.070  40.071  -2.203  1.00  0.00     0.012 C 
HETATM   30  C   UNL     1      20.965  41.440  -2.160  1.00  0.00     0.012 C 
ENDBRANCH  17  28
BRANCH  13  31
HETATM   31  C   UNL     1      21.429  36.701  -5.712  1.00  0.00     0.014 C 
HETATM   32  C   UNL     1      20.971  38.152  -5.866  1.00  0.00     0.012 C 
BRANCH  31  33
HETATM   33  C   UNL     1      22.747  36.422  -6.457  1.00  0.00     0.002 C 
HETATM   34  C   UNL     1      23.970  36.405  -5.551  1.00  0.00     0.005 C 
ENDBRANCH  31  33
ENDBRANCH  13  31
BRANCH  14  35
HETATM   35  C   UNL     1      20.219  38.680   3.190  1.00  0.00     0.010 C 
HETATM   36  C   UNL     1      20.406  37.833   4.447  1.00  0.00     0.012 C 
HETATM   37  C   UNL     1      21.270  39.790   3.132  1.00  0.00     0.012 C 
ENDBRANCH  14  35
BRANCH  16  38
HETATM   38  C   UNL     1      22.366  32.465  -1.220  1.00  0.00     0.016 C 
HETATM   39  C   UNL     1      22.711  31.019  -1.574  1.00  0.00     0.012 C 
HETATM   40  C   UNL     1      21.771  32.545   0.185  1.00  0.00     0.012 C 
ENDBRANCH  16  38
BRANCH  18  41
HETATM   41  C   UNL     1      16.374  35.957   2.358  1.00  0.00     0.016 C 
HETATM   42  C   UNL     1      15.151  35.044   2.303  1.00  0.00     0.012 C 
HETATM   43  C   UNL     1      15.951  37.410   2.565  1.00  0.00     0.012 C 
ENDBRANCH  18  41
BRANCH  15  44
HETATM   44  C   UNL     1      16.767  32.027  -1.666  1.00  0.00     0.010 C 
HETATM   45  C   UNL     1      16.803  32.556  -3.097  1.00  0.00     0.012 C 
HETATM   46  C   UNL     1      15.454  32.402  -0.985  1.00  0.00     0.012 C 
ENDBRANCH  15  44
TORSDOF 7
ENDMDL
MODEL 5
REMARK VINA RESULT:    -5.337      2.204      6.625
REMARK INTER + INTRA:          -6.726
REMARK INTER:                  -7.508
REMARK INTRA:                   0.782
REMARK UNBOUND:                 0.795
REMARK  7 active torsions:
REMARK  status: ('A' for Active; 'I' for Inactive)
REMARK    1  A    between atoms: C_13  and  C_14 
REMARK    2  A    between atoms: C_14  and  C_19 
REMARK    3  A    between atoms: C_15  and  C_20 
REMARK    4  A    between atoms: C_16  and  C_21 
REMARK    5  A    between atoms: C_17  and  C_23 
REMARK    6  A    between atoms: C_18  and  C_26 
REMARK    7  A    between atoms: C_22  and  C_28 
ROOT
HETATM    1  O   UNL     1      15.587  37.372   0.848  1.00  0.00    -0.304 OA
HETATM    2  O   UNL     1      20.762  37.791   0.270  1.00  0.00    -0.304 OA
HETATM    3  O   UNL     1      18.458  41.492   2.097  1.00  0.00    -0.304 OA
HETATM    4  O   UNL     1      18.172  37.012  -1.429  1.00  0.00    -0.270 OA
HETATM    5  O   UNL     1      17.162  37.164   2.520  1.00  0.00    -0.263 OA
HETATM    6  O   UNL     1      16.783  39.357  -0.312  1.00  0.00    -0.270 OA
HETATM    7  O   UNL     1      21.625  41.632   1.417  1.00  0.00    -0.270 OA
HETATM    8  O   UNL     1      22.966  37.141   0.300  1.00  0.00    -0.263 OA
HETATM    9  O   UNL     1      19.133  42.839   0.357  1.00  0.00    -0.263 OA
HETATM   10  N   UNL     1      18.552  35.751   0.482  1.00  0.00    -0.340 N 
HETATM   11  N   UNL     1      16.062  41.024   1.120  1.00  0.00    -0.340 N 
HETATM   12  N   UNL     1      21.019  39.556   2.272  1.00  0.00    -0.340 N 
HETATM   13  C   UNL     1      17.100  35.569   0.683  1.00  0.00     0.190 C 
HETATM   14  C   UNL     1      16.862  42.027   0.385  1.00  0.00     0.190 C 
HETATM   15  C   UNL     1      22.256  38.906   1.790  1.00  0.00     0.190 C 
HETATM   16  C   UNL     1      20.459  36.821  -0.751  1.00  0.00     0.227 C 
HETATM   17  C   UNL     1      15.182  38.672   1.328  1.00  0.00     0.227 C 
HETATM   18  C   UNL     1      19.688  41.603   2.836  1.00  0.00     0.227 C 
HETATM   19  C   UNL     1      18.966  36.540  -0.606  1.00  0.00     0.250 C 
HETATM   20  C   UNL     1      16.639  36.775   1.484  1.00  0.00     0.283 C 
HETATM   21  C   UNL     1      16.080  39.706   0.643  1.00  0.00     0.250 C 
HETATM   22  C   UNL     1      20.862  40.942   2.100  1.00  0.00     0.250 C 
HETATM   23  C   UNL     1      22.047  37.839   0.719  1.00  0.00     0.283 C 
HETATM   24  C   UNL     1      18.285  42.160   0.925  1.00  0.00     0.283 C 
HETATM   25  C   UNL     1      19.460  35.129   1.451  1.00  0.00     0.153 C 
HETATM   26  C   UNL     1      15.338  41.467   2.314  1.00  0.00     0.153 C 
HETATM   27  C   UNL     1      20.096  38.747   3.071  1.00  0.00     0.153 C 
ENDROOT
BRANCH  17  28
HETATM   28  C   UNL     1      13.730  38.862   0.912  1.00  0.00     0.016 C 
HETATM   29  C   UNL     1      13.377  37.936  -0.251  1.00  0.00     0.012 C 
HETATM   30  C   UNL     1      12.793  38.618   2.094  1.00  0.00     0.012 C 
ENDBRANCH  17  28
BRANCH  13  31
HETATM   31  C   UNL     1      16.678  34.281   1.381  1.00  0.00     0.014 C 
HETATM   32  C   UNL     1      15.357  34.500   2.121  1.00  0.00     0.012 C 
BRANCH  31  33
HETATM   33  C   UNL     1      16.590  33.134   0.358  1.00  0.00     0.002 C 
HETATM   34  C   UNL     1      15.270  33.087  -0.398  1.00  0.00     0.005 C 
ENDBRANCH  31  33
ENDBRANCH  13  31
BRANCH  14  35
HETATM   35  C   UNL     1      16.207  43.407   0.317  1.00  0.00     0.010 C 
HETATM   36  C   UNL     1      16.972  44.411   1.176  1.00  0.00     0.012 C 
HETATM   37  C   UNL     1      16.124  43.894  -1.129  1.00  0.00     0.012 C 
ENDBRANCH  14  35
BRANCH  16  38
HETATM   38  C   UNL     1      20.789  37.425  -2.114  1.00  0.00     0.016 C 
HETATM   39  C   UNL     1      21.981  36.709  -2.746  1.00  0.00     0.012 C 
HETATM   40  C   UNL     1      21.070  38.921  -1.986  1.00  0.00     0.012 C 
ENDBRANCH  16  38
BRANCH  18  41
HETATM   41  C   UNL     1      19.981  43.049   3.237  1.00  0.00     0.016 C 
HETATM   42  C   UNL     1      21.319  43.142   3.966  1.00  0.00     0.012 C 
HETATM   43  C   UNL     1      18.856  43.603   4.107  1.00  0.00     0.012 C 
ENDBRANCH  18  41
BRANCH  15  44
HETATM   44  C   UNL     1      23.078  38.346   2.952  1.00  0.00     0.010 C 
HETATM   45  C   UNL     1      22.372  37.146   3.577  1.00  0.00     0.012 C 
HETATM   46  C   UNL     1      23.331  39.428   3.997  1.00  0.00     0.012 C 
ENDBRANCH  15  44
TORSDOF 7
ENDMDL
MODEL 6
REMARK VINA RESULT:    -5.309      2.617      6.714
REMARK INTER + INTRA:          -6.687
REMARK INTER:                  -7.631
REMARK INTRA:                   0.944
REMARK UNBOUND:                 0.795
REMARK  7 active torsions:
REMARK  status: ('A' for Active; 'I' for Inactive)
REMARK    1  A    between atoms: C_13  and  C_14 
REMARK    2  A    between atoms: C_14  and  C_19 
REMARK    3  A    between atoms: C_15  and  C_20 
REMARK    4  A    between atoms: C_16  and  C_21 
REMARK    5  A    between atoms: C_17  and  C_23 
REMARK    6  A    between atoms: C_18  and  C_26 
REMARK    7  A    between atoms: C_22  and  C_28 
ROOT
HETATM    1  O   UNL     1      16.314  37.618   0.340  1.00  0.00    -0.304 OA
HETATM    2  O   UNL     1      21.309  36.743   1.596  1.00  0.00    -0.304 OA
HETATM    3  O   UNL     1      19.774  41.212   1.716  1.00  0.00    -0.304 OA
HETATM    4  O   UNL     1      19.228  36.086  -0.737  1.00  0.00    -0.270 OA
HETATM    5  O   UNL     1      17.189  37.561   2.473  1.00  0.00    -0.263 OA
HETATM    6  O   UNL     1      18.332  38.892  -0.672  1.00  0.00    -0.270 OA
HETATM    7  O   UNL     1      22.892  40.476   2.209  1.00  0.00    -0.270 OA
HETATM    8  O   UNL     1      23.108  35.673   2.543  1.00  0.00    -0.263 OA
HETATM    9  O   UNL     1      21.301  41.836   0.110  1.00  0.00    -0.263 OA
HETATM   10  N   UNL     1      18.634  35.367   1.388  1.00  0.00    -0.340 N 
HETATM   11  N   UNL     1      17.748  41.010   0.052  1.00  0.00    -0.340 N 
HETATM   12  N   UNL     1      21.473  38.905   3.174  1.00  0.00    -0.340 N 
HETATM   13  C   UNL     1      17.202  35.563   1.083  1.00  0.00     0.190 C 
HETATM   14  C   UNL     1      18.989  41.569  -0.525  1.00  0.00     0.190 C 
HETATM   15  C   UNL     1      22.546  37.897   3.305  1.00  0.00     0.190 C 
HETATM   16  C   UNL     1      21.047  35.612   0.742  1.00  0.00     0.227 C 
HETATM   17  C   UNL     1      16.189  39.057   0.380  1.00  0.00     0.227 C 
HETATM   18  C   UNL     1      20.705  41.263   2.812  1.00  0.00     0.227 C 
HETATM   19  C   UNL     1      19.565  35.709   0.391  1.00  0.00     0.250 C 
HETATM   20  C   UNL     1      16.904  37.016   1.415  1.00  0.00     0.283 C 
HETATM   21  C   UNL     1      17.514  39.638  -0.122  1.00  0.00     0.250 C 
HETATM   22  C   UNL     1      21.793  40.185   2.691  1.00  0.00     0.250 C 
HETATM   23  C   UNL     1      22.357  36.640   2.459  1.00  0.00     0.283 C 
HETATM   24  C   UNL     1      20.161  41.542   0.454  1.00  0.00     0.283 C 
HETATM   25  C   UNL     1      18.988  34.865   2.720  1.00  0.00     0.153 C 
HETATM   26  C   UNL     1      16.868  41.915   0.794  1.00  0.00     0.153 C 
HETATM   27  C   UNL     1      20.159  38.571   3.726  1.00  0.00     0.153 C 
ENDROOT
BRANCH  17  28
HETATM   28  C   UNL     1      15.051  39.427  -0.559  1.00  0.00     0.016 C 
HETATM   29  C   UNL     1      14.824  38.324  -1.592  1.00  0.00     0.012 C 
HETATM   30  C   UNL     1      13.768  39.695   0.227  1.00  0.00     0.012 C 
ENDBRANCH  17  28
BRANCH  13  31
HETATM   31  C   UNL     1      16.230  34.646   1.817  1.00  0.00     0.014 C 
HETATM   32  C   UNL     1      14.941  35.404   2.138  1.00  0.00     0.012 C 
BRANCH  31  33
HETATM   33  C   UNL     1      15.971  33.380   0.982  1.00  0.00     0.002 C 
HETATM   34  C   UNL     1      15.463  33.667  -0.424  1.00  0.00     0.005 C 
ENDBRANCH  31  33
ENDBRANCH  13  31
BRANCH  14  35
HETATM   35  C   UNL     1      18.823  42.980  -1.090  1.00  0.00     0.010 C 
HETATM   36  C   UNL     1      19.525  44.004  -0.202  1.00  0.00     0.012 C 
HETATM   37  C   UNL     1      19.359  43.055  -2.520  1.00  0.00     0.012 C 
ENDBRANCH  14  35
BRANCH  16  38
HETATM   38  C   UNL     1      21.929  35.721  -0.499  1.00  0.00     0.016 C 
HETATM   39  C   UNL     1      22.982  34.614  -0.511  1.00  0.00     0.012 C 
HETATM   40  C   UNL     1      22.596  37.094  -0.567  1.00  0.00     0.012 C 
ENDBRANCH  16  38
BRANCH  18  41
HETATM   41  C   UNL     1      21.282  42.665   3.003  1.00  0.00     0.016 C 
HETATM   42  C   UNL     1      22.347  42.663   4.097  1.00  0.00     0.012 C 
HETATM   43  C   UNL     1      20.172  43.660   3.336  1.00  0.00     0.012 C 
ENDBRANCH  18  41
BRANCH  15  44
HETATM   44  C   UNL     1      22.784  37.526   4.769  1.00  0.00     0.010 C 
HETATM   45  C   UNL     1      22.053  38.497   5.692  1.00  0.00     0.012 C 
HETATM   46  C   UNL     1      24.277  37.508   5.080  1.00  0.00     0.012 C 
ENDBRANCH  15  44
TORSDOF 7
ENDMDL
MODEL 7
REMARK VINA RESULT:    -5.133      3.408      8.316
REMARK INTER + INTRA:          -6.439
REMARK INTER:                  -7.349
REMARK INTRA:                   0.910
REMARK UNBOUND:                 0.795
REMARK  7 active torsions:
REMARK  status: ('A' for Active; 'I' for Inactive)
REMARK    1  A    between atoms: C_13  and  C_14 
REMARK    2  A    between atoms: C_14  and  C_19 
REMARK    3  A    between atoms: C_15  and  C_20 
REMARK    4  A    between atoms: C_16  and  C_21 
REMARK    5  A    between atoms: C_17  and  C_23 
REMARK    6  A    between atoms: C_18  and  C_26 
REMARK    7  A    between atoms: C_22  and  C_28 
ROOT
HETATM    1  O   UNL     1      20.280  39.007  -2.028  1.00  0.00    -0.304 OA
HETATM    2  O   UNL     1      20.919  33.982  -0.749  1.00  0.00    -0.304 OA
HETATM    3  O   UNL     1      16.580  35.812  -0.332  1.00  0.00    -0.304 OA
HETATM    4  O   UNL     1      22.191  36.843  -0.114  1.00  0.00    -0.270 OA
HETATM    5  O   UNL     1      19.699  37.191  -3.324  1.00  0.00    -0.263 OA
HETATM    6  O   UNL     1      19.474  37.938   0.191  1.00  0.00    -0.270 OA
HETATM    7  O   UNL     1      17.251  32.795   0.647  1.00  0.00    -0.270 OA
HETATM    8  O   UNL     1      21.708  31.831  -0.908  1.00  0.00    -0.263 OA
HETATM    9  O   UNL     1      16.556  35.376   1.929  1.00  0.00    -0.263 OA
HETATM   10  N   UNL     1      22.180  36.207  -2.346  1.00  0.00    -0.340 N 
HETATM   11  N   UNL     1      17.213  38.351  -0.077  1.00  0.00    -0.340 N 
HETATM   12  N   UNL     1      18.379  33.335  -1.314  1.00  0.00    -0.340 N 
HETATM   13  C   UNL     1      22.031  37.614  -2.773  1.00  0.00     0.190 C 
HETATM   14  C   UNL     1      16.915  37.643   1.185  1.00  0.00     0.190 C 
HETATM   15  C   UNL     1      19.337  32.219  -1.166  1.00  0.00     0.190 C 
HETATM   16  C   UNL     1      22.249  34.486  -0.520  1.00  0.00     0.227 C 
HETATM   17  C   UNL     1      18.899  39.278  -1.706  1.00  0.00     0.227 C 
HETATM   18  C   UNL     1      16.225  34.475  -0.728  1.00  0.00     0.227 C 
HETATM   19  C   UNL     1      22.208  35.945  -0.965  1.00  0.00     0.250 C 
HETATM   20  C   UNL     1      20.537  37.891  -2.771  1.00  0.00     0.283 C 
HETATM   21  C   UNL     1      18.560  38.463  -0.455  1.00  0.00     0.250 C 
HETATM   22  C   UNL     1      17.329  33.463  -0.388  1.00  0.00     0.250 C 
HETATM   23  C   UNL     1      20.787  32.641  -0.942  1.00  0.00     0.283 C 
HETATM   24  C   UNL     1      16.680  36.147   0.983  1.00  0.00     0.283 C 
HETATM   25  C   UNL     1      22.252  35.179  -3.389  1.00  0.00     0.153 C 
HETATM   26  C   UNL     1      16.085  38.855  -0.864  1.00  0.00     0.153 C 
HETATM   27  C   UNL     1      18.468  34.147  -2.529  1.00  0.00     0.153 C 
ENDROOT
BRANCH  17  28
HETATM   28  C   UNL     1      18.797  40.769  -1.419  1.00  0.00     0.016 C 
HETATM   29  C   UNL     1      20.175  41.354  -1.111  1.00  0.00     0.012 C 
HETATM   30  C   UNL     1      18.156  41.503  -2.596  1.00  0.00     0.012 C 
ENDBRANCH  17  28
BRANCH  13  31
HETATM   31  C   UNL     1      22.631  37.967  -4.130  1.00  0.00     0.014 C 
HETATM   32  C   UNL     1      21.878  39.152  -4.737  1.00  0.00     0.012 C 
BRANCH  31  33
HETATM   33  C   UNL     1      24.137  38.246  -3.982  1.00  0.00     0.002 C 
HETATM   34  C   UNL     1      25.019  37.255  -4.728  1.00  0.00     0.005 C 
ENDBRANCH  31  33
ENDBRANCH  13  31
BRANCH  14  35
HETATM   35  C   UNL     1      15.748  38.246   1.968  1.00  0.00     0.010 C 
HETATM   36  C   UNL     1      14.826  37.148   2.494  1.00  0.00     0.012 C 
HETATM   37  C   UNL     1      16.261  39.110   3.120  1.00  0.00     0.012 C 
ENDBRANCH  14  35
BRANCH  16  38
HETATM   38  C   UNL     1      22.572  34.358   0.966  1.00  0.00     0.016 C 
HETATM   39  C   UNL     1      23.661  33.310   1.193  1.00  0.00     0.012 C 
HETATM   40  C   UNL     1      21.317  34.005   1.762  1.00  0.00     0.012 C 
ENDBRANCH  16  38
BRANCH  18  41
HETATM   41  C   UNL     1      14.859  34.064  -0.181  1.00  0.00     0.016 C 
HETATM   42  C   UNL     1      14.441  32.708  -0.745  1.00  0.00     0.012 C 
HETATM   43  C   UNL     1      13.810  35.126  -0.505  1.00  0.00     0.012 C 
ENDBRANCH  18  41
BRANCH  15  44
HETATM   44  C   UNL     1      19.237  31.242  -2.337  1.00  0.00     0.010 C 
HETATM   45  C   UNL     1      19.872  31.841  -3.589  1.00  0.00     0.012 C 
HETATM   46  C   UNL     1      17.781  30.867  -2.598  1.00  0.00     0.012 C 
ENDBRANCH  15  44
TORSDOF 7
ENDMDL
MODEL 8
REMARK VINA RESULT:    -5.050      2.462      4.761
REMARK INTER + INTRA:          -6.322
REMARK INTER:                  -7.142
REMARK INTRA:                   0.820
REMARK UNBOUND:                 0.795
REMARK  7 active torsions:
REMARK  status: ('A' for Active; 'I' for Inactive)
REMARK    1  A    between atoms: C_13  and  C_14 
REMARK    2  A    between atoms: C_14  and  C_19 
REMARK    3  A    between atoms: C_15  and  C_20 
REMARK    4  A    between atoms: C_16  and  C_21 
REMARK    5  A    between atoms: C_17  and  C_23 
REMARK    6  A    between atoms: C_18  and  C_26 
REMARK    7  A    between atoms: C_22  and  C_28 
ROOT
HETATM    1  O   UNL     1      13.399  40.776  -0.379  1.00  0.00    -0.304 OA
HETATM    2  O   UNL     1      16.857  37.020   0.730  1.00  0.00    -0.304 OA
HETATM    3  O   UNL     1      18.195  40.406  -2.285  1.00  0.00    -0.304 OA
HETATM    4  O   UNL     1      13.832  37.342  -0.245  1.00  0.00    -0.270 OA
HETATM    5  O   UNL     1      15.187  40.959   1.066  1.00  0.00    -0.263 OA
HETATM    6  O   UNL     1      14.709  39.410  -2.150  1.00  0.00    -0.270 OA
HETATM    7  O   UNL     1      20.086  37.849  -1.657  1.00  0.00    -0.270 OA
HETATM    8  O   UNL     1      18.019  35.510   2.014  1.00  0.00    -0.263 OA
HETATM    9  O   UNL     1      18.518  38.860  -3.960  1.00  0.00    -0.263 OA
HETATM   10  N   UNL     1      14.358  38.337   1.785  1.00  0.00    -0.340 N 
HETATM   11  N   UNL     1      15.829  41.181  -3.130  1.00  0.00    -0.340 N 
HETATM   12  N   UNL     1      18.978  38.589   0.250  1.00  0.00    -0.340 N 
HETATM   13  C   UNL     1      13.371  39.410   1.544  1.00  0.00     0.190 C 
HETATM   14  C   UNL     1      16.550  40.253  -4.027  1.00  0.00     0.190 C 
HETATM   15  C   UNL     1      19.228  37.331   0.982  1.00  0.00     0.190 C 
HETATM   16  C   UNL     1      15.620  36.323   0.975  1.00  0.00     0.227 C 
HETATM   17  C   UNL     1      14.063  41.581  -1.377  1.00  0.00     0.227 C 
HETATM   18  C   UNL     1      19.458  40.167  -1.638  1.00  0.00     0.227 C 
HETATM   19  C   UNL     1      14.525  37.368   0.779  1.00  0.00     0.250 C 
HETATM   20  C   UNL     1      14.107  40.477   0.750  1.00  0.00     0.283 C 
HETATM   21  C   UNL     1      14.892  40.629  -2.244  1.00  0.00     0.250 C 
HETATM   22  C   UNL     1      19.534  38.758  -1.030  1.00  0.00     0.250 C 
HETATM   23  C   UNL     1      17.979  36.520   1.318  1.00  0.00     0.283 C 
HETATM   24  C   UNL     1      17.856  39.742  -3.423  1.00  0.00     0.283 C 
HETATM   25  C   UNL     1      15.120  38.375   3.037  1.00  0.00     0.153 C 
HETATM   26  C   UNL     1      16.167  42.605  -3.202  1.00  0.00     0.153 C 
HETATM   27  C   UNL     1      18.309  39.672   0.973  1.00  0.00     0.153 C 
ENDROOT
BRANCH  17  28
HETATM   28  C   UNL     1      12.973  42.247  -2.203  1.00  0.00     0.016 C 
HETATM   29  C   UNL     1      11.724  41.368  -2.258  1.00  0.00     0.012 C 
HETATM   30  C   UNL     1      12.632  43.625  -1.636  1.00  0.00     0.012 C 
ENDBRANCH  17  28
BRANCH  13  31
HETATM   31  C   UNL     1      12.735  40.023   2.786  1.00  0.00     0.014 C 
HETATM   32  C   UNL     1      12.245  41.438   2.474  1.00  0.00     0.012 C 
BRANCH  31  33
HETATM   33  C   UNL     1      11.605  39.114   3.301  1.00  0.00     0.002 C 
HETATM   34  C   UNL     1      10.374  39.875   3.774  1.00  0.00     0.005 C 
ENDBRANCH  31  33
ENDBRANCH  13  31
BRANCH  14  35
HETATM   35  C   UNL     1      16.816  40.825  -5.420  1.00  0.00     0.010 C 
HETATM   36  C   UNL     1      18.314  41.002  -5.654  1.00  0.00     0.012 C 
HETATM   37  C   UNL     1      16.209  39.926  -6.497  1.00  0.00     0.012 C 
ENDBRANCH  14  35
BRANCH  16  38
HETATM   38  C   UNL     1      15.495  35.179  -0.028  1.00  0.00     0.016 C 
HETATM   39  C   UNL     1      15.587  33.829   0.680  1.00  0.00     0.012 C 
HETATM   40  C   UNL     1      16.569  35.291  -1.109  1.00  0.00     0.012 C 
ENDBRANCH  16  38
BRANCH  18  41
HETATM   41  C   UNL     1      20.637  40.476  -2.560  1.00  0.00     0.016 C 
HETATM   42  C   UNL     1      21.960  40.208  -1.848  1.00  0.00     0.012 C 
HETATM   43  C   UNL     1      20.572  41.922  -3.047  1.00  0.00     0.012 C 
ENDBRANCH  18  41
BRANCH  15  44
HETATM   44  C   UNL     1      20.061  37.577   2.241  1.00  0.00     0.010 C 
HETATM   45  C   UNL     1      19.249  38.350   3.276  1.00  0.00     0.012 C 
HETATM   46  C   UNL     1      21.344  38.326   1.894  1.00  0.00     0.012 C 
ENDBRANCH  15  44
TORSDOF 7
ENDMDL
MODEL 9
REMARK VINA RESULT:    -4.997      2.640      7.295
REMARK INTER + INTRA:          -6.248
REMARK INTER:                  -7.322
REMARK INTRA:                   1.074
REMARK UNBOUND:                 0.795
REMARK  7 active torsions:
REMARK  status: ('A' for Active; 'I' for Inactive)
REMARK    1  A    between atoms: C_13  and  C_14 
REMARK    2  A    between atoms: C_14  and  C_19 
REMARK    3  A    between atoms: C_15  and  C_20 
REMARK    4  A    between atoms: C_16  and  C_21 
REMARK    5  A    between atoms: C_17  and  C_23 
REMARK    6  A    between atoms: C_18  and  C_26 
REMARK    7  A    between atoms: C_22  and  C_28 
ROOT
HETATM    1  O   UNL     1      22.371  37.159   1.912  1.00  0.00    -0.304 OA
HETATM    2  O   UNL     1      18.092  39.598   0.170  1.00  0.00    -0.304 OA
HETATM    3  O   UNL     1      18.125  34.873   0.034  1.00  0.00    -0.304 OA
HETATM    4  O   UNL     1      21.260  39.636  -0.239  1.00  0.00    -0.270 OA
HETATM    5  O   UNL     1      20.382  37.397   3.055  1.00  0.00    -0.263 OA
HETATM    6  O   UNL     1      21.237  36.694  -0.372  1.00  0.00    -0.270 OA
HETATM    7  O   UNL     1      15.682  36.590  -1.230  1.00  0.00    -0.270 OA
HETATM    8  O   UNL     1      16.408  41.160   0.113  1.00  0.00    -0.263 OA
HETATM    9  O   UNL     1      17.880  34.885  -2.255  1.00  0.00    -0.263 OA
HETATM   10  N   UNL     1      20.509  40.003   1.926  1.00  0.00    -0.340 N 
HETATM   11  N   UNL     1      20.723  34.468  -0.007  1.00  0.00    -0.340 N 
HETATM   12  N   UNL     1      16.473  37.539   0.742  1.00  0.00    -0.340 N 
HETATM   13  C   UNL     1      21.713  39.352   2.482  1.00  0.00     0.190 C 
HETATM   14  C   UNL     1      20.047  34.390  -1.320  1.00  0.00     0.190 C 
HETATM   15  C   UNL     1      15.829  38.841   0.468  1.00  0.00     0.190 C 
HETATM   16  C   UNL     1      19.087  40.618  -0.049  1.00  0.00     0.227 C 
HETATM   17  C   UNL     1      22.108  35.763   1.652  1.00  0.00     0.227 C 
HETATM   18  C   UNL     1      16.730  35.082   0.318  1.00  0.00     0.227 C 
HETATM   19  C   UNL     1      20.380  40.046   0.526  1.00  0.00     0.250 C 
HETATM   20  C   UNL     1      21.390  37.868   2.545  1.00  0.00     0.283 C 
HETATM   21  C   UNL     1      21.319  35.689   0.342  1.00  0.00     0.250 C 
HETATM   22  C   UNL     1      16.252  36.468  -0.141  1.00  0.00     0.250 C 
HETATM   23  C   UNL     1      16.794  40.003   0.245  1.00  0.00     0.283 C 
HETATM   24  C   UNL     1      18.567  34.759  -1.247  1.00  0.00     0.283 C 
HETATM   25  C   UNL     1      19.516  40.525   2.870  1.00  0.00     0.153 C 
HETATM   26  C   UNL     1      20.691  33.282   0.851  1.00  0.00     0.153 C 
HETATM   27  C   UNL     1      17.165  37.382   2.022  1.00  0.00     0.153 C 
ENDROOT
BRANCH  17  28
HETATM   28  C   UNL     1      23.460  35.080   1.504  1.00  0.00     0.016 C 
HETATM   29  C   UNL     1      23.964  35.188   0.065  1.00  0.00     0.012 C 
HETATM   30  C   UNL     1      24.478  35.682   2.473  1.00  0.00     0.012 C 
ENDBRANCH  17  28
BRANCH  13  31
HETATM   31  C   UNL     1      22.172  39.849   3.848  1.00  0.00     0.014 C 
HETATM   32  C   UNL     1      22.814  38.702   4.630  1.00  0.00     0.012 C 
BRANCH  31  33
HETATM   33  C   UNL     1      23.125  41.045   3.679  1.00  0.00     0.002 C 
HETATM   34  C   UNL     1      22.480  42.390   3.986  1.00  0.00     0.005 C 
ENDBRANCH  31  33
ENDBRANCH  13  31
BRANCH  14  35
HETATM   35  C   UNL     1      20.207  33.037  -2.015  1.00  0.00     0.010 C 
HETATM   36  C   UNL     1      18.914  32.229  -1.927  1.00  0.00     0.012 C 
HETATM   37  C   UNL     1      20.622  33.224  -3.474  1.00  0.00     0.012 C 
ENDBRANCH  14  35
BRANCH  16  38
HETATM   38  C   UNL     1      19.202  40.877  -1.548  1.00  0.00     0.016 C 
HETATM   39  C   UNL     1      18.673  42.267  -1.898  1.00  0.00     0.012 C 
HETATM   40  C   UNL     1      18.453  39.805  -2.339  1.00  0.00     0.012 C 
ENDBRANCH  16  38
BRANCH  18  41
HETATM   41  C   UNL     1      15.863  33.948  -0.227  1.00  0.00     0.016 C 
HETATM   42  C   UNL     1      14.382  34.294  -0.096  1.00  0.00     0.012 C 
HETATM   43  C   UNL     1      16.174  32.640   0.496  1.00  0.00     0.012 C 
ENDBRANCH  18  41
BRANCH  15  44
HETATM   44  C   UNL     1      14.807  39.194   1.549  1.00  0.00     0.010 C 
HETATM   45  C   UNL     1      15.503  39.433   2.886  1.00  0.00     0.012 C 
HETATM   46  C   UNL     1      13.761  38.090   1.676  1.00  0.00     0.012 C 
ENDBRANCH  15  44
TORSDOF 7
ENDMDL
MODEL 10
REMARK VINA RESULT:    -4.916      2.077      6.027
REMARK INTER + INTRA:          -6.133
REMARK INTER:                  -7.059
REMARK INTRA:                   0.926
REMARK UNBOUND:                 0.795
REMARK  7 active torsions:
REMARK  status: ('A' for Active; 'I' for Inactive)
REMARK    1  A    between atoms: C_13  and  C_14 
REMARK    2  A    between atoms: C_14  and  C_19 
REMARK    3  A    between atoms: C_15  and  C_20 
REMARK    4  A    between atoms: C_16  and  C_21 
REMARK    5  A    between atoms: C_17  and  C_23 
REMARK    6  A    between atoms: C_18  and  C_26 
REMARK    7  A    between atoms: C_22  and  C_28 
ROOT
HETATM    1  O   UNL     1      19.269  37.343   2.363  1.00  0.00    -0.304 OA
HETATM    2  O   UNL     1      15.101  39.921   0.555  1.00  0.00    -0.304 OA
HETATM    3  O   UNL     1      19.313  42.034   0.178  1.00  0.00    -0.304 OA
HETATM    4  O   UNL     1      16.085  38.421   3.198  1.00  0.00    -0.270 OA
HETATM    5  O   UNL     1      18.651  37.545   0.151  1.00  0.00    -0.263 OA
HETATM    6  O   UNL     1      18.680  39.795   2.963  1.00  0.00    -0.270 OA
HETATM    7  O   UNL     1      16.571  43.556  -0.644  1.00  0.00    -0.270 OA
HETATM    8  O   UNL     1      13.087  40.231  -0.506  1.00  0.00    -0.263 OA
HETATM    9  O   UNL     1      18.611  43.787   1.495  1.00  0.00    -0.263 OA
HETATM   10  N   UNL     1      16.062  37.150   1.256  1.00  0.00    -0.340 N 
HETATM   11  N   UNL     1      20.589  40.783   2.108  1.00  0.00    -0.340 N 
HETATM   12  N   UNL     1      16.522  41.310  -1.245  1.00  0.00    -0.340 N 
HETATM   13  C   UNL     1      17.221  36.363   1.726  1.00  0.00     0.190 C 
HETATM   14  C   UNL     1      20.072  42.125   2.454  1.00  0.00     0.190 C 
HETATM   15  C   UNL     1      15.054  41.303  -1.412  1.00  0.00     0.190 C 
HETATM   16  C   UNL     1      14.483  39.080   1.548  1.00  0.00     0.227 C 
HETATM   17  C   UNL     1      20.360  38.275   2.192  1.00  0.00     0.227 C 
HETATM   18  C   UNL     1      18.705  42.524  -1.030  1.00  0.00     0.227 C 
HETATM   19  C   UNL     1      15.607  38.195   2.080  1.00  0.00     0.250 C 
HETATM   20  C   UNL     1      18.452  37.139   1.288  1.00  0.00     0.283 C 
HETATM   21  C   UNL     1      19.799  39.676   2.451  1.00  0.00     0.250 C 
HETATM   22  C   UNL     1      17.171  42.519  -0.944  1.00  0.00     0.250 C 
HETATM   23  C   UNL     1      14.297  40.421  -0.424  1.00  0.00     0.283 C 
HETATM   24  C   UNL     1      19.234  42.743   1.337  1.00  0.00     0.283 C 
HETATM   25  C   UNL     1      15.490  36.814  -0.052  1.00  0.00     0.153 C 
HETATM   26  C   UNL     1      21.868  40.704   1.399  1.00  0.00     0.153 C 
HETATM   27  C   UNL     1      17.247  40.083  -1.582  1.00  0.00     0.153 C 
ENDROOT
BRANCH  17  28
HETATM   28  C   UNL     1      21.413  37.917   3.231  1.00  0.00     0.016 C 
HETATM   29  C   UNL     1      20.768  37.694   4.598  1.00  0.00     0.012 C 
HETATM   30  C   UNL     1      22.196  36.678   2.800  1.00  0.00     0.012 C 
ENDBRANCH  17  28
BRANCH  13  31
HETATM   31  C   UNL     1      17.299  34.925   1.225  1.00  0.00     0.014 C 
HETATM   32  C   UNL     1      18.602  34.280   1.700  1.00  0.00     0.012 C 
BRANCH  31  33
HETATM   33  C   UNL     1      16.058  34.141   1.686  1.00  0.00     0.002 C 
HETATM   34  C   UNL     1      15.534  33.159   0.647  1.00  0.00     0.005 C 
ENDBRANCH  31  33
ENDBRANCH  13  31
BRANCH  14  35
HETATM   35  C   UNL     1      21.158  43.109   2.888  1.00  0.00     0.010 C 
HETATM   36  C   UNL     1      21.452  44.114   1.776  1.00  0.00     0.012 C 
HETATM   37  C   UNL     1      20.748  43.835   4.170  1.00  0.00     0.012 C 
ENDBRANCH  14  35
BRANCH  16  38
HETATM   38  C   UNL     1      13.895  39.966   2.644  1.00  0.00     0.016 C 
HETATM   39  C   UNL     1      12.374  39.832   2.687  1.00  0.00     0.012 C 
HETATM   40  C   UNL     1      14.299  41.424   2.432  1.00  0.00     0.012 C 
ENDBRANCH  16  38
BRANCH  18  41
HETATM   41  C   UNL     1      19.269  43.883  -1.440  1.00  0.00     0.016 C 
HETATM   42  C   UNL     1      18.565  44.402  -2.691  1.00  0.00     0.012 C 
HETATM   43  C   UNL     1      20.776  43.791  -1.671  1.00  0.00     0.012 C 
ENDBRANCH  18  41
BRANCH  15  44
HETATM   44  C   UNL     1      14.660  40.958  -2.849  1.00  0.00     0.010 C 
HETATM   45  C   UNL     1      14.942  39.487  -3.142  1.00  0.00     0.012 C 
HETATM   46  C   UNL     1      15.400  41.856  -3.836  1.00  0.00     0.012 C 
ENDBRANCH  15  44
TORSDOF 7
ENDMDL
MODEL 11
REMARK VINA RESULT:    -4.887      4.472      7.749
REMARK INTER + INTRA:          -6.092
REMARK INTER:                  -6.960
REMARK INTRA:                   0.868
REMARK UNBOUND:                 0.795
REMARK  7 active torsions:
REMARK  status: ('A' for Active; 'I' for Inactive)
REMARK    1  A    between atoms: C_13  and  C_14 
REMARK    2  A    between atoms: C_14  and  C_19 
REMARK    3  A    between atoms: C_15  and  C_20 
REMARK    4  A    between atoms: C_16  and  C_21 
REMARK    5  A    between atoms: C_17  and  C_23 
REMARK    6  A    between atoms: C_18  and  C_26 
REMARK    7  A    between atoms: C_22  and  C_28 
ROOT
HETATM    1  O   UNL     1      20.354  38.604  -2.068  1.00  0.00    -0.304 OA
HETATM    2  O   UNL     1      19.243  34.021   0.179  1.00  0.00    -0.304 OA
HETATM    3  O   UNL     1      21.920  33.956  -3.716  1.00  0.00    -0.304 OA
HETATM    4  O   UNL     1      17.758  36.643  -0.881  1.00  0.00    -0.270 OA
HETATM    5  O   UNL     1      21.768  37.368  -0.730  1.00  0.00    -0.263 OA
HETATM    6  O   UNL     1      19.406  36.542  -3.320  1.00  0.00    -0.270 OA
HETATM    7  O   UNL     1      20.901  31.217  -2.312  1.00  0.00    -0.270 OA
HETATM    8  O   UNL     1      18.902  32.512   1.878  1.00  0.00    -0.263 OA
HETATM    9  O   UNL     1      20.360  32.682  -4.831  1.00  0.00    -0.263 OA
HETATM   10  N   UNL     1      19.374  36.979   0.751  1.00  0.00    -0.340 N 
HETATM   11  N   UNL     1      21.171  36.238  -4.784  1.00  0.00    -0.340 N 
HETATM   12  N   UNL     1      21.465  32.834  -0.737  1.00  0.00    -0.340 N 
HETATM   13  C   UNL     1      19.712  38.299   0.181  1.00  0.00     0.190 C 
HETATM   14  C   UNL     1      20.523  35.033  -5.344  1.00  0.00     0.190 C 
HETATM   15  C   UNL     1      20.739  32.146   0.350  1.00  0.00     0.190 C 
HETATM   16  C   UNL     1      18.117  34.810   0.613  1.00  0.00     0.227 C 
HETATM   17  C   UNL     1      21.088  38.242  -3.258  1.00  0.00     0.227 C 
HETATM   18  C   UNL     1      22.516  32.850  -3.013  1.00  0.00     0.227 C 
HETATM   19  C   UNL     1      18.390  36.218   0.093  1.00  0.00     0.250 C 
HETATM   20  C   UNL     1      20.752  38.031  -0.895  1.00  0.00     0.283 C 
HETATM   21  C   UNL     1      20.482  36.937  -3.782  1.00  0.00     0.250 C 
HETATM   22  C   UNL     1      21.545  32.224  -2.001  1.00  0.00     0.250 C 
HETATM   23  C   UNL     1      19.537  32.906   0.904  1.00  0.00     0.283 C 
HETATM   24  C   UNL     1      20.904  33.756  -4.599  1.00  0.00     0.283 C 
HETATM   25  C   UNL     1      20.110  36.536   1.939  1.00  0.00     0.153 C 
HETATM   26  C   UNL     1      22.499  36.599  -5.286  1.00  0.00     0.153 C 
HETATM   27  C   UNL     1      22.222  34.038  -0.389  1.00  0.00     0.153 C 
ENDROOT
BRANCH  17  28
HETATM   28  C   UNL     1      20.885  39.369  -4.261  1.00  0.00     0.016 C 
HETATM   29  C   UNL     1      19.604  40.142  -3.951  1.00  0.00     0.012 C 
HETATM   30  C   UNL     1      22.089  40.309  -4.268  1.00  0.00     0.012 C 
ENDBRANCH  17  28
BRANCH  13  31
HETATM   31  C   UNL     1      20.231  39.339   1.167  1.00  0.00     0.014 C 
HETATM   32  C   UNL     1      20.970  40.447   0.414  1.00  0.00     0.012 C 
BRANCH  31  33
HETATM   33  C   UNL     1      19.069  39.885   2.015  1.00  0.00     0.002 C 
HETATM   34  C   UNL     1      19.359  41.235   2.656  1.00  0.00     0.005 C 
ENDBRANCH  31  33
ENDBRANCH  13  31
BRANCH  14  35
HETATM   35  C   UNL     1      20.764  34.845  -6.842  1.00  0.00     0.010 C 
HETATM   36  C   UNL     1      21.655  33.633  -7.098  1.00  0.00     0.012 C 
HETATM   37  C   UNL     1      19.437  34.701  -7.588  1.00  0.00     0.012 C 
ENDBRANCH  14  35
BRANCH  16  38
HETATM   38  C   UNL     1      16.845  34.221   0.009  1.00  0.00     0.016 C 
HETATM   39  C   UNL     1      15.940  33.656   1.103  1.00  0.00     0.012 C 
HETATM   40  C   UNL     1      17.185  33.141  -1.016  1.00  0.00     0.012 C 
ENDBRANCH  16  38
BRANCH  18  41
HETATM   41  C   UNL     1      23.113  31.822  -3.972  1.00  0.00     0.016 C 
HETATM   42  C   UNL     1      23.686  30.636  -3.200  1.00  0.00     0.012 C 
HETATM   43  C   UNL     1      24.189  32.464  -4.845  1.00  0.00     0.012 C 
ENDBRANCH  18  41
BRANCH  15  44
HETATM   44  C   UNL     1      21.684  31.740   1.481  1.00  0.00     0.010 C 
HETATM   45  C   UNL     1      22.363  32.970   2.077  1.00  0.00     0.012 C 
HETATM   46  C   UNL     1      22.723  30.742   0.976  1.00  0.00     0.012 C 
ENDBRANCH  15  44
TORSDOF 7
ENDMDL
MODEL 12
REMARK VINA RESULT:    -4.874      1.838      6.623
REMARK INTER + INTRA:          -6.074
REMARK INTER:                  -7.871
REMARK INTRA:                   1.797
REMARK UNBOUND:                 0.795
REMARK  7 active torsions:
REMARK  status: ('A' for Active; 'I' for Inactive)
REMARK    1  A    between atoms: C_13  and  C_14 
REMARK    2  A    between atoms: C_14  and  C_19 
REMARK    3  A    between atoms: C_15  and  C_20 
REMARK    4  A    between atoms: C_16  and  C_21 
REMARK    5  A    between atoms: C_17  and  C_23 
REMARK    6  A    between atoms: C_18  and  C_26 
REMARK    7  A    between atoms: C_22  and  C_28 
ROOT
HETATM    1  O   UNL     1      15.417  36.780  -0.992  1.00  0.00    -0.304 OA
HETATM    2  O   UNL     1      15.490  41.389   1.466  1.00  0.00    -0.304 OA
HETATM    3  O   UNL     1      19.462  38.827   1.503  1.00  0.00    -0.304 OA
HETATM    4  O   UNL     1      13.757  38.708   1.357  1.00  0.00    -0.270 OA
HETATM    5  O   UNL     1      16.346  38.733  -1.793  1.00  0.00    -0.263 OA
HETATM    6  O   UNL     1      16.250  37.141   1.436  1.00  0.00    -0.270 OA
HETATM    7  O   UNL     1      19.210  41.591   3.178  1.00  0.00    -0.270 OA
HETATM    8  O   UNL     1      15.053  43.616   1.823  1.00  0.00    -0.263 OA
HETATM    9  O   UNL     1      19.422  38.701   3.801  1.00  0.00    -0.263 OA
HETATM   10  N   UNL     1      13.994  39.848  -0.651  1.00  0.00    -0.340 N 
HETATM   11  N   UNL     1      18.431  36.440   1.116  1.00  0.00    -0.340 N 
HETATM   12  N   UNL     1      18.128  41.727   1.123  1.00  0.00    -0.340 N 
HETATM   13  C   UNL     1      13.949  38.578  -1.406  1.00  0.00     0.190 C 
HETATM   14  C   UNL     1      18.762  36.768   2.520  1.00  0.00     0.190 C 
HETATM   15  C   UNL     1      17.347  42.917   1.523  1.00  0.00     0.190 C 
HETATM   16  C   UNL     1      14.087  41.071   1.540  1.00  0.00     0.227 C 
HETATM   17  C   UNL     1      16.720  36.217  -0.720  1.00  0.00     0.227 C 
HETATM   18  C   UNL     1      20.042  40.143   1.452  1.00  0.00     0.227 C 
HETATM   19  C   UNL     1      13.928  39.773   0.752  1.00  0.00     0.250 C 
HETATM   20  C   UNL     1      15.380  38.068  -1.444  1.00  0.00     0.283 C 
HETATM   21  C   UNL     1      17.107  36.644   0.698  1.00  0.00     0.250 C 
HETATM   22  C   UNL     1      19.089  41.212   2.009  1.00  0.00     0.250 C 
HETATM   23  C   UNL     1      15.838  42.698   1.609  1.00  0.00     0.283 C 
HETATM   24  C   UNL     1      19.236  38.209   2.694  1.00  0.00     0.283 C 
HETATM   25  C   UNL     1      14.143  41.092  -1.411  1.00  0.00     0.153 C 
HETATM   26  C   UNL     1      19.511  35.961   0.251  1.00  0.00     0.153 C 
HETATM   27  C   UNL     1      17.985  41.255  -0.254  1.00  0.00     0.153 C 
ENDROOT
BRANCH  17  28
HETATM   28  C   UNL     1      16.573  34.705  -0.806  1.00  0.00     0.016 C 
HETATM   29  C   UNL     1      15.106  34.298  -0.676  1.00  0.00     0.012 C 
HETATM   30  C   UNL     1      17.161  34.178  -2.114  1.00  0.00     0.012 C 
ENDBRANCH  17  28
BRANCH  13  31
HETATM   31  C   UNL     1      13.382  38.662  -2.819  1.00  0.00     0.014 C 
HETATM   32  C   UNL     1      14.523  38.758  -3.832  1.00  0.00     0.012 C 
BRANCH  31  33
HETATM   33  C   UNL     1      12.462  37.458  -3.087  1.00  0.00     0.002 C 
HETATM   34  C   UNL     1      11.928  37.401  -4.512  1.00  0.00     0.005 C 
ENDBRANCH  31  33
ENDBRANCH  13  31
BRANCH  14  35
HETATM   35  C   UNL     1      19.773  35.813   3.153  1.00  0.00     0.010 C 
HETATM   36  C   UNL     1      19.391  34.360   2.876  1.00  0.00     0.012 C 
HETATM   37  C   UNL     1      21.184  36.101   2.639  1.00  0.00     0.012 C 
ENDBRANCH  14  35
BRANCH  16  38
HETATM   38  C   UNL     1      13.702  40.892   3.006  1.00  0.00     0.016 C 
HETATM   39  C   UNL     1      12.664  41.933   3.422  1.00  0.00     0.012 C 
HETATM   40  C   UNL     1      14.936  40.980   3.902  1.00  0.00     0.012 C 
ENDBRANCH  16  38
BRANCH  18  41
HETATM   41  C   UNL     1      21.421  40.182   2.109  1.00  0.00     0.016 C 
HETATM   42  C   UNL     1      21.986  41.600   2.086  1.00  0.00     0.012 C 
HETATM   43  C   UNL     1      22.374  39.213   1.412  1.00  0.00     0.012 C 
ENDBRANCH  18  41
BRANCH  15  44
HETATM   44  C   UNL     1      17.663  44.116   0.628  1.00  0.00     0.010 C 
HETATM   45  C   UNL     1      17.917  45.361   1.473  1.00  0.00     0.012 C 
HETATM   46  C   UNL     1      16.528  44.358  -0.362  1.00  0.00     0.012 C 
ENDBRANCH  15  44
TORSDOF 7
ENDMDL
MODEL 13
REMARK VINA RESULT:    -4.873      4.156      7.828
REMARK INTER + INTRA:          -6.073
REMARK INTER:                  -6.876
REMARK INTRA:                   0.803
REMARK UNBOUND:                 0.795
REMARK  7 active torsions:
REMARK  status: ('A' for Active; 'I' for Inactive)
REMARK    1  A    between atoms: C_13  and  C_14 
REMARK    2  A    between atoms: C_14  and  C_19 
REMARK    3  A    between atoms: C_15  and  C_20 
REMARK    4  A    between atoms: C_16  and  C_21 
REMARK    5  A    between atoms: C_17  and  C_23 
REMARK    6  A    between atoms: C_18  and  C_26 
REMARK    7  A    between atoms: C_22  and  C_28 
ROOT
HETATM    1  O   UNL     1      23.496  36.587   0.894  1.00  0.00    -0.304 OA
HETATM    2  O   UNL     1      18.332  36.554   0.104  1.00  0.00    -0.304 OA
HETATM    3  O   UNL     1      20.909  33.288  -2.139  1.00  0.00    -0.304 OA
HETATM    4  O   UNL     1      20.803  38.576   0.007  1.00  0.00    -0.270 OA
HETATM    5  O   UNL     1      21.983  35.141   1.861  1.00  0.00    -0.263 OA
HETATM    6  O   UNL     1      22.363  36.537  -1.437  1.00  0.00    -0.270 OA
HETATM    7  O   UNL     1      17.729  33.609  -2.684  1.00  0.00    -0.270 OA
HETATM    8  O   UNL     1      16.099  36.710   0.624  1.00  0.00    -0.263 OA
HETATM    9  O   UNL     1      20.237  34.090  -4.190  1.00  0.00    -0.263 OA
HETATM   10  N   UNL     1      20.434  37.518   2.039  1.00  0.00    -0.340 N 
HETATM   11  N   UNL     1      23.233  34.517  -2.154  1.00  0.00    -0.340 N 
HETATM   12  N   UNL     1      18.256  33.930  -0.441  1.00  0.00    -0.340 N 
HETATM   13  C   UNL     1      21.882  37.525   2.335  1.00  0.00     0.190 C 
HETATM   14  C   UNL     1      22.459  34.609  -3.410  1.00  0.00     0.190 C 
HETATM   15  C   UNL     1      16.966  34.591  -0.149  1.00  0.00     0.190 C 
HETATM   16  C   UNL     1      18.540  37.939   0.447  1.00  0.00     0.227 C 
HETATM   17  C   UNL     1      23.992  35.554   0.014  1.00  0.00     0.227 C 
HETATM   18  C   UNL     1      19.719  32.514  -1.902  1.00  0.00     0.227 C 
HETATM   19  C   UNL     1      20.020  38.046   0.803  1.00  0.00     0.250 C 
HETATM   20  C   UNL     1      22.441  36.264   1.698  1.00  0.00     0.283 C 
HETATM   21  C   UNL     1      23.123  35.582  -1.247  1.00  0.00     0.250 C 
HETATM   22  C   UNL     1      18.481  33.406  -1.725  1.00  0.00     0.250 C 
HETATM   23  C   UNL     1      17.071  36.061   0.251  1.00  0.00     0.283 C 
HETATM   24  C   UNL     1      21.070  33.986  -3.296  1.00  0.00     0.283 C 
HETATM   25  C   UNL     1      19.534  36.928   3.035  1.00  0.00     0.153 C 
HETATM   26  C   UNL     1      24.030  33.310  -1.926  1.00  0.00     0.153 C 
HETATM   27  C   UNL     1      19.165  33.696   0.682  1.00  0.00     0.153 C 
ENDROOT
BRANCH  17  28
HETATM   28  C   UNL     1      25.433  35.913  -0.318  1.00  0.00     0.016 C 
HETATM   29  C   UNL     1      25.698  37.392  -0.042  1.00  0.00     0.012 C 
HETATM   30  C   UNL     1      26.403  35.039   0.475  1.00  0.00     0.012 C 
ENDBRANCH  17  28
BRANCH  13  31
HETATM   31  C   UNL     1      22.261  37.583   3.811  1.00  0.00     0.014 C 
HETATM   32  C   UNL     1      23.728  37.184   3.986  1.00  0.00     0.012 C 
BRANCH  31  33
HETATM   33  C   UNL     1      21.966  38.984   4.374  1.00  0.00     0.002 C 
HETATM   34  C   UNL     1      22.977  40.040   3.950  1.00  0.00     0.005 C 
ENDBRANCH  31  33
ENDBRANCH  13  31
BRANCH  14  35
HETATM   35  C   UNL     1      23.186  34.028  -4.624  1.00  0.00     0.010 C 
HETATM   36  C   UNL     1      22.547  32.710  -5.056  1.00  0.00     0.012 C 
HETATM   37  C   UNL     1      23.186  35.027  -5.781  1.00  0.00     0.012 C 
ENDBRANCH  14  35
BRANCH  16  38
HETATM   38  C   UNL     1      18.186  38.801  -0.762  1.00  0.00     0.016 C 
HETATM   39  C   UNL     1      16.933  39.630  -0.485  1.00  0.00     0.012 C 
HETATM   40  C   UNL     1      17.990  37.933  -2.004  1.00  0.00     0.012 C 
ENDBRANCH  16  38
BRANCH  18  41
HETATM   41  C   UNL     1      19.522  31.435  -2.966  1.00  0.00     0.016 C 
HETATM   42  C   UNL     1      18.201  30.700  -2.747  1.00  0.00     0.012 C 
HETATM   43  C   UNL     1      20.691  30.452  -2.956  1.00  0.00     0.012 C 
ENDBRANCH  18  41
BRANCH  15  44
HETATM   44  C   UNL     1      16.163  33.809   0.891  1.00  0.00     0.010 C 
HETATM   45  C   UNL     1      14.860  33.295   0.284  1.00  0.00     0.012 C 
HETATM   46  C   UNL     1      15.884  34.678   2.113  1.00  0.00     0.012 C 
ENDBRANCH  15  44
TORSDOF 7
ENDMDL
MODEL 14
REMARK VINA RESULT:    -4.654      3.234      7.779
REMARK INTER + INTRA:          -5.763
REMARK INTER:                  -6.436
REMARK INTRA:                   0.673
REMARK UNBOUND:                 0.795
REMARK  7 active torsions:
REMARK  status: ('A' for Active; 'I' for Inactive)
REMARK    1  A    between atoms: C_13  and  C_14 
REMARK    2  A    between atoms: C_14  and  C_19 
REMARK    3  A    between atoms: C_15  and  C_20 
REMARK    4  A    between atoms: C_16  and  C_21 
REMARK    5  A    between atoms: C_17  and  C_23 
REMARK    6  A    between atoms: C_18  and  C_26 
REMARK    7  A    between atoms: C_22  and  C_28 
ROOT
HETATM    1  O   UNL     1      21.522  38.630  -3.183  1.00  0.00    -0.304 OA
HETATM    2  O   UNL     1      19.410  34.589  -0.633  1.00  0.00    -0.304 OA
HETATM    3  O   UNL     1      18.236  38.937   0.803  1.00  0.00    -0.304 OA
HETATM    4  O   UNL     1      22.272  35.663  -1.560  1.00  0.00    -0.270 OA
HETATM    5  O   UNL     1      19.376  37.829  -3.447  1.00  0.00    -0.263 OA
HETATM    6  O   UNL     1      21.528  38.349  -0.606  1.00  0.00    -0.270 OA
HETATM    7  O   UNL     1      17.245  36.296   2.401  1.00  0.00    -0.270 OA
HETATM    8  O   UNL     1      18.442  32.525  -0.349  1.00  0.00    -0.263 OA
HETATM    9  O   UNL     1      19.116  38.541   2.893  1.00  0.00    -0.263 OA
HETATM   10  N   UNL     1      20.716  35.329  -3.249  1.00  0.00    -0.340 N 
HETATM   11  N   UNL     1      20.327  40.257  -0.090  1.00  0.00    -0.340 N 
HETATM   12  N   UNL     1      17.229  35.965   0.098  1.00  0.00    -0.340 N 
HETATM   13  C   UNL     1      21.289  36.442  -4.033  1.00  0.00     0.190 C 
HETATM   14  C   UNL     1      20.361  39.913   1.347  1.00  0.00     0.190 C 
HETATM   15  C   UNL     1      17.167  34.495   0.229  1.00  0.00     0.190 C 
HETATM   16  C   UNL     1      20.621  33.986  -1.130  1.00  0.00     0.227 C 
HETATM   17  C   UNL     1      21.051  39.787  -2.458  1.00  0.00     0.227 C 
HETATM   18  C   UNL     1      16.987  38.269   1.056  1.00  0.00     0.227 C 
HETATM   19  C   UNL     1      21.281  35.061  -1.989  1.00  0.00     0.250 C 
HETATM   20  C   UNL     1      20.590  37.699  -3.540  1.00  0.00     0.283 C 
HETATM   21  C   UNL     1      20.989  39.397  -0.978  1.00  0.00     0.250 C 
HETATM   22  C   UNL     1      17.174  36.758   1.258  1.00  0.00     0.250 C 
HETATM   23  C   UNL     1      18.394  33.750  -0.292  1.00  0.00     0.283 C 
HETATM   24  C   UNL     1      19.183  39.040   1.774  1.00  0.00     0.283 C 
HETATM   25  C   UNL     1      19.575  34.605  -3.819  1.00  0.00     0.153 C 
HETATM   26  C   UNL     1      19.576  41.449  -0.492  1.00  0.00     0.153 C 
HETATM   27  C   UNL     1      17.162  36.529  -1.251  1.00  0.00     0.153 C 
ENDROOT
BRANCH  17  28
HETATM   28  C   UNL     1      22.073  40.892  -2.679  1.00  0.00     0.016 C 
HETATM   29  C   UNL     1      23.406  40.309  -3.146  1.00  0.00     0.012 C 
HETATM   30  C   UNL     1      21.553  41.914  -3.690  1.00  0.00     0.012 C 
ENDBRANCH  17  28
BRANCH  13  31
HETATM   31  C   UNL     1      21.160  36.328  -5.548  1.00  0.00     0.014 C 
HETATM   32  C   UNL     1      21.257  37.716  -6.183  1.00  0.00     0.012 C 
BRANCH  31  33
HETATM   33  C   UNL     1      22.224  35.360  -6.094  1.00  0.00     0.002 C 
HETATM   34  C   UNL     1      23.594  35.532  -5.453  1.00  0.00     0.005 C 
ENDBRANCH  31  33
ENDBRANCH  13  31
BRANCH  14  35
HETATM   35  C   UNL     1      20.461  41.128   2.269  1.00  0.00     0.010 C 
HETATM   36  C   UNL     1      19.129  41.385   2.971  1.00  0.00     0.012 C 
HETATM   37  C   UNL     1      21.578  40.938   3.295  1.00  0.00     0.012 C 
ENDBRANCH  14  35
BRANCH  16  38
HETATM   38  C   UNL     1      21.497  33.597   0.058  1.00  0.00     0.016 C 
HETATM   39  C   UNL     1      21.609  32.077   0.171  1.00  0.00     0.012 C 
HETATM   40  C   UNL     1      20.944  34.190   1.353  1.00  0.00     0.012 C 
ENDBRANCH  16  38
BRANCH  18  41
HETATM   41  C   UNL     1      16.213  38.926   2.199  1.00  0.00     0.016 C 
HETATM   42  C   UNL     1      14.965  38.115   2.538  1.00  0.00     0.012 C 
HETATM   43  C   UNL     1      15.839  40.362   1.838  1.00  0.00     0.012 C 
ENDBRANCH  18  41
BRANCH  15  44
HETATM   44  C   UNL     1      15.892  33.934  -0.402  1.00  0.00     0.010 C 
HETATM   45  C   UNL     1      14.725  34.896  -0.194  1.00  0.00     0.012 C 
HETATM   46  C   UNL     1      15.569  32.560   0.178  1.00  0.00     0.012 C 
ENDBRANCH  15  44
TORSDOF 7
ENDMDL
MODEL 15
REMARK VINA RESULT:    -4.630      3.190      7.625
REMARK INTER + INTRA:          -5.730
REMARK INTER:                  -7.258
REMARK INTRA:                   1.528
REMARK UNBOUND:                 0.795
REMARK  7 active torsions:
REMARK  status: ('A' for Active; 'I' for Inactive)
REMARK    1  A    between atoms: C_13  and  C_14 
REMARK    2  A    between atoms: C_14  and  C_19 
REMARK    3  A    between atoms: C_15  and  C_20 
REMARK    4  A    between atoms: C_16  and  C_21 
REMARK    5  A    between atoms: C_17  and  C_23 
REMARK    6  A    between atoms: C_18  and  C_26 
REMARK    7  A    between atoms: C_22  and  C_28 
ROOT
HETATM    1  O   UNL     1      23.291  36.885   0.955  1.00  0.00    -0.304 OA
HETATM    2  O   UNL     1      18.281  38.362   1.030  1.00  0.00    -0.304 OA
HETATM    3  O   UNL     1      19.340  34.332  -1.201  1.00  0.00    -0.304 OA
HETATM    4  O   UNL     1      21.160  39.533   0.291  1.00  0.00    -0.270 OA
HETATM    5  O   UNL     1      21.642  36.029   2.321  1.00  0.00    -0.263 OA
HETATM    6  O   UNL     1      21.767  37.029  -1.136  1.00  0.00    -0.270 OA
HETATM    7  O   UNL     1      16.341  35.562  -1.253  1.00  0.00    -0.270 OA
HETATM    8  O   UNL     1      16.328  39.219   1.886  1.00  0.00    -0.263 OA
HETATM    9  O   UNL     1      18.545  35.165  -3.195  1.00  0.00    -0.263 OA
HETATM   10  N   UNL     1      20.900  38.769   2.467  1.00  0.00    -0.340 N 
HETATM   11  N   UNL     1      21.871  34.798  -1.741  1.00  0.00    -0.340 N 
HETATM   12  N   UNL     1      17.356  35.854   0.820  1.00  0.00    -0.340 N 
HETATM   13  C   UNL     1      22.318  38.358   2.520  1.00  0.00     0.190 C 
HETATM   14  C   UNL     1      20.930  35.038  -2.856  1.00  0.00     0.190 C 
HETATM   15  C   UNL     1      16.390  36.891   1.237  1.00  0.00     0.190 C 
HETATM   16  C   UNL     1      18.936  39.638   1.168  1.00  0.00     0.227 C 
HETATM   17  C   UNL     1      23.294  35.696   0.135  1.00  0.00     0.227 C 
HETATM   18  C   UNL     1      18.047  33.971  -0.683  1.00  0.00     0.227 C 
HETATM   19  C   UNL     1      20.425  39.316   1.262  1.00  0.00     0.250 C 
HETATM   20  C   UNL     1      22.362  36.948   1.954  1.00  0.00     0.283 C 
HETATM   21  C   UNL     1      22.245  35.902  -0.961  1.00  0.00     0.250 C 
HETATM   22  C   UNL     1      17.172  35.204  -0.413  1.00  0.00     0.250 C 
HETATM   23  C   UNL     1      16.984  38.283   1.438  1.00  0.00     0.283 C 
HETATM   24  C   UNL     1      19.469  34.872  -2.443  1.00  0.00     0.283 C 
HETATM   25  C   UNL     1      20.077  38.544   3.660  1.00  0.00     0.153 C 
HETATM   26  C   UNL     1      22.318  33.424  -1.505  1.00  0.00     0.153 C 
HETATM   27  C   UNL     1      18.358  35.429   1.799  1.00  0.00     0.153 C 
ENDROOT
BRANCH  17  28
HETATM   28  C   UNL     1      24.686  35.580  -0.468  1.00  0.00     0.016 C 
HETATM   29  C   UNL     1      25.372  36.945  -0.507  1.00  0.00     0.012 C 
HETATM   30  C   UNL     1      25.532  34.578   0.315  1.00  0.00     0.012 C 
ENDBRANCH  17  28
BRANCH  13  31
HETATM   31  C   UNL     1      22.974  38.394   3.896  1.00  0.00     0.014 C 
HETATM   32  C   UNL     1      23.858  37.160   4.082  1.00  0.00     0.012 C 
BRANCH  31  33
HETATM   33  C   UNL     1      23.758  39.706   4.070  1.00  0.00     0.002 C 
HETATM   34  C   UNL     1      23.063  40.919   3.468  1.00  0.00     0.005 C 
ENDBRANCH  31  33
ENDBRANCH  13  31
BRANCH  14  35
HETATM   35  C   UNL     1      21.214  34.188  -4.094  1.00  0.00     0.010 C 
HETATM   36  C   UNL     1      22.646  34.402  -4.579  1.00  0.00     0.012 C 
HETATM   37  C   UNL     1      20.965  32.708  -3.803  1.00  0.00     0.012 C 
ENDBRANCH  14  35
BRANCH  16  38
HETATM   38  C   UNL     1      18.619  40.487  -0.061  1.00  0.00     0.016 C 
HETATM   39  C   UNL     1      17.740  41.677   0.318  1.00  0.00     0.012 C 
HETATM   40  C   UNL     1      17.941  39.643  -1.139  1.00  0.00     0.012 C 
ENDBRANCH  16  38
BRANCH  18  41
HETATM   41  C   UNL     1      17.351  32.935  -1.564  1.00  0.00     0.016 C 
HETATM   42  C   UNL     1      16.057  32.455  -0.909  1.00  0.00     0.012 C 
HETATM   43  C   UNL     1      18.280  31.756  -1.843  1.00  0.00     0.012 C 
ENDBRANCH  18  41
BRANCH  15  44
HETATM   44  C   UNL     1      15.611  36.457   2.480  1.00  0.00     0.010 C 
HETATM   45  C   UNL     1      15.237  34.980   2.388  1.00  0.00     0.012 C 
HETATM   46  C   UNL     1      14.365  37.319   2.657  1.00  0.00     0.012 C 
ENDBRANCH  15  44
TORSDOF 7
ENDMDL
MODEL 16
REMARK VINA RESULT:    -4.611      2.348      7.238
REMARK INTER + INTRA:          -5.703
REMARK INTER:                  -6.439
REMARK INTRA:                   0.737
REMARK UNBOUND:                 0.795
REMARK  7 active torsions:
REMARK  status: ('A' for Active; 'I' for Inactive)
REMARK    1  A    between atoms: C_13  and  C_14 
REMARK    2  A    between atoms: C_14  and  C_19 
REMARK    3  A    between atoms: C_15  and  C_20 
REMARK    4  A    between atoms: C_16  and  C_21 
REMARK    5  A    between atoms: C_17  and  C_23 
REMARK    6  A    between atoms: C_18  and  C_26 
REMARK    7  A    between atoms: C_22  and  C_28 
ROOT
HETATM    1  O   UNL     1      20.852  40.260  -1.592  1.00  0.00    -0.304 OA
HETATM    2  O   UNL     1      19.008  35.926   0.667  1.00  0.00    -0.304 OA
HETATM    3  O   UNL     1      16.385  39.846   0.988  1.00  0.00    -0.304 OA
HETATM    4  O   UNL     1      21.662  37.702   0.597  1.00  0.00    -0.270 OA
HETATM    5  O   UNL     1      19.204  38.884  -2.435  1.00  0.00    -0.263 OA
HETATM    6  O   UNL     1      20.001  40.121   0.852  1.00  0.00    -0.270 OA
HETATM    7  O   UNL     1      15.555  37.118   2.530  1.00  0.00    -0.270 OA
HETATM    8  O   UNL     1      18.530  33.692   0.909  1.00  0.00    -0.263 OA
HETATM    9  O   UNL     1      16.526  39.815   3.286  1.00  0.00    -0.263 OA
HETATM   10  N   UNL     1      20.944  36.866  -1.445  1.00  0.00    -0.340 N 
HETATM   11  N   UNL     1      18.273  41.647   0.659  1.00  0.00    -0.340 N 
HETATM   12  N   UNL     1      16.446  36.681   0.427  1.00  0.00    -0.340 N 
HETATM   13  C   UNL     1      21.473  38.053  -2.147  1.00  0.00     0.190 C 
HETATM   14  C   UNL     1      17.871  41.398   2.060  1.00  0.00     0.190 C 
HETATM   15  C   UNL     1      16.698  35.259   0.740  1.00  0.00     0.190 C 
HETATM   16  C   UNL     1      20.423  35.657   0.693  1.00  0.00     0.227 C 
HETATM   17  C   UNL     1      19.887  41.277  -1.240  1.00  0.00     0.227 C 
HETATM   18  C   UNL     1      15.329  38.872   0.906  1.00  0.00     0.227 C 
HETATM   19  C   UNL     1      21.067  36.828  -0.045  1.00  0.00     0.250 C 
HETATM   20  C   UNL     1      20.363  39.091  -2.100  1.00  0.00     0.283 C 
HETATM   21  C   UNL     1      19.395  40.959   0.175  1.00  0.00     0.250 C 
HETATM   22  C   UNL     1      15.790  37.484   1.375  1.00  0.00     0.250 C 
HETATM   23  C   UNL     1      18.171  34.856   0.769  1.00  0.00     0.283 C 
HETATM   24  C   UNL     1      16.867  40.255   2.193  1.00  0.00     0.283 C 
HETATM   25  C   UNL     1      20.294  35.827  -2.251  1.00  0.00     0.153 C 
HETATM   26  C   UNL     1      17.452  42.563  -0.137  1.00  0.00     0.153 C 
HETATM   27  C   UNL     1      16.733  37.135  -0.935  1.00  0.00     0.153 C 
ENDROOT
BRANCH  17  28
HETATM   28  C   UNL     1      20.622  42.609  -1.267  1.00  0.00     0.016 C 
HETATM   29  C   UNL     1      22.130  42.396  -1.133  1.00  0.00     0.012 C 
HETATM   30  C   UNL     1      20.302  43.376  -2.549  1.00  0.00     0.012 C 
ENDBRANCH  17  28
BRANCH  13  31
HETATM   31  C   UNL     1      21.927  37.832  -3.585  1.00  0.00     0.014 C 
HETATM   32  C   UNL     1      21.950  39.166  -4.334  1.00  0.00     0.012 C 
BRANCH  31  33
HETATM   33  C   UNL     1      23.296  37.130  -3.602  1.00  0.00     0.002 C 
HETATM   34  C   UNL     1      23.353  35.921  -4.526  1.00  0.00     0.005 C 
ENDBRANCH  31  33
ENDBRANCH  13  31
BRANCH  14  35
HETATM   35  C   UNL     1      17.338  42.638   2.777  1.00  0.00     0.010 C 
HETATM   36  C   UNL     1      15.904  42.413   3.251  1.00  0.00     0.012 C 
HETATM   37  C   UNL     1      18.239  43.010   3.955  1.00  0.00     0.012 C 
ENDBRANCH  14  35
BRANCH  16  38
HETATM   38  C   UNL     1      20.881  35.586   2.147  1.00  0.00     0.016 C 
HETATM   39  C   UNL     1      21.333  34.170   2.501  1.00  0.00     0.012 C 
HETATM   40  C   UNL     1      19.767  36.042   3.086  1.00  0.00     0.012 C 
ENDBRANCH  16  38
BRANCH  18  41
HETATM   41  C   UNL     1      14.063  39.346   1.620  1.00  0.00     0.016 C 
HETATM   42  C   UNL     1      12.970  38.283   1.537  1.00  0.00     0.012 C 
HETATM   43  C   UNL     1      13.575  40.666   1.028  1.00  0.00     0.012 C 
ENDBRANCH  18  41
BRANCH  15  44
HETATM   44  C   UNL     1      15.910  34.336  -0.191  1.00  0.00     0.010 C 
HETATM   45  C   UNL     1      14.529  34.920  -0.477  1.00  0.00     0.012 C 
HETATM   46  C   UNL     1      15.790  32.941   0.416  1.00  0.00     0.012 C 
ENDBRANCH  15  44
TORSDOF 7
ENDMDL
MODEL 17
REMARK VINA RESULT:    -4.575      2.466      4.498
REMARK INTER + INTRA:          -5.652
REMARK INTER:                  -6.418
REMARK INTRA:                   0.765
REMARK UNBOUND:                 0.795
REMARK  7 active torsions:
REMARK  status: ('A' for Active; 'I' for Inactive)
REMARK    1  A    between atoms: C_13  and  C_14 
REMARK    2  A    between atoms: C_14  and  C_19 
REMARK    3  A    between atoms: C_15  and  C_20 
REMARK    4  A    between atoms: C_16  and  C_21 
REMARK    5  A    between atoms: C_17  and  C_23 
REMARK    6  A    between atoms: C_18  and  C_26 
REMARK    7  A    between atoms: C_22  and  C_28 
ROOT
HETATM    1  O   UNL     1      20.401  41.069   0.631  1.00  0.00    -0.304 OA
HETATM    2  O   UNL     1      15.922  38.518  -0.219  1.00  0.00    -0.304 OA
HETATM    3  O   UNL     1      19.954  36.222  -1.123  1.00  0.00    -0.304 OA
HETATM    4  O   UNL     1      17.330  41.289  -0.956  1.00  0.00    -0.270 OA
HETATM    5  O   UNL     1      19.465  39.471   2.005  1.00  0.00    -0.263 OA
HETATM    6  O   UNL     1      19.811  39.821  -1.562  1.00  0.00    -0.270 OA
HETATM    7  O   UNL     1      17.068  34.921  -1.820  1.00  0.00    -0.270 OA
HETATM    8  O   UNL     1      13.767  37.819   0.161  1.00  0.00    -0.263 OA
HETATM    9  O   UNL     1      19.381  35.981  -3.340  1.00  0.00    -0.263 OA
HETATM   10  N   UNL     1      17.078  40.847   1.308  1.00  0.00    -0.340 N 
HETATM   11  N   UNL     1      21.539  38.284  -1.510  1.00  0.00    -0.340 N 
HETATM   12  N   UNL     1      17.018  36.104   0.182  1.00  0.00    -0.340 N 
HETATM   13  C   UNL     1      18.321  41.583   1.617  1.00  0.00     0.190 C 
HETATM   14  C   UNL     1      21.027  37.638  -2.738  1.00  0.00     0.190 C 
HETATM   15  C   UNL     1      15.542  36.180   0.195  1.00  0.00     0.190 C 
HETATM   16  C   UNL     1      15.485  39.882  -0.375  1.00  0.00     0.227 C 
HETATM   17  C   UNL     1      21.419  40.151   0.178  1.00  0.00     0.227 C 
HETATM   18  C   UNL     1      19.161  35.114  -0.660  1.00  0.00     0.227 C 
HETATM   19  C   UNL     1      16.706  40.735  -0.043  1.00  0.00     0.250 C 
HETATM   20  C   UNL     1      19.447  40.573   1.473  1.00  0.00     0.283 C 
HETATM   21  C   UNL     1      20.849  39.408  -1.033  1.00  0.00     0.250 C 
HETATM   22  C   UNL     1      17.657  35.372  -0.833  1.00  0.00     0.250 C 
HETATM   23  C   UNL     1      14.968  37.587   0.060  1.00  0.00     0.283 C 
HETATM   24  C   UNL     1      20.015  36.532  -2.446  1.00  0.00     0.283 C 
HETATM   25  C   UNL     1      16.338  40.252   2.426  1.00  0.00     0.153 C 
HETATM   26  C   UNL     1      22.706  37.686  -0.857  1.00  0.00     0.153 C 
HETATM   27  C   UNL     1      17.733  36.648   1.337  1.00  0.00     0.153 C 
ENDROOT
BRANCH  17  28
HETATM   28  C   UNL     1      22.623  40.990  -0.224  1.00  0.00     0.016 C 
HETATM   29  C   UNL     1      22.193  42.413  -0.580  1.00  0.00     0.012 C 
HETATM   30  C   UNL     1      23.665  41.010   0.893  1.00  0.00     0.012 C 
ENDBRANCH  17  28
BRANCH  13  31
HETATM   31  C   UNL     1      18.381  42.246   2.989  1.00  0.00     0.014 C 
HETATM   32  C   UNL     1      19.813  42.693   3.288  1.00  0.00     0.012 C 
BRANCH  31  33
HETATM   33  C   UNL     1      17.380  43.414   3.052  1.00  0.00     0.002 C 
HETATM   34  C   UNL     1      16.639  43.514   4.378  1.00  0.00     0.005 C 
ENDBRANCH  31  33
ENDBRANCH  13  31
BRANCH  14  35
HETATM   35  C   UNL     1      22.125  37.102  -3.656  1.00  0.00     0.010 C 
HETATM   36  C   UNL     1      22.162  35.576  -3.620  1.00  0.00     0.012 C 
HETATM   37  C   UNL     1      21.923  37.599  -5.087  1.00  0.00     0.012 C 
ENDBRANCH  14  35
BRANCH  16  38
HETATM   38  C   UNL     1      15.027  40.088  -1.816  1.00  0.00     0.016 C 
HETATM   39  C   UNL     1      13.518  40.319  -1.875  1.00  0.00     0.012 C 
HETATM   40  C   UNL     1      15.419  38.892  -2.683  1.00  0.00     0.012 C 
ENDBRANCH  16  38
BRANCH  18  41
HETATM   41  C   UNL     1      19.609  33.793  -1.285  1.00  0.00     0.016 C 
HETATM   42  C   UNL     1      18.715  32.647  -0.818  1.00  0.00     0.012 C 
HETATM   43  C   UNL     1      21.070  33.508  -0.945  1.00  0.00     0.012 C 
ENDBRANCH  18  41
BRANCH  15  44
HETATM   44  C   UNL     1      14.960  35.479   1.423  1.00  0.00     0.010 C 
HETATM   45  C   UNL     1      15.128  36.349   2.665  1.00  0.00     0.012 C 
HETATM   46  C   UNL     1      15.622  34.119   1.625  1.00  0.00     0.012 C 
ENDBRANCH  15  44
TORSDOF 7
ENDMDL
MODEL 18
REMARK VINA RESULT:    -4.260      2.025      6.781
REMARK INTER + INTRA:          -5.208
REMARK INTER:                  -6.331
REMARK INTRA:                   1.123
REMARK UNBOUND:                 0.795
REMARK  7 active torsions:
REMARK  status: ('A' for Active; 'I' for Inactive)
REMARK    1  A    between atoms: C_13  and  C_14 
REMARK    2  A    between atoms: C_14  and  C_19 
REMARK    3  A    between atoms: C_15  and  C_20 
REMARK    4  A    between atoms: C_16  and  C_21 
REMARK    5  A    between atoms: C_17  and  C_23 
REMARK    6  A    between atoms: C_18  and  C_26 
REMARK    7  A    between atoms: C_22  and  C_28 
ROOT
HETATM    1  O   UNL     1      20.011  40.330   0.978  1.00  0.00    -0.304 OA
HETATM    2  O   UNL     1      15.386  37.946   0.511  1.00  0.00    -0.304 OA
HETATM    3  O   UNL     1      15.377  42.617   1.233  1.00  0.00    -0.304 OA
HETATM    4  O   UNL     1      18.107  37.692   2.165  1.00  0.00    -0.270 OA
HETATM    5  O   UNL     1      18.666  40.329  -0.895  1.00  0.00    -0.263 OA
HETATM    6  O   UNL     1      18.042  40.598   2.641  1.00  0.00    -0.270 OA
HETATM    7  O   UNL     1      12.625  40.904   1.170  1.00  0.00    -0.270 OA
HETATM    8  O   UNL     1      13.823  36.480  -0.317  1.00  0.00    -0.263 OA
HETATM    9  O   UNL     1      14.213  42.363   3.204  1.00  0.00    -0.263 OA
HETATM   10  N   UNL     1      18.310  37.611  -0.146  1.00  0.00    -0.340 N 
HETATM   11  N   UNL     1      17.730  42.874   2.378  1.00  0.00    -0.340 N 
HETATM   12  N   UNL     1      14.151  40.140  -0.410  1.00  0.00    -0.340 N 
HETATM   13  C   UNL     1      19.639  38.254  -0.078  1.00  0.00     0.190 C 
HETATM   14  C   UNL     1      16.575  42.842   3.301  1.00  0.00     0.190 C 
HETATM   15  C   UNL     1      13.448  38.853  -0.586  1.00  0.00     0.190 C 
HETATM   16  C   UNL     1      16.201  36.856   0.986  1.00  0.00     0.227 C 
HETATM   17  C   UNL     1      19.670  41.701   1.279  1.00  0.00     0.227 C 
HETATM   18  C   UNL     1      14.220  42.517   0.383  1.00  0.00     0.227 C 
HETATM   19  C   UNL     1      17.618  37.418   1.063  1.00  0.00     0.250 C 
HETATM   20  C   UNL     1      19.374  39.750  -0.082  1.00  0.00     0.283 C 
HETATM   21  C   UNL     1      18.413  41.670   2.153  1.00  0.00     0.250 C 
HETATM   22  C   UNL     1      13.592  41.117   0.431  1.00  0.00     0.250 C 
HETATM   23  C   UNL     1      14.232  37.623  -0.136  1.00  0.00     0.283 C 
HETATM   24  C   UNL     1      15.255  42.564   2.587  1.00  0.00     0.283 C 
HETATM   25  C   UNL     1      17.790  37.252  -1.469  1.00  0.00     0.153 C 
HETATM   26  C   UNL     1      18.057  44.149   1.735  1.00  0.00     0.153 C 
HETATM   27  C   UNL     1      15.309  40.402  -1.267  1.00  0.00     0.153 C 
ENDROOT
BRANCH  17  28
HETATM   28  C   UNL     1      20.845  42.288   2.048  1.00  0.00     0.016 C 
HETATM   29  C   UNL     1      21.560  41.203   2.851  1.00  0.00     0.012 C 
HETATM   30  C   UNL     1      21.820  42.982   1.098  1.00  0.00     0.012 C 
ENDBRANCH  17  28
BRANCH  13  31
HETATM   31  C   UNL     1      20.616  37.888  -1.190  1.00  0.00     0.014 C 
HETATM   32  C   UNL     1      21.694  38.966  -1.308  1.00  0.00     0.012 C 
BRANCH  31  33
HETATM   33  C   UNL     1      21.211  36.493  -0.929  1.00  0.00     0.002 C 
HETATM   34  C   UNL     1      22.718  36.501  -0.715  1.00  0.00     0.005 C 
ENDBRANCH  31  33
ENDBRANCH  13  31
BRANCH  14  35
HETATM   35  C   UNL     1      16.441  44.098   4.163  1.00  0.00     0.010 C 
HETATM   36  C   UNL     1      15.094  44.117   4.883  1.00  0.00     0.012 C 
HETATM   37  C   UNL     1      17.587  44.188   5.169  1.00  0.00     0.012 C 
ENDBRANCH  14  35
BRANCH  16  38
HETATM   38  C   UNL     1      15.689  36.425   2.358  1.00  0.00     0.016 C 
HETATM   39  C   UNL     1      15.213  34.974   2.325  1.00  0.00     0.012 C 
HETATM   40  C   UNL     1      14.564  37.346   2.828  1.00  0.00     0.012 C 
ENDBRANCH  16  38
BRANCH  18  41
HETATM   41  C   UNL     1      13.210  43.628   0.664  1.00  0.00     0.016 C 
HETATM   42  C   UNL     1      12.139  43.668  -0.424  1.00  0.00     0.012 C 
HETATM   43  C   UNL     1      13.914  44.979   0.774  1.00  0.00     0.012 C 
ENDBRANCH  18  41
BRANCH  15  44
HETATM   44  C   UNL     1      12.958  38.679  -2.024  1.00  0.00     0.010 C 
HETATM   45  C   UNL     1      14.131  38.391  -2.957  1.00  0.00     0.012 C 
HETATM   46  C   UNL     1      12.196  39.919  -2.482  1.00  0.00     0.012 C 
ENDBRANCH  15  44
TORSDOF 7
ENDMDL
MODEL 19
REMARK VINA RESULT:    -4.119      1.913      2.379
REMARK INTER + INTRA:          -5.010
REMARK INTER:                  -6.102
REMARK INTRA:                   1.092
REMARK UNBOUND:                 0.795
REMARK  7 active torsions:
REMARK  status: ('A' for Active; 'I' for Inactive)
REMARK    1  A    between atoms: C_13  and  C_14 
REMARK    2  A    between atoms: C_14  and  C_19 
REMARK    3  A    between atoms: C_15  and  C_20 
REMARK    4  A    between atoms: C_16  and  C_21 
REMARK    5  A    between atoms: C_17  and  C_23 
REMARK    6  A    between atoms: C_18  and  C_26 
REMARK    7  A    between atoms: C_22  and  C_28 
ROOT
HETATM    1  O   UNL     1      15.788  44.112   2.553  1.00  0.00    -0.304 OA
HETATM    2  O   UNL     1      15.171  39.336   0.527  1.00  0.00    -0.304 OA
HETATM    3  O   UNL     1      19.351  40.360   2.482  1.00  0.00    -0.304 OA
HETATM    4  O   UNL     1      14.798  42.402  -0.291  1.00  0.00    -0.270 OA
HETATM    5  O   UNL     1      15.387  42.175   3.738  1.00  0.00    -0.263 OA
HETATM    6  O   UNL     1      17.431  42.995   0.889  1.00  0.00    -0.270 OA
HETATM    7  O   UNL     1      18.839  37.553   0.944  1.00  0.00    -0.270 OA
HETATM    8  O   UNL     1      14.113  37.360   0.023  1.00  0.00    -0.263 OA
HETATM    9  O   UNL     1      20.433  40.008   0.480  1.00  0.00    -0.263 OA
HETATM   10  N   UNL     1      13.610  41.695   1.573  1.00  0.00    -0.340 N 
HETATM   11  N   UNL     1      19.292  42.979   2.264  1.00  0.00    -0.340 N 
HETATM   12  N   UNL     1      16.974  38.218   2.165  1.00  0.00    -0.340 N 
HETATM   13  C   UNL     1      13.723  43.035   2.185  1.00  0.00     0.190 C 
HETATM   14  C   UNL     1      20.075  42.274   1.227  1.00  0.00     0.190 C 
HETATM   15  C   UNL     1      16.071  37.301   1.439  1.00  0.00     0.190 C 
HETATM   16  C   UNL     1      14.215  40.082  -0.253  1.00  0.00     0.227 C 
HETATM   17  C   UNL     1      17.170  44.138   2.974  1.00  0.00     0.227 C 
HETATM   18  C   UNL     1      19.270  38.967   2.836  1.00  0.00     0.227 C 
HETATM   19  C   UNL     1      14.235  41.492   0.329  1.00  0.00     0.250 C 
HETATM   20  C   UNL     1      15.042  43.035   2.939  1.00  0.00     0.283 C 
HETATM   21  C   UNL     1      17.967  43.321   1.954  1.00  0.00     0.250 C 
HETATM   22  C   UNL     1      18.351  38.186   1.885  1.00  0.00     0.250 C 
HETATM   23  C   UNL     1      14.999  37.987   0.596  1.00  0.00     0.283 C 
HETATM   24  C   UNL     1      19.966  40.755   1.334  1.00  0.00     0.283 C 
HETATM   25  C   UNL     1      12.886  40.660   2.318  1.00  0.00     0.153 C 
HETATM   26  C   UNL     1      19.938  43.240   3.552  1.00  0.00     0.153 C 
HETATM   27  C   UNL     1      16.409  38.988   3.274  1.00  0.00     0.153 C 
ENDROOT
BRANCH  17  28
HETATM   28  C   UNL     1      17.609  45.595   2.955  1.00  0.00     0.016 C 
HETATM   29  C   UNL     1      16.679  46.427   2.073  1.00  0.00     0.012 C 
HETATM   30  C   UNL     1      17.652  46.165   4.373  1.00  0.00     0.012 C 
ENDBRANCH  17  28
BRANCH  13  31
HETATM   31  C   UNL     1      12.585  43.442   3.115  1.00  0.00     0.014 C 
HETATM   32  C   UNL     1      13.063  44.536   4.072  1.00  0.00     0.012 C 
BRANCH  31  33
HETATM   33  C   UNL     1      11.364  43.883   2.289  1.00  0.00     0.002 C 
HETATM   34  C   UNL     1      11.719  44.728   1.074  1.00  0.00     0.005 C 
ENDBRANCH  31  33
ENDBRANCH  13  31
BRANCH  14  35
HETATM   35  C   UNL     1      21.548  42.682   1.184  1.00  0.00     0.010 C 
HETATM   36  C   UNL     1      21.684  44.189   0.976  1.00  0.00     0.012 C 
HETATM   37  C   UNL     1      22.265  42.252   2.463  1.00  0.00     0.012 C 
ENDBRANCH  14  35
BRANCH  16  38
HETATM   38  C   UNL     1      14.659  40.068  -1.713  1.00  0.00     0.016 C 
HETATM   39  C   UNL     1      13.707  39.223  -2.558  1.00  0.00     0.012 C 
HETATM   40  C   UNL     1      16.090  39.547  -1.837  1.00  0.00     0.012 C 
ENDBRANCH  16  38
BRANCH  18  41
HETATM   41  C   UNL     1      20.655  38.334   2.971  1.00  0.00     0.016 C 
HETATM   42  C   UNL     1      20.543  36.911   3.512  1.00  0.00     0.012 C 
HETATM   43  C   UNL     1      21.547  39.183   3.875  1.00  0.00     0.012 C 
ENDBRANCH  18  41
BRANCH  15  44
HETATM   44  C   UNL     1      15.437  36.281   2.385  1.00  0.00     0.010 C 
HETATM   45  C   UNL     1      15.425  34.895   1.745  1.00  0.00     0.012 C 
HETATM   46  C   UNL     1      14.023  36.711   2.765  1.00  0.00     0.012 C 
ENDBRANCH  15  44
TORSDOF 7
ENDMDL
MODEL 20
REMARK VINA RESULT:    -4.046      3.097      5.560
REMARK INTER + INTRA:          -4.907
REMARK INTER:                  -6.647
REMARK INTRA:                   1.740
REMARK UNBOUND:                 0.795
REMARK  7 active torsions:
REMARK  status: ('A' for Active; 'I' for Inactive)
REMARK    1  A    between atoms: C_13  and  C_14 
REMARK    2  A    between atoms: C_14  and  C_19 
REMARK    3  A    between atoms: C_15  and  C_20 
REMARK    4  A    between atoms: C_16  and  C_21 
REMARK    5  A    between atoms: C_17  and  C_23 
REMARK    6  A    between atoms: C_18  and  C_26 
REMARK    7  A    between atoms: C_22  and  C_28 
ROOT
HETATM    1  O   UNL     1      16.555  38.859  -0.312  1.00  0.00    -0.304 OA
HETATM    2  O   UNL     1      19.252  34.385  -0.279  1.00  0.00    -0.304 OA
HETATM    3  O   UNL     1      21.257  38.133  -2.346  1.00  0.00    -0.304 OA
HETATM    4  O   UNL     1      16.362  35.486  -1.077  1.00  0.00    -0.270 OA
HETATM    5  O   UNL     1      18.307  38.339   1.094  1.00  0.00    -0.263 OA
HETATM    6  O   UNL     1      17.646  37.782  -2.402  1.00  0.00    -0.270 OA
HETATM    7  O   UNL     1      22.642  35.203  -2.437  1.00  0.00    -0.270 OA
HETATM    8  O   UNL     1      20.089  32.412   0.549  1.00  0.00    -0.263 OA
HETATM    9  O   UNL     1      21.343  37.038  -4.369  1.00  0.00    -0.263 OA
HETATM   10  N   UNL     1      17.002  35.814   1.130  1.00  0.00    -0.340 N 
HETATM   11  N   UNL     1      19.092  39.513  -2.915  1.00  0.00    -0.340 N 
HETATM   12  N   UNL     1      21.632  35.616  -0.382  1.00  0.00    -0.340 N 
HETATM   13  C   UNL     1      16.231  37.073   1.194  1.00  0.00     0.190 C 
HETATM   14  C   UNL     1      19.660  38.732  -4.035  1.00  0.00     0.190 C 
HETATM   15  C   UNL     1      21.633  34.187  -0.003  1.00  0.00     0.190 C 
HETATM   16  C   UNL     1      17.904  33.883  -0.196  1.00  0.00     0.227 C 
HETATM   17  C   UNL     1      17.380  39.760  -1.083  1.00  0.00     0.227 C 
HETATM   18  C   UNL     1      22.439  37.512  -1.809  1.00  0.00     0.227 C 
HETATM   19  C   UNL     1      17.020  35.123  -0.095  1.00  0.00     0.250 C 
HETATM   20  C   UNL     1      17.167  38.157   0.687  1.00  0.00     0.283 C 
HETATM   21  C   UNL     1      18.048  38.930  -2.182  1.00  0.00     0.250 C 
HETATM   22  C   UNL     1      22.244  36.005  -1.586  1.00  0.00     0.250 C 
HETATM   23  C   UNL     1      20.250  33.557   0.137  1.00  0.00     0.283 C 
HETATM   24  C   UNL     1      20.836  37.857  -3.610  1.00  0.00     0.283 C 
HETATM   25  C   UNL     1      17.724  35.391   2.334  1.00  0.00     0.153 C 
HETATM   26  C   UNL     1      19.682  40.822  -2.624  1.00  0.00     0.153 C 
HETATM   27  C   UNL     1      21.149  36.578   0.610  1.00  0.00     0.153 C 
ENDROOT
BRANCH  17  28
HETATM   28  C   UNL     1      16.450  40.802  -1.687  1.00  0.00     0.016 C 
HETATM   29  C   UNL     1      15.004  40.308  -1.669  1.00  0.00     0.012 C 
HETATM   30  C   UNL     1      16.570  42.130  -0.941  1.00  0.00     0.012 C 
ENDBRANCH  17  28
BRANCH  13  31
HETATM   31  C   UNL     1      15.681  37.451   2.565  1.00  0.00     0.014 C 
HETATM   32  C   UNL     1      16.073  38.891   2.903  1.00  0.00     0.012 C 
BRANCH  31  33
HETATM   33  C   UNL     1      14.157  37.238   2.597  1.00  0.00     0.002 C 
HETATM   34  C   UNL     1      13.392  38.145   1.644  1.00  0.00     0.005 C 
ENDBRANCH  31  33
ENDBRANCH  13  31
BRANCH  14  35
HETATM   35  C   UNL     1      20.061  39.585  -5.239  1.00  0.00     0.010 C 
HETATM   36  C   UNL     1      18.888  40.444  -5.707  1.00  0.00     0.012 C 
HETATM   37  C   UNL     1      21.265  40.464  -4.900  1.00  0.00     0.012 C 
ENDBRANCH  14  35
BRANCH  16  38
HETATM   38  C   UNL     1      17.603  33.078  -1.457  1.00  0.00     0.016 C 
HETATM   39  C   UNL     1      17.925  33.893  -2.708  1.00  0.00     0.012 C 
HETATM   40  C   UNL     1      16.144  32.627  -1.474  1.00  0.00     0.012 C 
ENDBRANCH  16  38
BRANCH  18  41
HETATM   41  C   UNL     1      23.678  37.830  -2.644  1.00  0.00     0.016 C 
HETATM   42  C   UNL     1      24.917  37.175  -2.037  1.00  0.00     0.012 C 
HETATM   43  C   UNL     1      23.873  39.340  -2.761  1.00  0.00     0.012 C 
ENDBRANCH  18  41
BRANCH  15  44
HETATM   44  C   UNL     1      22.462  33.948   1.259  1.00  0.00     0.010 C 
HETATM   45  C   UNL     1      23.367  32.732   1.081  1.00  0.00     0.012 C 
HETATM   46  C   UNL     1      21.551  33.769   2.470  1.00  0.00     0.012 C 
ENDBRANCH  15  44
TORSDOF 7
ENDMDL
