MODEL 1
REMARK VINA RESULT:    -6.652      0.000      0.000
REMARK INTER + INTRA:          -8.452
REMARK INTER:                  -9.374
REMARK INTRA:                   0.921
REMARK UNBOUND:                 0.921
REMARK  7 active torsions:
REMARK  status: ('A' for Active; 'I' for Inactive)
REMARK    1  A    between atoms: C_13  and  C_14 
REMARK    2  A    between atoms: C_14  and  C_19 
REMARK    3  A    between atoms: C_15  and  C_20 
REMARK    4  A    between atoms: C_16  and  C_21 
REMARK    5  A    between atoms: C_17  and  C_23 
REMARK    6  A    between atoms: C_18  and  C_26 
REMARK    7  A    between atoms: C_22  and  C_28 
ROOT
HETATM    1  O   UNL     1      32.688   3.729  -4.959  1.00  0.00    -0.304 OA
HETATM    2  O   UNL     1      34.550   4.560  -9.768  1.00  0.00    -0.304 OA
HETATM    3  O   UNL     1      33.531   8.349  -7.132  1.00  0.00    -0.304 OA
HETATM    4  O   UNL     1      32.246   2.910  -8.295  1.00  0.00    -0.270 OA
HETATM    5  O   UNL     1      34.849   4.328  -5.494  1.00  0.00    -0.263 OA
HETATM    6  O   UNL     1      31.602   5.305  -6.706  1.00  0.00    -0.270 OA
HETATM    7  O   UNL     1      34.453   8.633 -10.227  1.00  0.00    -0.270 OA
HETATM    8  O   UNL     1      35.870   4.244 -11.622  1.00  0.00    -0.263 OA
HETATM    9  O   UNL     1      31.970   9.062  -8.666  1.00  0.00    -0.263 OA
HETATM   10  N   UNL     1      34.416   2.469  -7.600  1.00  0.00    -0.340 N 
HETATM   11  N   UNL     1      31.779   7.268  -5.496  1.00  0.00    -0.340 N 
HETATM   12  N   UNL     1      35.613   6.938  -9.135  1.00  0.00    -0.340 N 
HETATM   13  C   UNL     1      33.947   2.190  -6.227  1.00  0.00     0.190 C 
HETATM   14  C   UNL     1      31.206   8.037  -6.621  1.00  0.00     0.190 C 
HETATM   15  C   UNL     1      36.062   6.320 -10.400  1.00  0.00     0.190 C 
HETATM   16  C   UNL     1      33.950   3.260  -9.936  1.00  0.00     0.227 C 
HETATM   17  C   UNL     1      32.394   5.054  -4.463  1.00  0.00     0.227 C 
HETATM   18  C   UNL     1      34.666   8.869  -7.846  1.00  0.00     0.227 C 
HETATM   19  C   UNL     1      33.455   2.865  -8.548  1.00  0.00     0.250 C 
HETATM   20  C   UNL     1      33.918   3.534  -5.519  1.00  0.00     0.283 C 
HETATM   21  C   UNL     1      31.896   5.880  -5.652  1.00  0.00     0.250 C 
HETATM   22  C   UNL     1      34.887   8.141  -9.181  1.00  0.00     0.250 C 
HETATM   23  C   UNL     1      35.505   4.925 -10.668  1.00  0.00     0.283 C 
HETATM   24  C   UNL     1      32.267   8.529  -7.602  1.00  0.00     0.283 C 
HETATM   25  C   UNL     1      35.852   2.351  -7.871  1.00  0.00     0.153 C 
HETATM   26  C   UNL     1      32.218   8.012  -4.312  1.00  0.00     0.153 C 
HETATM   27  C   UNL     1      36.106   6.357  -7.885  1.00  0.00     0.153 C 
ENDROOT
BRANCH  17  28
HETATM   28  C   UNL     1      31.297   4.900  -3.419  1.00  0.00     0.016 C 
HETATM   29  C   UNL     1      30.556   3.577  -3.606  1.00  0.00     0.012 C 
HETATM   30  C   UNL     1      31.878   4.993  -2.008  1.00  0.00     0.012 C 
ENDBRANCH  17  28
BRANCH  13  31
HETATM   31  C   UNL     1      34.778   1.192  -5.427  1.00  0.00     0.014 C 
HETATM   32  C   UNL     1      35.421   1.893  -4.230  1.00  0.00     0.012 C 
BRANCH  31  33
HETATM   33  C   UNL     1      33.901   0.000  -5.004  1.00  0.00     0.002 C 
HETATM   34  C   UNL     1      32.466   0.087  -5.504  1.00  0.00     0.005 C 
ENDBRANCH  31  33
ENDBRANCH  13  31
BRANCH  14  35
HETATM   35  C   UNL     1      30.327   9.208  -6.183  1.00  0.00     0.010 C 
HETATM   36  C   UNL     1      31.139  10.500  -6.123  1.00  0.00     0.012 C 
HETATM   37  C   UNL     1      29.133   9.370  -7.124  1.00  0.00     0.012 C 
ENDBRANCH  14  35
BRANCH  16  38
HETATM   38  C   UNL     1      32.801   3.377 -10.933  1.00  0.00     0.016 C 
HETATM   39  C   UNL     1      33.107   2.587 -12.204  1.00  0.00     0.012 C 
HETATM   40  C   UNL     1      32.523   4.842 -11.268  1.00  0.00     0.012 C 
ENDBRANCH  16  38
BRANCH  18  41
HETATM   41  C   UNL     1      34.591  10.387  -8.007  1.00  0.00     0.016 C 
HETATM   42  C   UNL     1      35.806  10.907  -8.771  1.00  0.00     0.012 C 
HETATM   43  C   UNL     1      34.482  11.066  -6.644  1.00  0.00     0.012 C 
ENDBRANCH  18  41
BRANCH  15  44
HETATM   44  C   UNL     1      37.588   6.317 -10.506  1.00  0.00     0.010 C 
HETATM   45  C   UNL     1      38.028   6.800 -11.885  1.00  0.00     0.012 C 
HETATM   46  C   UNL     1      38.140   4.924 -10.221  1.00  0.00     0.012 C 
ENDBRANCH  15  44
TORSDOF 7
ENDMDL
MODEL 2
REMARK VINA RESULT:    -6.228      1.855      6.598
REMARK INTER + INTRA:          -7.855
REMARK INTER:                  -8.870
REMARK INTRA:                   1.015
REMARK UNBOUND:                 0.921
REMARK  7 active torsions:
REMARK  status: ('A' for Active; 'I' for Inactive)
REMARK    1  A    between atoms: C_13  and  C_14 
REMARK    2  A    between atoms: C_14  and  C_19 
REMARK    3  A    between atoms: C_15  and  C_20 
REMARK    4  A    between atoms: C_16  and  C_21 
REMARK    5  A    between atoms: C_17  and  C_23 
REMARK    6  A    between atoms: C_18  and  C_26 
REMARK    7  A    between atoms: C_22  and  C_28 
ROOT
HETATM    1  O   UNL     1      32.453   6.679  -4.951  1.00  0.00    -0.304 OA
HETATM    2  O   UNL     1      35.519   6.955  -9.172  1.00  0.00    -0.304 OA
HETATM    3  O   UNL     1      33.806   2.712  -7.986  1.00  0.00    -0.304 OA
HETATM    4  O   UNL     1      35.516   7.821  -6.097  1.00  0.00    -0.270 OA
HETATM    5  O   UNL     1      31.747   6.667  -7.146  1.00  0.00    -0.263 OA
HETATM    6  O   UNL     1      34.499   5.149  -5.388  1.00  0.00    -0.270 OA
HETATM    7  O   UNL     1      35.928   3.068 -10.411  1.00  0.00    -0.270 OA
HETATM    8  O   UNL     1      36.384   7.813 -11.120  1.00  0.00    -0.263 OA
HETATM    9  O   UNL     1      35.932   1.876  -7.697  1.00  0.00    -0.263 OA
HETATM   10  N   UNL     1      33.773   8.647  -7.388  1.00  0.00    -0.340 N 
HETATM   11  N   UNL     1      33.366   3.132  -5.428  1.00  0.00    -0.340 N 
HETATM   12  N   UNL     1      34.398   4.819 -10.341  1.00  0.00    -0.340 N 
HETATM   13  C   UNL     1      32.864   8.622  -6.223  1.00  0.00     0.190 C 
HETATM   14  C   UNL     1      34.619   2.413  -5.746  1.00  0.00     0.190 C 
HETATM   15  C   UNL     1      35.232   5.689 -11.196  1.00  0.00     0.190 C 
HETATM   16  C   UNL     1      35.991   8.094  -8.426  1.00  0.00     0.227 C 
HETATM   17  C   UNL     1      32.181   5.268  -4.807  1.00  0.00     0.227 C 
HETATM   18  C   UNL     1      33.800   2.567  -9.418  1.00  0.00     0.227 C 
HETATM   19  C   UNL     1      35.084   8.174  -7.200  1.00  0.00     0.250 C 
HETATM   20  C   UNL     1      32.271   7.223  -6.190  1.00  0.00     0.283 C 
HETATM   21  C   UNL     1      33.446   4.519  -5.235  1.00  0.00     0.250 C 
HETATM   22  C   UNL     1      34.815   3.500 -10.094  1.00  0.00     0.250 C 
HETATM   23  C   UNL     1      35.767   6.944 -10.511  1.00  0.00     0.283 C 
HETATM   24  C   UNL     1      34.878   2.314  -7.248  1.00  0.00     0.283 C 
HETATM   25  C   UNL     1      33.236   9.125  -8.666  1.00  0.00     0.153 C 
HETATM   26  C   UNL     1      32.126   2.355  -5.372  1.00  0.00     0.153 C 
HETATM   27  C   UNL     1      33.082   5.322  -9.943  1.00  0.00     0.153 C 
ENDROOT
BRANCH  17  28
HETATM   28  C   UNL     1      31.885   5.024  -3.334  1.00  0.00     0.016 C 
HETATM   29  C   UNL     1      32.028   6.318  -2.534  1.00  0.00     0.012 C 
HETATM   30  C   UNL     1      30.487   4.435  -3.155  1.00  0.00     0.012 C 
ENDBRANCH  17  28
BRANCH  13  31
HETATM   31  C   UNL     1      31.752   9.665  -6.221  1.00  0.00     0.014 C 
HETATM   32  C   UNL     1      30.447   9.032  -5.737  1.00  0.00     0.012 C 
BRANCH  31  33
HETATM   33  C   UNL     1      32.168  10.874  -5.364  1.00  0.00     0.002 C 
HETATM   34  C   UNL     1      33.006  11.899  -6.116  1.00  0.00     0.005 C 
ENDBRANCH  31  33
ENDBRANCH  13  31
BRANCH  14  35
HETATM   35  C   UNL     1      34.708   1.024  -5.115  1.00  0.00     0.010 C 
HETATM   36  C   UNL     1      35.207   0.000  -6.132  1.00  0.00     0.012 C 
HETATM   37  C   UNL     1      35.620   1.046  -3.888  1.00  0.00     0.012 C 
ENDBRANCH  14  35
BRANCH  16  38
HETATM   38  C   UNL     1      37.447   7.855  -8.036  1.00  0.00     0.016 C 
HETATM   39  C   UNL     1      38.369   8.822  -8.775  1.00  0.00     0.012 C 
HETATM   40  C   UNL     1      37.850   6.409  -8.319  1.00  0.00     0.012 C 
ENDBRANCH  16  38
BRANCH  18  41
HETATM   41  C   UNL     1      33.965   1.108  -9.842  1.00  0.00     0.016 C 
HETATM   42  C   UNL     1      33.766   0.961 -11.348  1.00  0.00     0.012 C 
HETATM   43  C   UNL     1      32.988   0.215  -9.081  1.00  0.00     0.012 C 
ENDBRANCH  18  41
BRANCH  15  44
HETATM   44  C   UNL     1      34.507   6.055 -12.492  1.00  0.00     0.010 C 
HETATM   45  C   UNL     1      35.481   6.054 -13.668  1.00  0.00     0.012 C 
HETATM   46  C   UNL     1      33.825   7.413 -12.358  1.00  0.00     0.012 C 
ENDBRANCH  15  44
TORSDOF 7
ENDMDL
MODEL 3
REMARK VINA RESULT:    -6.045      1.956      4.442
REMARK INTER + INTRA:          -7.597
REMARK INTER:                  -8.254
REMARK INTRA:                   0.657
REMARK UNBOUND:                 0.921
REMARK  7 active torsions:
REMARK  status: ('A' for Active; 'I' for Inactive)
REMARK    1  A    between atoms: C_13  and  C_14 
REMARK    2  A    between atoms: C_14  and  C_19 
REMARK    3  A    between atoms: C_15  and  C_20 
REMARK    4  A    between atoms: C_16  and  C_21 
REMARK    5  A    between atoms: C_17  and  C_23 
REMARK    6  A    between atoms: C_18  and  C_26 
REMARK    7  A    between atoms: C_22  and  C_28 
ROOT
HETATM    1  O   UNL     1      32.304   7.571  -6.240  1.00  0.00    -0.304 OA
HETATM    2  O   UNL     1      34.749   3.553  -8.512  1.00  0.00    -0.304 OA
HETATM    3  O   UNL     1      35.990   7.912  -9.855  1.00  0.00    -0.304 OA
HETATM    4  O   UNL     1      31.786   4.579  -7.906  1.00  0.00    -0.270 OA
HETATM    5  O   UNL     1      34.424   6.812  -5.741  1.00  0.00    -0.263 OA
HETATM    6  O   UNL     1      32.578   7.271  -8.800  1.00  0.00    -0.270 OA
HETATM    7  O   UNL     1      37.195   5.280 -11.314  1.00  0.00    -0.270 OA
HETATM    8  O   UNL     1      35.780   1.505  -8.674  1.00  0.00    -0.263 OA
HETATM    9  O   UNL     1      35.345   7.485 -12.023  1.00  0.00    -0.263 OA
HETATM   10  N   UNL     1      33.159   4.287  -6.058  1.00  0.00    -0.340 N 
HETATM   11  N   UNL     1      33.792   9.199  -9.202  1.00  0.00    -0.340 N 
HETATM   12  N   UNL     1      36.971   4.966  -9.020  1.00  0.00    -0.340 N 
HETATM   13  C   UNL     1      32.485   5.394  -5.350  1.00  0.00     0.190 C 
HETATM   14  C   UNL     1      33.918   8.843 -10.632  1.00  0.00     0.190 C 
HETATM   15  C   UNL     1      37.073   3.495  -9.130  1.00  0.00     0.190 C 
HETATM   16  C   UNL     1      33.503   2.930  -8.142  1.00  0.00     0.227 C 
HETATM   17  C   UNL     1      32.829   8.731  -6.921  1.00  0.00     0.227 C 
HETATM   18  C   UNL     1      37.272   7.267  -9.968  1.00  0.00     0.227 C 
HETATM   19  C   UNL     1      32.736   3.999  -7.368  1.00  0.00     0.250 C 
HETATM   20  C   UNL     1      33.210   6.660  -5.777  1.00  0.00     0.283 C 
HETATM   21  C   UNL     1      33.056   8.332  -8.382  1.00  0.00     0.250 C 
HETATM   22  C   UNL     1      37.134   5.751 -10.175  1.00  0.00     0.250 C 
HETATM   23  C   UNL     1      35.812   2.731  -8.736  1.00  0.00     0.283 C 
HETATM   24  C   UNL     1      35.151   7.990 -10.922  1.00  0.00     0.283 C 
HETATM   25  C   UNL     1      34.245   3.589  -5.363  1.00  0.00     0.153 C 
HETATM   26  C   UNL     1      34.474  10.408  -8.734  1.00  0.00     0.153 C 
HETATM   27  C   UNL     1      36.883   5.540  -7.677  1.00  0.00     0.153 C 
ENDROOT
BRANCH  17  28
HETATM   28  C   UNL     1      31.768   9.819  -6.820  1.00  0.00     0.016 C 
HETATM   29  C   UNL     1      30.413   9.218  -6.449  1.00  0.00     0.012 C 
HETATM   30  C   UNL     1      32.180  10.880  -5.801  1.00  0.00     0.012 C 
ENDBRANCH  17  28
BRANCH  13  31
HETATM   31  C   UNL     1      32.454   5.293  -3.828  1.00  0.00     0.014 C 
HETATM   32  C   UNL     1      32.305   6.688  -3.218  1.00  0.00     0.012 C 
BRANCH  31  33
HETATM   33  C   UNL     1      31.328   4.341  -3.388  1.00  0.00     0.002 C 
HETATM   34  C   UNL     1      30.881   4.545  -1.948  1.00  0.00     0.005 C 
ENDBRANCH  31  33
ENDBRANCH  13  31
BRANCH  14  35
HETATM   35  C   UNL     1      33.895  10.050 -11.570  1.00  0.00     0.010 C 
HETATM   36  C   UNL     1      35.298  10.360 -12.086  1.00  0.00     0.012 C 
HETATM   37  C   UNL     1      32.937   9.808 -12.737  1.00  0.00     0.012 C 
ENDBRANCH  14  35
BRANCH  16  38
HETATM   38  C   UNL     1      32.766   2.516  -9.413  1.00  0.00     0.016 C 
HETATM   39  C   UNL     1      32.789   0.997  -9.578  1.00  0.00     0.012 C 
HETATM   40  C   UNL     1      33.378   3.196 -10.637  1.00  0.00     0.012 C 
ENDBRANCH  16  38
BRANCH  18  41
HETATM   41  C   UNL     1      38.150   7.930 -11.028  1.00  0.00     0.016 C 
HETATM   42  C   UNL     1      39.476   7.186 -11.168  1.00  0.00     0.012 C 
HETATM   43  C   UNL     1      38.392   9.397 -10.682  1.00  0.00     0.012 C 
ENDBRANCH  18  41
BRANCH  15  44
HETATM   44  C   UNL     1      38.283   2.964  -8.361  1.00  0.00     0.010 C 
HETATM   45  C   UNL     1      39.046   1.946  -9.204  1.00  0.00     0.012 C 
HETATM   46  C   UNL     1      37.846   2.347  -7.036  1.00  0.00     0.012 C 
ENDBRANCH  15  44
TORSDOF 7
ENDMDL
MODEL 4
REMARK VINA RESULT:    -5.757      2.296      6.558
REMARK INTER + INTRA:          -7.192
REMARK INTER:                  -8.230
REMARK INTRA:                   1.038
REMARK UNBOUND:                 0.921
REMARK  7 active torsions:
REMARK  status: ('A' for Active; 'I' for Inactive)
REMARK    1  A    between atoms: C_13  and  C_14 
REMARK    2  A    between atoms: C_14  and  C_19 
REMARK    3  A    between atoms: C_15  and  C_20 
REMARK    4  A    between atoms: C_16  and  C_21 
REMARK    5  A    between atoms: C_17  and  C_23 
REMARK    6  A    between atoms: C_18  and  C_26 
REMARK    7  A    between atoms: C_22  and  C_28 
ROOT
HETATM    1  O   UNL     1      37.027   5.742  -9.781  1.00  0.00    -0.304 OA
HETATM    2  O   UNL     1      32.547   6.393  -7.173  1.00  0.00    -0.304 OA
HETATM    3  O   UNL     1      35.691   9.920  -7.036  1.00  0.00    -0.304 OA
HETATM    4  O   UNL     1      34.926   4.278  -7.449  1.00  0.00    -0.270 OA
HETATM    5  O   UNL     1      35.221   6.997 -10.474  1.00  0.00    -0.263 OA
HETATM    6  O   UNL     1      36.860   6.495  -7.307  1.00  0.00    -0.270 OA
HETATM    7  O   UNL     1      32.964  10.008  -5.285  1.00  0.00    -0.270 OA
HETATM    8  O   UNL     1      30.289   6.283  -6.763  1.00  0.00    -0.263 OA
HETATM    9  O   UNL     1      35.867   9.745  -4.747  1.00  0.00    -0.263 OA
HETATM   10  N   UNL     1      33.786   4.788  -9.406  1.00  0.00    -0.340 N 
HETATM   11  N   UNL     1      37.881   8.557  -7.548  1.00  0.00    -0.340 N 
HETATM   12  N   UNL     1      32.611   9.065  -7.382  1.00  0.00    -0.340 N 
HETATM   13  C   UNL     1      35.014   4.588 -10.203  1.00  0.00     0.190 C 
HETATM   14  C   UNL     1      37.643   8.863  -6.121  1.00  0.00     0.190 C 
HETATM   15  C   UNL     1      31.326   8.455  -6.980  1.00  0.00     0.190 C 
HETATM   16  C   UNL     1      32.648   4.955  -7.175  1.00  0.00     0.227 C 
HETATM   17  C   UNL     1      37.790   6.928  -9.468  1.00  0.00     0.227 C 
HETATM   18  C   UNL     1      34.479  10.696  -7.017  1.00  0.00     0.227 C 
HETATM   19  C   UNL     1      33.885   4.640  -8.010  1.00  0.00     0.250 C 
HETATM   20  C   UNL     1      35.737   5.924 -10.192  1.00  0.00     0.283 C 
HETATM   21  C   UNL     1      37.465   7.304  -8.020  1.00  0.00     0.250 C 
HETATM   22  C   UNL     1      33.291   9.890  -6.470  1.00  0.00     0.250 C 
HETATM   23  C   UNL     1      31.312   6.929  -6.971  1.00  0.00     0.283 C 
HETATM   24  C   UNL     1      36.297   9.542  -5.878  1.00  0.00     0.283 C 
HETATM   25  C   UNL     1      32.561   5.164 -10.117  1.00  0.00     0.153 C 
HETATM   26  C   UNL     1      38.498   9.595  -8.378  1.00  0.00     0.153 C 
HETATM   27  C   UNL     1      33.021   8.921  -8.780  1.00  0.00     0.153 C 
ENDROOT
BRANCH  17  28
HETATM   28  C   UNL     1      39.259   6.556  -9.610  1.00  0.00     0.016 C 
HETATM   29  C   UNL     1      39.443   5.042  -9.520  1.00  0.00     0.012 C 
HETATM   30  C   UNL     1      39.826   7.087 -10.926  1.00  0.00     0.012 C 
ENDBRANCH  17  28
BRANCH  13  31
HETATM   31  C   UNL     1      34.808   4.112 -11.637  1.00  0.00     0.014 C 
HETATM   32  C   UNL     1      36.011   4.511 -12.494  1.00  0.00     0.012 C 
BRANCH  31  33
HETATM   33  C   UNL     1      34.555   2.594 -11.656  1.00  0.00     0.002 C 
HETATM   34  C   UNL     1      33.192   2.207 -12.213  1.00  0.00     0.005 C 
ENDBRANCH  31  33
ENDBRANCH  13  31
BRANCH  14  35
HETATM   35  C   UNL     1      38.758   9.684  -5.474  1.00  0.00     0.010 C 
HETATM   36  C   UNL     1      38.287  11.109  -5.194  1.00  0.00     0.012 C 
HETATM   37  C   UNL     1      39.241   9.017  -4.185  1.00  0.00     0.012 C 
ENDBRANCH  14  35
BRANCH  16  38
HETATM   38  C   UNL     1      32.802   4.473  -5.734  1.00  0.00     0.016 C 
HETATM   39  C   UNL     1      31.561   3.703  -5.287  1.00  0.00     0.012 C 
HETATM   40  C   UNL     1      33.067   5.651  -4.798  1.00  0.00     0.012 C 
ENDBRANCH  16  38
BRANCH  18  41
HETATM   41  C   UNL     1      34.670  12.030  -6.297  1.00  0.00     0.016 C 
HETATM   42  C   UNL     1      33.387  12.857  -6.350  1.00  0.00     0.012 C 
HETATM   43  C   UNL     1      35.835  12.807  -6.906  1.00  0.00     0.012 C 
ENDBRANCH  18  41
BRANCH  15  44
HETATM   44  C   UNL     1      30.168   8.996  -7.820  1.00  0.00     0.010 C 
HETATM   45  C   UNL     1      30.667  10.056  -8.798  1.00  0.00     0.012 C 
HETATM   46  C   UNL     1      29.076   9.565  -6.919  1.00  0.00     0.012 C 
ENDBRANCH  15  44
TORSDOF 7
ENDMDL
MODEL 5
REMARK VINA RESULT:    -5.483      2.663      7.161
REMARK INTER + INTRA:          -6.805
REMARK INTER:                  -8.022
REMARK INTRA:                   1.217
REMARK UNBOUND:                 0.921
REMARK  7 active torsions:
REMARK  status: ('A' for Active; 'I' for Inactive)
REMARK    1  A    between atoms: C_13  and  C_14 
REMARK    2  A    between atoms: C_14  and  C_19 
REMARK    3  A    between atoms: C_15  and  C_20 
REMARK    4  A    between atoms: C_16  and  C_21 
REMARK    5  A    between atoms: C_17  and  C_23 
REMARK    6  A    between atoms: C_18  and  C_26 
REMARK    7  A    between atoms: C_22  and  C_28 
ROOT
HETATM    1  O   UNL     1      33.903   6.263  -6.095  1.00  0.00    -0.304 OA
HETATM    2  O   UNL     1      35.585  11.158  -6.804  1.00  0.00    -0.304 OA
HETATM    3  O   UNL     1      35.204   8.400 -10.624  1.00  0.00    -0.304 OA
HETATM    4  O   UNL     1      36.226   8.593  -5.011  1.00  0.00    -0.270 OA
HETATM    5  O   UNL     1      32.651   8.028  -6.892  1.00  0.00    -0.263 OA
HETATM    6  O   UNL     1      36.033   6.910  -7.421  1.00  0.00    -0.270 OA
HETATM    7  O   UNL     1      36.467  11.380 -10.802  1.00  0.00    -0.270 OA
HETATM    8  O   UNL     1      35.690  13.434  -6.513  1.00  0.00    -0.263 OA
HETATM    9  O   UNL     1      37.456   8.598 -11.057  1.00  0.00    -0.263 OA
HETATM   10  N   UNL     1      34.065   9.425  -4.860  1.00  0.00    -0.340 N 
HETATM   11  N   UNL     1      35.390   6.046  -9.468  1.00  0.00    -0.340 N 
HETATM   12  N   UNL     1      34.675  11.292  -9.322  1.00  0.00    -0.340 N 
HETATM   13  C   UNL     1      33.531   8.068  -4.623  1.00  0.00     0.190 C 
HETATM   14  C   UNL     1      36.634   6.546 -10.092  1.00  0.00     0.190 C 
HETATM   15  C   UNL     1      35.042  12.568  -8.674  1.00  0.00     0.190 C 
HETATM   16  C   UNL     1      35.986  10.934  -5.438  1.00  0.00     0.227 C 
HETATM   17  C   UNL     1      33.988   5.669  -7.409  1.00  0.00     0.227 C 
HETATM   18  C   UNL     1      34.843   9.660 -11.218  1.00  0.00     0.227 C 
HETATM   19  C   UNL     1      35.448   9.551  -5.083  1.00  0.00     0.250 C 
HETATM   20  C   UNL     1      33.282   7.475  -6.000  1.00  0.00     0.283 C 
HETATM   21  C   UNL     1      35.221   6.266  -8.094  1.00  0.00     0.250 C 
HETATM   22  C   UNL     1      35.416  10.849 -10.431  1.00  0.00     0.250 C 
HETATM   23  C   UNL     1      35.461  12.451  -7.211  1.00  0.00     0.283 C 
HETATM   24  C   UNL     1      36.494   7.968 -10.632  1.00  0.00     0.283 C 
HETATM   25  C   UNL     1      33.114  10.541  -4.883  1.00  0.00     0.153 C 
HETATM   26  C   UNL     1      34.407   5.389 -10.333  1.00  0.00     0.153 C 
HETATM   27  C   UNL     1      33.439  10.641  -8.884  1.00  0.00     0.153 C 
ENDROOT
BRANCH  17  28
HETATM   28  C   UNL     1      34.159   4.171  -7.205  1.00  0.00     0.016 C 
HETATM   29  C   UNL     1      34.463   3.857  -5.740  1.00  0.00     0.012 C 
HETATM   30  C   UNL     1      32.912   3.417  -7.666  1.00  0.00     0.012 C 
ENDBRANCH  17  28
BRANCH  13  31
HETATM   31  C   UNL     1      32.264   7.987  -3.778  1.00  0.00     0.014 C 
HETATM   32  C   UNL     1      31.554   6.656  -4.034  1.00  0.00     0.012 C 
BRANCH  31  33
HETATM   33  C   UNL     1      32.610   8.188  -2.292  1.00  0.00     0.002 C 
HETATM   34  C   UNL     1      32.241   7.003  -1.412  1.00  0.00     0.005 C 
ENDBRANCH  31  33
ENDBRANCH  13  31
BRANCH  14  35
HETATM   35  C   UNL     1      37.185   5.632 -11.186  1.00  0.00     0.010 C 
HETATM   36  C   UNL     1      37.361   4.208 -10.661  1.00  0.00     0.012 C 
HETATM   37  C   UNL     1      36.270   5.641 -12.410  1.00  0.00     0.012 C 
ENDBRANCH  14  35
BRANCH  16  38
HETATM   38  C   UNL     1      37.510  10.984  -5.360  1.00  0.00     0.016 C 
HETATM   39  C   UNL     1      37.968  12.179  -4.527  1.00  0.00     0.012 C 
HETATM   40  C   UNL     1      38.119  11.042  -6.760  1.00  0.00     0.012 C 
ENDBRANCH  16  38
BRANCH  18  41
HETATM   41  C   UNL     1      35.196   9.711 -12.704  1.00  0.00     0.016 C 
HETATM   42  C   UNL     1      34.844  11.074 -13.293  1.00  0.00     0.012 C 
HETATM   43  C   UNL     1      34.480   8.596 -13.463  1.00  0.00     0.012 C 
ENDBRANCH  18  41
BRANCH  15  44
HETATM   44  C   UNL     1      33.934  13.610  -8.833  1.00  0.00     0.010 C 
HETATM   45  C   UNL     1      34.530  14.982  -9.135  1.00  0.00     0.012 C 
HETATM   46  C   UNL     1      33.068  13.663  -7.578  1.00  0.00     0.012 C 
ENDBRANCH  15  44
TORSDOF 7
ENDMDL
MODEL 6
REMARK VINA RESULT:    -5.452      2.008      6.596
REMARK INTER + INTRA:          -6.761
REMARK INTER:                  -7.916
REMARK INTRA:                   1.155
REMARK UNBOUND:                 0.921
REMARK  7 active torsions:
REMARK  status: ('A' for Active; 'I' for Inactive)
REMARK    1  A    between atoms: C_13  and  C_14 
REMARK    2  A    between atoms: C_14  and  C_19 
REMARK    3  A    between atoms: C_15  and  C_20 
REMARK    4  A    between atoms: C_16  and  C_21 
REMARK    5  A    between atoms: C_17  and  C_23 
REMARK    6  A    between atoms: C_18  and  C_26 
REMARK    7  A    between atoms: C_22  and  C_28 
ROOT
HETATM    1  O   UNL     1      33.420   8.276  -9.848  1.00  0.00    -0.304 OA
HETATM    2  O   UNL     1      36.014   3.824  -8.984  1.00  0.00    -0.304 OA
HETATM    3  O   UNL     1      32.342   4.797  -6.172  1.00  0.00    -0.304 OA
HETATM    4  O   UNL     1      36.578   6.949  -9.336  1.00  0.00    -0.270 OA
HETATM    5  O   UNL     1      32.743   6.164 -10.480  1.00  0.00    -0.263 OA
HETATM    6  O   UNL     1      34.316   7.518  -7.537  1.00  0.00    -0.270 OA
HETATM    7  O   UNL     1      34.242   2.223  -5.651  1.00  0.00    -0.270 OA
HETATM    8  O   UNL     1      37.137   1.885  -9.489  1.00  0.00    -0.263 OA
HETATM    9  O   UNL     1      33.701   4.812  -4.314  1.00  0.00    -0.263 OA
HETATM   10  N   UNL     1      35.503   5.904 -11.107  1.00  0.00    -0.340 N 
HETATM   11  N   UNL     1      32.280   7.412  -6.443  1.00  0.00    -0.340 N 
HETATM   12  N   UNL     1      33.887   2.586  -7.921  1.00  0.00    -0.340 N 
HETATM   13  C   UNL     1      34.762   7.142 -11.422  1.00  0.00     0.190 C 
HETATM   14  C   UNL     1      32.944   6.916  -5.217  1.00  0.00     0.190 C 
HETATM   15  C   UNL     1      35.028   1.735  -8.319  1.00  0.00     0.190 C 
HETATM   16  C   UNL     1      37.047   4.618  -9.602  1.00  0.00     0.227 C 
HETATM   17  C   UNL     1      32.441   8.322  -8.787  1.00  0.00     0.227 C 
HETATM   18  C   UNL     1      32.210   3.365  -6.229  1.00  0.00     0.227 C 
HETATM   19  C   UNL     1      36.365   5.926  -9.996  1.00  0.00     0.250 C 
HETATM   20  C   UNL     1      33.515   7.110 -10.554  1.00  0.00     0.283 C 
HETATM   21  C   UNL     1      33.095   7.714  -7.543  1.00  0.00     0.250 C 
HETATM   22  C   UNL     1      33.544   2.679  -6.562  1.00  0.00     0.250 C 
HETATM   23  C   UNL     1      36.173   2.472  -9.008  1.00  0.00     0.283 C 
HETATM   24  C   UNL     1      33.059   5.394  -5.182  1.00  0.00     0.283 C 
HETATM   25  C   UNL     1      35.262   4.728 -11.950  1.00  0.00     0.153 C 
HETATM   26  C   UNL     1      30.820   7.517  -6.436  1.00  0.00     0.153 C 
HETATM   27  C   UNL     1      33.058   3.148  -8.989  1.00  0.00     0.153 C 
ENDROOT
BRANCH  17  28
HETATM   28  C   UNL     1      32.110   9.790  -8.557  1.00  0.00     0.016 C 
HETATM   29  C   UNL     1      33.187  10.687  -9.166  1.00  0.00     0.012 C 
HETATM   30  C   UNL     1      30.738  10.132  -9.136  1.00  0.00     0.012 C 
ENDBRANCH  17  28
BRANCH  13  31
HETATM   31  C   UNL     1      34.379   7.338 -12.885  1.00  0.00     0.014 C 
HETATM   32  C   UNL     1      33.344   8.457 -13.006  1.00  0.00     0.012 C 
BRANCH  31  33
HETATM   33  C   UNL     1      35.639   7.616 -13.724  1.00  0.00     0.002 C 
HETATM   34  C   UNL     1      35.722   6.786 -14.998  1.00  0.00     0.005 C 
ENDBRANCH  31  33
ENDBRANCH  13  31
BRANCH  14  35
HETATM   35  C   UNL     1      32.299   7.414  -3.924  1.00  0.00     0.010 C 
HETATM   36  C   UNL     1      32.268   6.306  -2.874  1.00  0.00     0.012 C 
HETATM   37  C   UNL     1      33.041   8.638  -3.387  1.00  0.00     0.012 C 
ENDBRANCH  14  35
BRANCH  16  38
HETATM   38  C   UNL     1      38.162   4.848  -8.585  1.00  0.00     0.016 C 
HETATM   39  C   UNL     1      39.490   4.306  -9.111  1.00  0.00     0.012 C 
HETATM   40  C   UNL     1      37.812   4.201  -7.246  1.00  0.00     0.012 C 
ENDBRANCH  16  38
BRANCH  18  41
HETATM   41  C   UNL     1      31.557   2.803  -4.967  1.00  0.00     0.016 C 
HETATM   42  C   UNL     1      31.211   1.328  -5.153  1.00  0.00     0.012 C 
HETATM   43  C   UNL     1      30.309   3.606  -4.607  1.00  0.00     0.012 C 
ENDBRANCH  18  41
BRANCH  15  44
HETATM   44  C   UNL     1      34.567   0.549  -9.167  1.00  0.00     0.010 C 
HETATM   45  C   UNL     1      34.440   0.957 -10.632  1.00  0.00     0.012 C 
HETATM   46  C   UNL     1      33.243   0.000  -8.643  1.00  0.00     0.012 C 
ENDBRANCH  15  44
TORSDOF 7
ENDMDL
MODEL 7
REMARK VINA RESULT:    -5.344     19.850     23.573
REMARK INTER + INTRA:          -6.610
REMARK INTER:                  -7.276
REMARK INTRA:                   0.666
REMARK UNBOUND:                 0.921
REMARK  7 active torsions:
REMARK  status: ('A' for Active; 'I' for Inactive)
REMARK    1  A    between atoms: C_13  and  C_14 
REMARK    2  A    between atoms: C_14  and  C_19 
REMARK    3  A    between atoms: C_15  and  C_20 
REMARK    4  A    between atoms: C_16  and  C_21 
REMARK    5  A    between atoms: C_17  and  C_23 
REMARK    6  A    between atoms: C_18  and  C_26 
REMARK    7  A    between atoms: C_22  and  C_28 
ROOT
HETATM    1  O   UNL     1      31.864  25.770  -0.404  1.00  0.00    -0.304 OA
HETATM    2  O   UNL     1      26.706  26.595  -0.426  1.00  0.00    -0.304 OA
HETATM    3  O   UNL     1      28.682  25.207   3.637  1.00  0.00    -0.304 OA
HETATM    4  O   UNL     1      28.926  24.984  -2.062  1.00  0.00    -0.270 OA
HETATM    5  O   UNL     1      30.782  27.629   0.426  1.00  0.00    -0.263 OA
HETATM    6  O   UNL     1      30.101  24.094   0.489  1.00  0.00    -0.270 OA
HETATM    7  O   UNL     1      25.470  25.528   3.335  1.00  0.00    -0.270 OA
HETATM    8  O   UNL     1      24.720  27.633  -0.935  1.00  0.00    -0.263 OA
HETATM    9  O   UNL     1      27.394  23.299   3.673  1.00  0.00    -0.263 OA
HETATM   10  N   UNL     1      29.229  27.281  -1.929  1.00  0.00    -0.340 N 
HETATM   11  N   UNL     1      30.829  24.027   2.683  1.00  0.00    -0.340 N 
HETATM   12  N   UNL     1      26.614  27.196   2.185  1.00  0.00    -0.340 N 
HETATM   13  C   UNL     1      30.697  27.115  -1.951  1.00  0.00     0.190 C 
HETATM   14  C   UNL     1      29.717  23.123   3.045  1.00  0.00     0.190 C 
HETATM   15  C   UNL     1      25.434  27.558   1.373  1.00  0.00     0.190 C 
HETATM   16  C   UNL     1      26.930  26.278  -1.814  1.00  0.00     0.227 C 
HETATM   17  C   UNL     1      32.134  25.276   0.926  1.00  0.00     0.227 C 
HETATM   18  C   UNL     1      27.657  26.069   4.166  1.00  0.00     0.227 C 
HETATM   19  C   UNL     1      28.442  26.115  -1.949  1.00  0.00     0.250 C 
HETATM   20  C   UNL     1      31.111  26.905  -0.504  1.00  0.00     0.283 C 
HETATM   21  C   UNL     1      30.934  24.421   1.341  1.00  0.00     0.250 C 
HETATM   22  C   UNL     1      26.480  26.225   3.192  1.00  0.00     0.250 C 
HETATM   23  C   UNL     1      25.572  27.287  -0.123  1.00  0.00     0.283 C 
HETATM   24  C   UNL     1      28.458  23.876   3.471  1.00  0.00     0.283 C 
HETATM   25  C   UNL     1      28.694  28.644  -1.849  1.00  0.00     0.153 C 
HETATM   26  C   UNL     1      31.722  24.478   3.754  1.00  0.00     0.153 C 
HETATM   27  C   UNL     1      27.825  28.001   2.017  1.00  0.00     0.153 C 
ENDROOT
BRANCH  17  28
HETATM   28  C   UNL     1      33.393  24.425   0.832  1.00  0.00     0.016 C 
HETATM   29  C   UNL     1      33.703  24.079  -0.623  1.00  0.00     0.012 C 
HETATM   30  C   UNL     1      34.578  25.142   1.477  1.00  0.00     0.012 C 
ENDBRANCH  17  28
BRANCH  13  31
HETATM   31  C   UNL     1      31.490  28.264  -2.564  1.00  0.00     0.014 C 
HETATM   32  C   UNL     1      32.930  28.234  -2.050  1.00  0.00     0.012 C 
BRANCH  31  33
HETATM   33  C   UNL     1      31.416  28.192  -4.099  1.00  0.00     0.002 C 
HETATM   34  C   UNL     1      31.919  26.875  -4.675  1.00  0.00     0.005 C 
ENDBRANCH  31  33
ENDBRANCH  13  31
BRANCH  14  35
HETATM   35  C   UNL     1      30.084  22.091   4.111  1.00  0.00     0.010 C 
HETATM   36  C   UNL     1      29.394  22.412   5.435  1.00  0.00     0.012 C 
HETATM   37  C   UNL     1      29.720  20.681   3.645  1.00  0.00     0.012 C 
ENDBRANCH  14  35
BRANCH  16  38
HETATM   38  C   UNL     1      26.191  24.985  -2.147  1.00  0.00     0.016 C 
HETATM   39  C   UNL     1      25.177  25.215  -3.266  1.00  0.00     0.012 C 
HETATM   40  C   UNL     1      25.499  24.425  -0.905  1.00  0.00     0.012 C 
ENDBRANCH  16  38
BRANCH  18  41
HETATM   41  C   UNL     1      27.215  25.634   5.563  1.00  0.00     0.016 C 
HETATM   42  C   UNL     1      26.102  26.543   6.080  1.00  0.00     0.012 C 
HETATM   43  C   UNL     1      28.400  25.635   6.525  1.00  0.00     0.012 C 
ENDBRANCH  18  41
BRANCH  15  44
HETATM   44  C   UNL     1      25.015  29.009   1.618  1.00  0.00     0.010 C 
HETATM   45  C   UNL     1      23.496  29.118   1.715  1.00  0.00     0.012 C 
HETATM   46  C   UNL     1      25.551  29.912   0.511  1.00  0.00     0.012 C 
ENDBRANCH  15  44
TORSDOF 7
ENDMDL
MODEL 8
REMARK VINA RESULT:    -5.295      2.536      7.835
REMARK INTER + INTRA:          -6.540
REMARK INTER:                  -7.817
REMARK INTRA:                   1.277
REMARK UNBOUND:                 0.921
REMARK  7 active torsions:
REMARK  status: ('A' for Active; 'I' for Inactive)
REMARK    1  A    between atoms: C_13  and  C_14 
REMARK    2  A    between atoms: C_14  and  C_19 
REMARK    3  A    between atoms: C_15  and  C_20 
REMARK    4  A    between atoms: C_16  and  C_21 
REMARK    5  A    between atoms: C_17  and  C_23 
REMARK    6  A    between atoms: C_18  and  C_26 
REMARK    7  A    between atoms: C_22  and  C_28 
ROOT
HETATM    1  O   UNL     1      36.847  10.211  -8.286  1.00  0.00    -0.304 OA
HETATM    2  O   UNL     1      32.418   7.581  -7.414  1.00  0.00    -0.304 OA
HETATM    3  O   UNL     1      35.078   6.232 -11.081  1.00  0.00    -0.304 OA
HETATM    4  O   UNL     1      33.442  10.585  -7.771  1.00  0.00    -0.270 OA
HETATM    5  O   UNL     1      36.671   8.141  -7.286  1.00  0.00    -0.263 OA
HETATM    6  O   UNL     1      35.047   9.721 -10.085  1.00  0.00    -0.270 OA
HETATM    7  O   UNL     1      32.174   4.908 -10.514  1.00  0.00    -0.270 OA
HETATM    8  O   UNL     1      30.765   6.540  -6.205  1.00  0.00    -0.263 OA
HETATM    9  O   UNL     1      33.372   6.691 -12.556  1.00  0.00    -0.263 OA
HETATM   10  N   UNL     1      34.425   9.373  -6.053  1.00  0.00    -0.340 N 
HETATM   11  N   UNL     1      36.376   8.477 -11.513  1.00  0.00    -0.340 N 
HETATM   12  N   UNL     1      33.331   5.325  -8.539  1.00  0.00    -0.340 N 
HETATM   13  C   UNL     1      35.697  10.105  -6.229  1.00  0.00     0.190 C 
HETATM   14  C   UNL     1      35.222   8.231 -12.403  1.00  0.00     0.190 C 
HETATM   15  C   UNL     1      32.114   5.214  -7.708  1.00  0.00     0.190 C 
HETATM   16  C   UNL     1      32.093   8.854  -6.822  1.00  0.00     0.227 C 
HETATM   17  C   UNL     1      37.366   9.631  -9.502  1.00  0.00     0.227 C 
HETATM   18  C   UNL     1      34.569   4.946 -10.685  1.00  0.00     0.227 C 
HETATM   19  C   UNL     1      33.369   9.684  -6.928  1.00  0.00     0.250 C 
HETATM   20  C   UNL     1      36.465   9.347  -7.299  1.00  0.00     0.283 C 
HETATM   21  C   UNL     1      36.163   9.281 -10.383  1.00  0.00     0.250 C 
HETATM   22  C   UNL     1      33.244   5.064  -9.917  1.00  0.00     0.250 C 
HETATM   23  C   UNL     1      31.690   6.503  -7.010  1.00  0.00     0.283 C 
HETATM   24  C   UNL     1      34.437   6.978 -12.020  1.00  0.00     0.283 C 
HETATM   25  C   UNL     1      34.363   8.350  -5.005  1.00  0.00     0.153 C 
HETATM   26  C   UNL     1      37.650   7.838 -11.850  1.00  0.00     0.153 C 
HETATM   27  C   UNL     1      34.606   5.526  -7.849  1.00  0.00     0.153 C 
ENDROOT
BRANCH  17  28
HETATM   28  C   UNL     1      38.226  10.696 -10.167  1.00  0.00     0.016 C 
HETATM   29  C   UNL     1      37.886  12.082  -9.620  1.00  0.00     0.012 C 
HETATM   30  C   UNL     1      39.711  10.392  -9.968  1.00  0.00     0.012 C 
ENDBRANCH  17  28
BRANCH  13  31
HETATM   31  C   UNL     1      36.554  10.265  -4.979  1.00  0.00     0.014 C 
HETATM   32  C   UNL     1      37.768   9.338  -5.060  1.00  0.00     0.012 C 
BRANCH  31  33
HETATM   33  C   UNL     1      36.957  11.740  -4.803  1.00  0.00     0.002 C 
HETATM   34  C   UNL     1      38.257  11.932  -4.036  1.00  0.00     0.005 C 
ENDBRANCH  31  33
ENDBRANCH  13  31
BRANCH  14  35
HETATM   35  C   UNL     1      35.589   8.175 -13.886  1.00  0.00     0.010 C 
HETATM   36  C   UNL     1      35.568   6.735 -14.394  1.00  0.00     0.012 C 
HETATM   37  C   UNL     1      34.642   9.047 -14.710  1.00  0.00     0.012 C 
ENDBRANCH  14  35
BRANCH  16  38
HETATM   38  C   UNL     1      30.944   9.480  -7.608  1.00  0.00     0.016 C 
HETATM   39  C   UNL     1      29.650   9.438  -6.798  1.00  0.00     0.012 C 
HETATM   40  C   UNL     1      30.760   8.772  -8.949  1.00  0.00     0.012 C 
ENDBRANCH  16  38
BRANCH  18  41
HETATM   41  C   UNL     1      34.482   3.980 -11.867  1.00  0.00     0.016 C 
HETATM   42  C   UNL     1      33.881   2.647 -11.428  1.00  0.00     0.012 C 
HETATM   43  C   UNL     1      35.861   3.769 -12.489  1.00  0.00     0.012 C 
ENDBRANCH  18  41
BRANCH  15  44
HETATM   44  C   UNL     1      32.235   4.072  -6.697  1.00  0.00     0.010 C 
HETATM   45  C   UNL     1      33.117   4.488  -5.524  1.00  0.00     0.012 C 
HETATM   46  C   UNL     1      32.787   2.819  -7.370  1.00  0.00     0.012 C 
ENDBRANCH  15  44
TORSDOF 7
ENDMDL
MODEL 9
REMARK VINA RESULT:    -5.270      3.550      5.610
REMARK INTER + INTRA:          -6.505
REMARK INTER:                  -7.146
REMARK INTRA:                   0.641
REMARK UNBOUND:                 0.921
REMARK  7 active torsions:
REMARK  status: ('A' for Active; 'I' for Inactive)
REMARK    1  A    between atoms: C_13  and  C_14 
REMARK    2  A    between atoms: C_14  and  C_19 
REMARK    3  A    between atoms: C_15  and  C_20 
REMARK    4  A    between atoms: C_16  and  C_21 
REMARK    5  A    between atoms: C_17  and  C_23 
REMARK    6  A    between atoms: C_18  and  C_26 
REMARK    7  A    between atoms: C_22  and  C_28 
ROOT
HETATM    1  O   UNL     1      32.234   8.482  -8.422  1.00  0.00    -0.304 OA
HETATM    2  O   UNL     1      35.806   9.324 -12.141  1.00  0.00    -0.304 OA
HETATM    3  O   UNL     1      35.865  12.168  -8.366  1.00  0.00    -0.304 OA
HETATM    4  O   UNL     1      32.647   8.966 -11.827  1.00  0.00    -0.270 OA
HETATM    5  O   UNL     1      34.453   7.857  -8.342  1.00  0.00    -0.263 OA
HETATM    6  O   UNL     1      32.712  10.785  -9.511  1.00  0.00    -0.270 OA
HETATM    7  O   UNL     1      37.821  12.673 -10.901  1.00  0.00    -0.270 OA
HETATM    8  O   UNL     1      37.367   8.810 -13.746  1.00  0.00    -0.263 OA
HETATM    9  O   UNL     1      35.474  14.014  -9.685  1.00  0.00    -0.263 OA
HETATM   10  N   UNL     1      33.951   7.205 -11.063  1.00  0.00    -0.340 N 
HETATM   11  N   UNL     1      33.367  11.897  -7.591  1.00  0.00    -0.340 N 
HETATM   12  N   UNL     1      37.575  10.406 -10.441  1.00  0.00    -0.340 N 
HETATM   13  C   UNL     1      32.963   6.896 -10.009  1.00  0.00     0.190 C 
HETATM   14  C   UNL     1      33.659  13.117  -8.375  1.00  0.00     0.190 C 
HETATM   15  C   UNL     1      38.083   9.999 -11.768  1.00  0.00     0.190 C 
HETATM   16  C   UNL     1      34.762   8.697 -12.912  1.00  0.00     0.227 C 
HETATM   17  C   UNL     1      32.453   9.551  -7.477  1.00  0.00     0.227 C 
HETATM   18  C   UNL     1      37.278  12.113  -8.630  1.00  0.00     0.227 C 
HETATM   19  C   UNL     1      33.691   8.308 -11.896  1.00  0.00     0.250 C 
HETATM   20  C   UNL     1      33.331   7.775  -8.826  1.00  0.00     0.283 C 
HETATM   21  C   UNL     1      32.856  10.789  -8.283  1.00  0.00     0.250 C 
HETATM   22  C   UNL     1      37.575  11.768 -10.097  1.00  0.00     0.250 C 
HETATM   23  C   UNL     1      37.063   9.299 -12.662  1.00  0.00     0.283 C 
HETATM   24  C   UNL     1      35.092  13.152  -8.901  1.00  0.00     0.283 C 
HETATM   25  C   UNL     1      35.150   6.365 -11.145  1.00  0.00     0.153 C 
HETATM   26  C   UNL     1      33.664  11.917  -6.157  1.00  0.00     0.153 C 
HETATM   27  C   UNL     1      37.263   9.346  -9.481  1.00  0.00     0.153 C 
ENDROOT
BRANCH  17  28
HETATM   28  C   UNL     1      31.131   9.784  -6.760  1.00  0.00     0.016 C 
HETATM   29  C   UNL     1      29.959   9.344  -7.636  1.00  0.00     0.012 C 
HETATM   30  C   UNL     1      31.106   9.047  -5.422  1.00  0.00     0.012 C 
ENDBRANCH  17  28
BRANCH  13  31
HETATM   31  C   UNL     1      32.882   5.436  -9.576  1.00  0.00     0.014 C 
HETATM   32  C   UNL     1      32.025   5.315  -8.315  1.00  0.00     0.012 C 
BRANCH  31  33
HETATM   33  C   UNL     1      32.346   4.574 -10.732  1.00  0.00     0.002 C 
HETATM   34  C   UNL     1      32.852   3.138 -10.711  1.00  0.00     0.005 C 
ENDBRANCH  31  33
ENDBRANCH  13  31
BRANCH  14  35
HETATM   35  C   UNL     1      33.352  14.415  -7.630  1.00  0.00     0.010 C 
HETATM   36  C   UNL     1      34.640  15.167  -7.302  1.00  0.00     0.012 C 
HETATM   37  C   UNL     1      32.411  15.299  -8.449  1.00  0.00     0.012 C 
ENDBRANCH  14  35
BRANCH  16  38
HETATM   38  C   UNL     1      34.234   9.703 -13.931  1.00  0.00     0.016 C 
HETATM   39  C   UNL     1      34.567   9.256 -15.353  1.00  0.00     0.012 C 
HETATM   40  C   UNL     1      34.804  11.094 -13.660  1.00  0.00     0.012 C 
ENDBRANCH  16  38
BRANCH  18  41
HETATM   41  C   UNL     1      37.994  13.381  -8.165  1.00  0.00     0.016 C 
HETATM   42  C   UNL     1      39.489  13.292  -8.459  1.00  0.00     0.012 C 
HETATM   43  C   UNL     1      37.753  13.617  -6.676  1.00  0.00     0.012 C 
ENDBRANCH  18  41
BRANCH  15  44
HETATM   44  C   UNL     1      39.353   9.155 -11.641  1.00  0.00     0.010 C 
HETATM   45  C   UNL     1      40.412   9.630 -12.631  1.00  0.00     0.012 C 
HETATM   46  C   UNL     1      39.036   7.678 -11.858  1.00  0.00     0.012 C 
ENDBRANCH  15  44
TORSDOF 7
ENDMDL
MODEL 10
REMARK VINA RESULT:    -5.239      1.972      6.386
REMARK INTER + INTRA:          -6.461
REMARK INTER:                  -7.475
REMARK INTRA:                   1.014
REMARK UNBOUND:                 0.921
REMARK  7 active torsions:
REMARK  status: ('A' for Active; 'I' for Inactive)
REMARK    1  A    between atoms: C_13  and  C_14 
REMARK    2  A    between atoms: C_14  and  C_19 
REMARK    3  A    between atoms: C_15  and  C_20 
REMARK    4  A    between atoms: C_16  and  C_21 
REMARK    5  A    between atoms: C_17  and  C_23 
REMARK    6  A    between atoms: C_18  and  C_26 
REMARK    7  A    between atoms: C_22  and  C_28 
ROOT
HETATM    1  O   UNL     1      37.944   4.004  -8.324  1.00  0.00    -0.304 OA
HETATM    2  O   UNL     1      34.507   7.764  -9.482  1.00  0.00    -0.304 OA
HETATM    3  O   UNL     1      33.698   5.177  -5.609  1.00  0.00    -0.304 OA
HETATM    4  O   UNL     1      35.945   5.264 -10.856  1.00  0.00    -0.270 OA
HETATM    5  O   UNL     1      37.805   6.074  -7.318  1.00  0.00    -0.263 OA
HETATM    6  O   UNL     1      35.378   3.666  -8.448  1.00  0.00    -0.270 OA
HETATM    7  O   UNL     1      31.565   7.386  -6.651  1.00  0.00    -0.270 OA
HETATM    8  O   UNL     1      33.760   9.820 -10.183  1.00  0.00    -0.263 OA
HETATM    9  O   UNL     1      31.695   4.430  -6.463  1.00  0.00    -0.263 OA
HETATM   10  N   UNL     1      37.350   6.901  -9.999  1.00  0.00    -0.340 N 
HETATM   11  N   UNL     1      35.051   3.016  -6.252  1.00  0.00    -0.340 N 
HETATM   12  N   UNL     1      33.759   8.108  -6.931  1.00  0.00    -0.340 N 
HETATM   13  C   UNL     1      38.376   5.888  -9.676  1.00  0.00     0.190 C 
HETATM   14  C   UNL     1      33.591   2.940  -6.472  1.00  0.00     0.190 C 
HETATM   15  C   UNL     1      33.374   9.165  -7.890  1.00  0.00     0.190 C 
HETATM   16  C   UNL     1      35.039   7.477 -10.791  1.00  0.00     0.227 C 
HETATM   17  C   UNL     1      37.374   3.352  -7.168  1.00  0.00     0.227 C 
HETATM   18  C   UNL     1      33.184   6.440  -5.150  1.00  0.00     0.227 C 
HETATM   19  C   UNL     1      36.142   6.448 -10.559  1.00  0.00     0.250 C 
HETATM   20  C   UNL     1      38.022   5.367  -8.293  1.00  0.00     0.283 C 
HETATM   21  C   UNL     1      35.854   3.364  -7.348  1.00  0.00     0.250 C 
HETATM   22  C   UNL     1      32.753   7.343  -6.316  1.00  0.00     0.250 C 
HETATM   23  C   UNL     1      33.906   8.973  -9.307  1.00  0.00     0.283 C 
HETATM   24  C   UNL     1      32.881   4.264  -6.201  1.00  0.00     0.283 C 
HETATM   25  C   UNL     1      37.646   8.301  -9.680  1.00  0.00     0.153 C 
HETATM   26  C   UNL     1      35.554   2.761  -4.900  1.00  0.00     0.153 C 
HETATM   27  C   UNL     1      35.166   8.034  -6.534  1.00  0.00     0.153 C 
ENDROOT
BRANCH  17  28
HETATM   28  C   UNL     1      37.904   1.925  -7.161  1.00  0.00     0.016 C 
HETATM   29  C   UNL     1      37.287   1.116  -8.301  1.00  0.00     0.012 C 
HETATM   30  C   UNL     1      39.428   1.914  -7.261  1.00  0.00     0.012 C 
ENDBRANCH  17  28
BRANCH  13  31
HETATM   31  C   UNL     1      39.822   6.370  -9.702  1.00  0.00     0.014 C 
HETATM   32  C   UNL     1      40.665   5.537  -8.735  1.00  0.00     0.012 C 
BRANCH  31  33
HETATM   33  C   UNL     1      40.366   6.322 -11.141  1.00  0.00     0.002 C 
HETATM   34  C   UNL     1      39.740   5.228 -11.995  1.00  0.00     0.005 C 
ENDBRANCH  31  33
ENDBRANCH  13  31
BRANCH  14  35
HETATM   35  C   UNL     1      32.908   1.820  -5.687  1.00  0.00     0.010 C 
HETATM   36  C   UNL     1      31.620   2.322  -5.039  1.00  0.00     0.012 C 
HETATM   37  C   UNL     1      32.619   0.623  -6.594  1.00  0.00     0.012 C 
ENDBRANCH  14  35
BRANCH  16  38
HETATM   38  C   UNL     1      33.918   6.916 -11.662  1.00  0.00     0.016 C 
HETATM   39  C   UNL     1      33.458   7.954 -12.684  1.00  0.00     0.012 C 
HETATM   40  C   UNL     1      32.743   6.457 -10.800  1.00  0.00     0.012 C 
ENDBRANCH  16  38
BRANCH  18  41
HETATM   41  C   UNL     1      32.083   6.260  -4.105  1.00  0.00     0.016 C 
HETATM   42  C   UNL     1      31.745   7.595  -3.446  1.00  0.00     0.012 C 
HETATM   43  C   UNL     1      32.504   5.234  -3.055  1.00  0.00     0.012 C 
ENDBRANCH  18  41
BRANCH  15  44
HETATM   44  C   UNL     1      33.741  10.553  -7.363  1.00  0.00     0.010 C 
HETATM   45  C   UNL     1      33.325  10.697  -5.901  1.00  0.00     0.012 C 
HETATM   46  C   UNL     1      33.090  11.637  -8.217  1.00  0.00     0.012 C 
ENDBRANCH  15  44
TORSDOF 7
ENDMDL
MODEL 11
REMARK VINA RESULT:    -5.215      3.044      7.793
REMARK INTER + INTRA:          -6.427
REMARK INTER:                  -7.011
REMARK INTRA:                   0.583
REMARK UNBOUND:                 0.921
REMARK  7 active torsions:
REMARK  status: ('A' for Active; 'I' for Inactive)
REMARK    1  A    between atoms: C_13  and  C_14 
REMARK    2  A    between atoms: C_14  and  C_19 
REMARK    3  A    between atoms: C_15  and  C_20 
REMARK    4  A    between atoms: C_16  and  C_21 
REMARK    5  A    between atoms: C_17  and  C_23 
REMARK    6  A    between atoms: C_18  and  C_26 
REMARK    7  A    between atoms: C_22  and  C_28 
ROOT
HETATM    1  O   UNL     1      33.293   6.965  -8.448  1.00  0.00    -0.304 OA
HETATM    2  O   UNL     1      35.429  11.604  -7.349  1.00  0.00    -0.304 OA
HETATM    3  O   UNL     1      35.489  10.181 -11.856  1.00  0.00    -0.304 OA
HETATM    4  O   UNL     1      35.568   8.562  -6.382  1.00  0.00    -0.270 OA
HETATM    5  O   UNL     1      32.327   9.027  -8.814  1.00  0.00    -0.263 OA
HETATM    6  O   UNL     1      35.658   7.713  -9.201  1.00  0.00    -0.270 OA
HETATM    7  O   UNL     1      36.982  12.900 -10.915  1.00  0.00    -0.270 OA
HETATM    8  O   UNL     1      35.652  13.659  -6.346  1.00  0.00    -0.263 OA
HETATM    9  O   UNL     1      37.791  10.222 -11.893  1.00  0.00    -0.263 OA
HETATM   10  N   UNL     1      33.480   9.570  -6.273  1.00  0.00    -0.340 N 
HETATM   11  N   UNL     1      35.304   7.584 -11.483  1.00  0.00    -0.340 N 
HETATM   12  N   UNL     1      34.966  12.594  -9.797  1.00  0.00    -0.340 N 
HETATM   13  C   UNL     1      32.815   8.280  -6.549  1.00  0.00     0.190 C 
HETATM   14  C   UNL     1      36.668   8.092 -11.743  1.00  0.00     0.190 C 
HETATM   15  C   UNL     1      35.313  13.564  -8.737  1.00  0.00     0.190 C 
HETATM   16  C   UNL     1      35.578  10.935  -6.080  1.00  0.00     0.227 C 
HETATM   17  C   UNL     1      33.553   6.785  -9.857  1.00  0.00     0.227 C 
HETATM   18  C   UNL     1      35.328  11.595 -12.067  1.00  0.00     0.227 C 
HETATM   19  C   UNL     1      34.887   9.586  -6.255  1.00  0.00     0.250 C 
HETATM   20  C   UNL     1      32.757   8.160  -8.063  1.00  0.00     0.283 C 
HETATM   21  C   UNL     1      34.924   7.403 -10.146  1.00  0.00     0.250 C 
HETATM   22  C   UNL     1      35.847  12.416 -10.877  1.00  0.00     0.250 C 
HETATM   23  C   UNL     1      35.471  12.965  -7.342  1.00  0.00     0.283 C 
HETATM   24  C   UNL     1      36.727   9.616 -11.823  1.00  0.00     0.283 C 
HETATM   25  C   UNL     1      32.633  10.749  -6.074  1.00  0.00     0.153 C 
HETATM   26  C   UNL     1      34.433   7.341 -12.636  1.00  0.00     0.153 C 
HETATM   27  C   UNL     1      33.629  11.998  -9.757  1.00  0.00     0.153 C 
ENDROOT
BRANCH  17  28
HETATM   28  C   UNL     1      33.575   5.285 -10.113  1.00  0.00     0.016 C 
HETATM   29  C   UNL     1      33.627   4.514  -8.795  1.00  0.00     0.012 C 
HETATM   30  C   UNL     1      32.359   4.859 -10.935  1.00  0.00     0.012 C 
ENDBRANCH  17  28
BRANCH  13  31
HETATM   31  C   UNL     1      31.422   8.106  -5.954  1.00  0.00     0.014 C 
HETATM   32  C   UNL     1      30.641   7.064  -6.756  1.00  0.00     0.012 C 
BRANCH  31  33
HETATM   33  C   UNL     1      31.531   7.734  -4.464  1.00  0.00     0.002 C 
HETATM   34  C   UNL     1      32.636   6.733  -4.162  1.00  0.00     0.005 C 
ENDBRANCH  31  33
ENDBRANCH  13  31
BRANCH  14  35
HETATM   35  C   UNL     1      37.326   7.485 -12.982  1.00  0.00     0.010 C 
HETATM   36  C   UNL     1      37.416   8.517 -14.105  1.00  0.00     0.012 C 
HETATM   37  C   UNL     1      38.713   6.939 -12.645  1.00  0.00     0.012 C 
ENDBRANCH  14  35
BRANCH  16  38
HETATM   38  C   UNL     1      37.067  10.773  -5.784  1.00  0.00     0.016 C 
HETATM   39  C   UNL     1      37.477  11.639  -4.594  1.00  0.00     0.012 C 
HETATM   40  C   UNL     1      37.902  11.122  -7.014  1.00  0.00     0.012 C 
ENDBRANCH  16  38
BRANCH  18  41
HETATM   41  C   UNL     1      35.927  12.043 -13.399  1.00  0.00     0.016 C 
HETATM   42  C   UNL     1      35.801  13.555 -13.563  1.00  0.00     0.012 C 
HETATM   43  C   UNL     1      35.252  11.319 -14.562  1.00  0.00     0.012 C 
ENDBRANCH  18  41
BRANCH  15  44
HETATM   44  C   UNL     1      34.328  14.733  -8.710  1.00  0.00     0.010 C 
HETATM   45  C   UNL     1      35.055  16.037  -8.396  1.00  0.00     0.012 C 
HETATM   46  C   UNL     1      33.221  14.475  -7.692  1.00  0.00     0.012 C 
ENDBRANCH  15  44
TORSDOF 7
ENDMDL
MODEL 12
REMARK VINA RESULT:    -5.175      2.138      7.701
REMARK INTER + INTRA:          -6.372
REMARK INTER:                  -7.570
REMARK INTRA:                   1.198
REMARK UNBOUND:                 0.921
REMARK  7 active torsions:
REMARK  status: ('A' for Active; 'I' for Inactive)
REMARK    1  A    between atoms: C_13  and  C_14 
REMARK    2  A    between atoms: C_14  and  C_19 
REMARK    3  A    between atoms: C_15  and  C_20 
REMARK    4  A    between atoms: C_16  and  C_21 
REMARK    5  A    between atoms: C_17  and  C_23 
REMARK    6  A    between atoms: C_18  and  C_26 
REMARK    7  A    between atoms: C_22  and  C_28 
ROOT
HETATM    1  O   UNL     1      37.944   7.125  -8.541  1.00  0.00    -0.304 OA
HETATM    2  O   UNL     1      32.989   8.723  -8.973  1.00  0.00    -0.304 OA
HETATM    3  O   UNL     1      33.752   4.429  -7.150  1.00  0.00    -0.304 OA
HETATM    4  O   UNL     1      35.625   8.440 -10.753  1.00  0.00    -0.270 OA
HETATM    5  O   UNL     1      36.621   7.929  -6.831  1.00  0.00    -0.263 OA
HETATM    6  O   UNL     1      36.042   5.747  -9.637  1.00  0.00    -0.270 OA
HETATM    7  O   UNL     1      30.755   5.512  -7.742  1.00  0.00    -0.270 OA
HETATM    8  O   UNL     1      31.206  10.169  -8.894  1.00  0.00    -0.263 OA
HETATM    9  O   UNL     1      32.558   3.437  -8.849  1.00  0.00    -0.263 OA
HETATM   10  N   UNL     1      35.818   9.759  -8.853  1.00  0.00    -0.340 N 
HETATM   11  N   UNL     1      36.113   3.937  -8.198  1.00  0.00    -0.340 N 
HETATM   12  N   UNL     1      32.137   7.201  -6.936  1.00  0.00    -0.340 N 
HETATM   13  C   UNL     1      37.234   9.370  -8.695  1.00  0.00     0.190 C 
HETATM   14  C   UNL     1      34.967   3.314  -8.895  1.00  0.00     0.190 C 
HETATM   15  C   UNL     1      31.230   8.273  -7.395  1.00  0.00     0.190 C 
HETATM   16  C   UNL     1      33.610   9.497 -10.017  1.00  0.00     0.227 C 
HETATM   17  C   UNL     1      37.834   5.771  -8.052  1.00  0.00     0.227 C 
HETATM   18  C   UNL     1      32.597   4.801  -6.376  1.00  0.00     0.227 C 
HETATM   19  C   UNL     1      35.100   9.184  -9.917  1.00  0.00     0.250 C 
HETATM   20  C   UNL     1      37.222   8.083  -7.887  1.00  0.00     0.283 C 
HETATM   21  C   UNL     1      36.587   5.159  -8.696  1.00  0.00     0.250 C 
HETATM   22  C   UNL     1      31.745   5.860  -7.091  1.00  0.00     0.250 C 
HETATM   23  C   UNL     1      31.798   9.174  -8.489  1.00  0.00     0.283 C 
HETATM   24  C   UNL     1      33.620   3.740  -8.315  1.00  0.00     0.283 C 
HETATM   25  C   UNL     1      35.248  10.686  -7.870  1.00  0.00     0.153 C 
HETATM   26  C   UNL     1      36.649   3.255  -7.018  1.00  0.00     0.153 C 
HETATM   27  C   UNL     1      33.324   7.597  -6.176  1.00  0.00     0.153 C 
ENDROOT
BRANCH  17  28
HETATM   28  C   UNL     1      39.088   5.036  -8.504  1.00  0.00     0.016 C 
HETATM   29  C   UNL     1      39.773   5.790  -9.643  1.00  0.00     0.012 C 
HETATM   30  C   UNL     1      40.052   4.844  -7.334  1.00  0.00     0.012 C 
ENDBRANCH  17  28
BRANCH  13  31
HETATM   31  C   UNL     1      38.140  10.400  -8.029  1.00  0.00     0.014 C 
HETATM   32  C   UNL     1      39.346   9.702  -7.399  1.00  0.00     0.012 C 
BRANCH  31  33
HETATM   33  C   UNL     1      38.554  11.473  -9.052  1.00  0.00     0.002 C 
HETATM   34  C   UNL     1      38.823  10.921 -10.444  1.00  0.00     0.005 C 
ENDBRANCH  31  33
ENDBRANCH  13  31
BRANCH  14  35
HETATM   35  C   UNL     1      35.040   1.789  -8.959  1.00  0.00     0.010 C 
HETATM   36  C   UNL     1      33.920   1.159  -8.133  1.00  0.00     0.012 C 
HETATM   37  C   UNL     1      34.973   1.305 -10.407  1.00  0.00     0.012 C 
ENDBRANCH  14  35
BRANCH  16  38
HETATM   38  C   UNL     1      33.030   9.061 -11.361  1.00  0.00     0.016 C 
HETATM   39  C   UNL     1      33.407   7.612 -11.665  1.00  0.00     0.012 C 
HETATM   40  C   UNL     1      33.508   9.984 -12.480  1.00  0.00     0.012 C 
ENDBRANCH  16  38
BRANCH  18  41
HETATM   41  C   UNL     1      31.785   3.581  -5.945  1.00  0.00     0.016 C 
HETATM   42  C   UNL     1      30.651   3.995  -5.009  1.00  0.00     0.012 C 
HETATM   43  C   UNL     1      32.685   2.547  -5.273  1.00  0.00     0.012 C 
ENDBRANCH  18  41
BRANCH  15  44
HETATM   44  C   UNL     1      30.722   9.111  -6.221  1.00  0.00     0.010 C 
HETATM   45  C   UNL     1      29.266   9.512  -6.441  1.00  0.00     0.012 C 
HETATM   46  C   UNL     1      31.597  10.346  -6.029  1.00  0.00     0.012 C 
ENDBRANCH  15  44
TORSDOF 7
ENDMDL
MODEL 13
REMARK VINA RESULT:    -5.162      3.450      8.436
REMARK INTER + INTRA:          -6.353
REMARK INTER:                  -7.110
REMARK INTRA:                   0.757
REMARK UNBOUND:                 0.921
REMARK  7 active torsions:
REMARK  status: ('A' for Active; 'I' for Inactive)
REMARK    1  A    between atoms: C_13  and  C_14 
REMARK    2  A    between atoms: C_14  and  C_19 
REMARK    3  A    between atoms: C_15  and  C_20 
REMARK    4  A    between atoms: C_16  and  C_21 
REMARK    5  A    between atoms: C_17  and  C_23 
REMARK    6  A    between atoms: C_18  and  C_26 
REMARK    7  A    between atoms: C_22  and  C_28 
ROOT
HETATM    1  O   UNL     1      39.009   8.585  -7.790  1.00  0.00    -0.304 OA
HETATM    2  O   UNL     1      34.564  11.299  -7.388  1.00  0.00    -0.304 OA
HETATM    3  O   UNL     1      34.317   6.958  -9.242  1.00  0.00    -0.304 OA
HETATM    4  O   UNL     1      37.527  11.625  -8.536  1.00  0.00    -0.270 OA
HETATM    5  O   UNL     1      37.384   8.300  -6.179  1.00  0.00    -0.263 OA
HETATM    6  O   UNL     1      37.320   8.938  -9.723  1.00  0.00    -0.270 OA
HETATM    7  O   UNL     1      31.729   8.907  -9.136  1.00  0.00    -0.270 OA
HETATM    8  O   UNL     1      33.003  12.697  -6.446  1.00  0.00    -0.263 OA
HETATM    9  O   UNL     1      33.509   7.795 -11.228  1.00  0.00    -0.263 OA
HETATM   10  N   UNL     1      37.361  11.140  -6.272  1.00  0.00    -0.340 N 
HETATM   11  N   UNL     1      36.797   6.712 -10.079  1.00  0.00    -0.340 N 
HETATM   12  N   UNL     1      33.034   9.104  -7.220  1.00  0.00    -0.340 N 
HETATM   13  C   UNL     1      38.630  10.386  -6.314  1.00  0.00     0.190 C 
HETATM   14  C   UNL     1      35.813   7.090 -11.115  1.00  0.00     0.190 C 
HETATM   15  C   UNL     1      32.411  10.385  -6.829  1.00  0.00     0.190 C 
HETATM   16  C   UNL     1      35.524  12.371  -7.461  1.00  0.00     0.227 C 
HETATM   17  C   UNL     1      38.619   7.370  -8.466  1.00  0.00     0.227 C 
HETATM   18  C   UNL     1      33.050   6.986  -8.561  1.00  0.00     0.227 C 
HETATM   19  C   UNL     1      36.888  11.687  -7.479  1.00  0.00     0.250 C 
HETATM   20  C   UNL     1      38.256   8.969  -6.718  1.00  0.00     0.283 C 
HETATM   21  C   UNL     1      37.524   7.745  -9.469  1.00  0.00     0.250 C 
HETATM   22  C   UNL     1      32.545   8.421  -8.347  1.00  0.00     0.250 C 
HETATM   23  C   UNL     1      33.348  11.590  -6.847  1.00  0.00     0.283 C 
HETATM   24  C   UNL     1      34.419   7.340 -10.544  1.00  0.00     0.283 C 
HETATM   25  C   UNL     1      36.662  11.236  -4.986  1.00  0.00     0.153 C 
HETATM   26  C   UNL     1      36.920   5.294  -9.734  1.00  0.00     0.153 C 
HETATM   27  C   UNL     1      34.015   8.521  -6.303  1.00  0.00     0.153 C 
ENDROOT
BRANCH  17  28
HETATM   28  C   UNL     1      39.854   6.851  -9.187  1.00  0.00     0.016 C 
HETATM   29  C   UNL     1      40.883   7.966  -9.365  1.00  0.00     0.012 C 
HETATM   30  C   UNL     1      40.466   5.673  -8.430  1.00  0.00     0.012 C 
ENDBRANCH  17  28
BRANCH  13  31
HETATM   31  C   UNL     1      39.440  10.368  -5.022  1.00  0.00     0.014 C 
HETATM   32  C   UNL     1      40.422   9.196  -5.040  1.00  0.00     0.012 C 
BRANCH  31  33
HETATM   33  C   UNL     1      40.149  11.720  -4.829  1.00  0.00     0.002 C 
HETATM   34  C   UNL     1      40.202  12.182  -3.380  1.00  0.00     0.005 C 
ENDBRANCH  31  33
ENDBRANCH  13  31
BRANCH  14  35
HETATM   35  C   UNL     1      35.724   6.093 -12.271  1.00  0.00     0.010 C 
HETATM   36  C   UNL     1      34.482   5.216 -12.133  1.00  0.00     0.012 C 
HETATM   37  C   UNL     1      35.716   6.823 -13.614  1.00  0.00     0.012 C 
ENDBRANCH  14  35
BRANCH  16  38
HETATM   38  C   UNL     1      35.274  13.166  -8.740  1.00  0.00     0.016 C 
HETATM   39  C   UNL     1      34.723  14.553  -8.415  1.00  0.00     0.012 C 
HETATM   40  C   UNL     1      34.319  12.413  -9.664  1.00  0.00     0.012 C 
ENDBRANCH  16  38
BRANCH  18  41
HETATM   41  C   UNL     1      32.016   6.092  -9.246  1.00  0.00     0.016 C 
HETATM   42  C   UNL     1      30.661   6.212  -8.554  1.00  0.00     0.012 C 
HETATM   43  C   UNL     1      32.487   4.640  -9.258  1.00  0.00     0.012 C 
ENDBRANCH  18  41
BRANCH  15  44
HETATM   44  C   UNL     1      31.710  10.272  -5.474  1.00  0.00     0.010 C 
HETATM   45  C   UNL     1      32.733  10.076  -4.359  1.00  0.00     0.012 C 
HETATM   46  C   UNL     1      30.702   9.127  -5.489  1.00  0.00     0.012 C 
ENDBRANCH  15  44
TORSDOF 7
ENDMDL
MODEL 14
REMARK VINA RESULT:    -5.140      3.133      5.086
REMARK INTER + INTRA:          -6.322
REMARK INTER:                  -6.960
REMARK INTRA:                   0.638
REMARK UNBOUND:                 0.921
REMARK  7 active torsions:
REMARK  status: ('A' for Active; 'I' for Inactive)
REMARK    1  A    between atoms: C_13  and  C_14 
REMARK    2  A    between atoms: C_14  and  C_19 
REMARK    3  A    between atoms: C_15  and  C_20 
REMARK    4  A    between atoms: C_16  and  C_21 
REMARK    5  A    between atoms: C_17  and  C_23 
REMARK    6  A    between atoms: C_18  and  C_26 
REMARK    7  A    between atoms: C_22  and  C_28 
ROOT
HETATM    1  O   UNL     1      32.228   8.094  -7.997  1.00  0.00    -0.304 OA
HETATM    2  O   UNL     1      36.924   8.208 -10.282  1.00  0.00    -0.304 OA
HETATM    3  O   UNL     1      36.077  11.362  -6.864  1.00  0.00    -0.304 OA
HETATM    4  O   UNL     1      33.827   8.220 -11.066  1.00  0.00    -0.270 OA
HETATM    5  O   UNL     1      34.185   7.246  -7.122  1.00  0.00    -0.263 OA
HETATM    6  O   UNL     1      33.344  10.224  -8.962  1.00  0.00    -0.270 OA
HETATM    7  O   UNL     1      38.823  11.421  -8.585  1.00  0.00    -0.270 OA
HETATM    8  O   UNL     1      38.854   7.387 -11.220  1.00  0.00    -0.263 OA
HETATM    9  O   UNL     1      36.402  13.111  -8.325  1.00  0.00    -0.263 OA
HETATM   10  N   UNL     1      34.552   6.406  -9.813  1.00  0.00    -0.340 N 
HETATM   11  N   UNL     1      33.452  11.430  -6.991  1.00  0.00    -0.340 N 
HETATM   12  N   UNL     1      38.140   9.245  -8.130  1.00  0.00    -0.340 N 
HETATM   13  C   UNL     1      33.234   6.302  -9.154  1.00  0.00     0.190 C 
HETATM   14  C   UNL     1      34.149  12.535  -7.684  1.00  0.00     0.190 C 
HETATM   15  C   UNL     1      39.009   8.667  -9.176  1.00  0.00     0.190 C 
HETATM   16  C   UNL     1      36.129   7.629 -11.336  1.00  0.00     0.227 C 
HETATM   17  C   UNL     1      32.253   9.216  -7.087  1.00  0.00     0.227 C 
HETATM   18  C   UNL     1      37.476  11.132  -6.619  1.00  0.00     0.227 C 
HETATM   19  C   UNL     1      34.737   7.451 -10.737  1.00  0.00     0.250 C 
HETATM   20  C   UNL     1      33.293   7.241  -7.960  1.00  0.00     0.283 C 
HETATM   21  C   UNL     1      33.064  10.325  -7.763  1.00  0.00     0.250 C 
HETATM   22  C   UNL     1      38.203  10.625  -7.873  1.00  0.00     0.250 C 
HETATM   23  C   UNL     1      38.269   8.002 -10.334  1.00  0.00     0.283 C 
HETATM   24  C   UNL     1      35.667  12.369  -7.681  1.00  0.00     0.283 C 
HETATM   25  C   UNL     1      35.587   5.439  -9.433  1.00  0.00     0.153 C 
HETATM   26  C   UNL     1      33.246  11.549  -5.546  1.00  0.00     0.153 C 
HETATM   27  C   UNL     1      37.386   8.316  -7.287  1.00  0.00     0.153 C 
ENDROOT
BRANCH  17  28
HETATM   28  C   UNL     1      30.809   9.653  -6.886  1.00  0.00     0.016 C 
HETATM   29  C   UNL     1      30.019   9.521  -8.187  1.00  0.00     0.012 C 
HETATM   30  C   UNL     1      30.149   8.837  -5.775  1.00  0.00     0.012 C 
ENDBRANCH  17  28
BRANCH  13  31
HETATM   31  C   UNL     1      32.821   4.905  -8.705  1.00  0.00     0.014 C 
HETATM   32  C   UNL     1      31.654   5.000  -7.720  1.00  0.00     0.012 C 
BRANCH  31  33
HETATM   33  C   UNL     1      32.481   4.038  -9.930  1.00  0.00     0.002 C 
HETATM   34  C   UNL     1      32.941   2.592  -9.804  1.00  0.00     0.005 C 
ENDBRANCH  31  33
ENDBRANCH  13  31
BRANCH  14  35
HETATM   35  C   UNL     1      33.782  13.922  -7.155  1.00  0.00     0.010 C 
HETATM   36  C   UNL     1      35.003  14.608  -6.547  1.00  0.00     0.012 C 
HETATM   37  C   UNL     1      33.183  14.783  -8.267  1.00  0.00     0.012 C 
ENDBRANCH  14  35
BRANCH  16  38
HETATM   38  C   UNL     1      36.114   8.589 -12.523  1.00  0.00     0.016 C 
HETATM   39  C   UNL     1      36.878   7.997 -13.705  1.00  0.00     0.012 C 
HETATM   40  C   UNL     1      36.704   9.942 -12.128  1.00  0.00     0.012 C 
ENDBRANCH  16  38
BRANCH  18  41
HETATM   41  C   UNL     1      38.152  12.353  -5.997  1.00  0.00     0.016 C 
HETATM   42  C   UNL     1      39.634  12.079  -5.752  1.00  0.00     0.012 C 
HETATM   43  C   UNL     1      37.457  12.746  -4.695  1.00  0.00     0.012 C 
ENDBRANCH  18  41
BRANCH  15  44
HETATM   44  C   UNL     1      40.038   7.707  -8.576  1.00  0.00     0.010 C 
HETATM   45  C   UNL     1      41.426   7.988  -9.145  1.00  0.00     0.012 C 
HETATM   46  C   UNL     1      39.631   6.260  -8.835  1.00  0.00     0.012 C 
ENDBRANCH  15  44
TORSDOF 7
ENDMDL
MODEL 15
REMARK VINA RESULT:    -4.910      1.749      3.467
REMARK INTER + INTRA:          -5.997
REMARK INTER:                  -7.433
REMARK INTRA:                   1.435
REMARK UNBOUND:                 0.921
REMARK  7 active torsions:
REMARK  status: ('A' for Active; 'I' for Inactive)
REMARK    1  A    between atoms: C_13  and  C_14 
REMARK    2  A    between atoms: C_14  and  C_19 
REMARK    3  A    between atoms: C_15  and  C_20 
REMARK    4  A    between atoms: C_16  and  C_21 
REMARK    5  A    between atoms: C_17  and  C_23 
REMARK    6  A    between atoms: C_18  and  C_26 
REMARK    7  A    between atoms: C_22  and  C_28 
ROOT
HETATM    1  O   UNL     1      32.415   6.811  -5.904  1.00  0.00    -0.304 OA
HETATM    2  O   UNL     1      34.534   4.228  -9.920  1.00  0.00    -0.304 OA
HETATM    3  O   UNL     1      36.055   8.628  -9.102  1.00  0.00    -0.304 OA
HETATM    4  O   UNL     1      31.661   5.001  -8.759  1.00  0.00    -0.270 OA
HETATM    5  O   UNL     1      34.484   5.794  -5.925  1.00  0.00    -0.263 OA
HETATM    6  O   UNL     1      32.625   7.748  -8.312  1.00  0.00    -0.270 OA
HETATM    7  O   UNL     1      37.048   6.943 -11.687  1.00  0.00    -0.270 OA
HETATM    8  O   UNL     1      35.416   2.450 -11.078  1.00  0.00    -0.263 OA
HETATM    9  O   UNL     1      35.346   9.316 -11.180  1.00  0.00    -0.263 OA
HETATM   10  N   UNL     1      33.041   3.793  -7.337  1.00  0.00    -0.340 N 
HETATM   11  N   UNL     1      33.964   9.567  -7.813  1.00  0.00    -0.340 N 
HETATM   12  N   UNL     1      36.840   5.591  -9.806  1.00  0.00    -0.340 N 
HETATM   13  C   UNL     1      32.458   4.466  -6.158  1.00  0.00     0.190 C 
HETATM   14  C   UNL     1      34.041   9.926  -9.246  1.00  0.00     0.190 C 
HETATM   15  C   UNL     1      36.837   4.345 -10.602  1.00  0.00     0.190 C 
HETATM   16  C   UNL     1      33.254   3.572  -9.828  1.00  0.00     0.227 C 
HETATM   17  C   UNL     1      33.008   8.126  -5.981  1.00  0.00     0.227 C 
HETATM   18  C   UNL     1      37.286   8.046  -9.567  1.00  0.00     0.227 C 
HETATM   19  C   UNL     1      32.577   4.185  -8.605  1.00  0.00     0.250 C 
HETATM   20  C   UNL     1      33.262   5.742  -5.970  1.00  0.00     0.283 C 
HETATM   21  C   UNL     1      33.182   8.456  -7.466  1.00  0.00     0.250 C 
HETATM   22  C   UNL     1      37.040   6.819 -10.459  1.00  0.00     0.250 C 
HETATM   23  C   UNL     1      35.533   3.555 -10.556  1.00  0.00     0.283 C 
HETATM   24  C   UNL     1      35.205   9.248  -9.964  1.00  0.00     0.283 C 
HETATM   25  C   UNL     1      34.087   2.792  -7.106  1.00  0.00     0.153 C 
HETATM   26  C   UNL     1      34.737  10.370  -6.863  1.00  0.00     0.153 C 
HETATM   27  C   UNL     1      36.816   5.462  -8.348  1.00  0.00     0.153 C 
ENDROOT
BRANCH  17  28
HETATM   28  C   UNL     1      32.029   9.090  -5.327  1.00  0.00     0.016 C 
HETATM   29  C   UNL     1      30.879   9.418  -6.278  1.00  0.00     0.012 C 
HETATM   30  C   UNL     1      31.493   8.510  -4.019  1.00  0.00     0.012 C 
ENDBRANCH  17  28
BRANCH  13  31
HETATM   31  C   UNL     1      32.445   3.658  -4.865  1.00  0.00     0.014 C 
HETATM   32  C   UNL     1      32.706   4.580  -3.673  1.00  0.00     0.012 C 
BRANCH  31  33
HETATM   33  C   UNL     1      31.114   2.897  -4.735  1.00  0.00     0.002 C 
HETATM   34  C   UNL     1      30.218   3.418  -3.620  1.00  0.00     0.005 C 
ENDBRANCH  31  33
ENDBRANCH  13  31
BRANCH  14  35
HETATM   35  C   UNL     1      34.087  11.433  -9.500  1.00  0.00     0.010 C 
HETATM   36  C   UNL     1      32.983  12.146  -8.721  1.00  0.00     0.012 C 
HETATM   37  C   UNL     1      35.456  12.002  -9.130  1.00  0.00     0.012 C 
ENDBRANCH  14  35
BRANCH  16  38
HETATM   38  C   UNL     1      32.469   3.851 -11.107  1.00  0.00     0.016 C 
HETATM   39  C   UNL     1      32.431   2.610 -11.997  1.00  0.00     0.012 C 
HETATM   40  C   UNL     1      33.072   5.034 -11.863  1.00  0.00     0.012 C 
ENDBRANCH  16  38
BRANCH  18  41
HETATM   41  C   UNL     1      38.191   9.084 -10.229  1.00  0.00     0.016 C 
HETATM   42  C   UNL     1      39.472   8.430 -10.742  1.00  0.00     0.012 C 
HETATM   43  C   UNL     1      38.518  10.211  -9.252  1.00  0.00     0.012 C 
ENDBRANCH  18  41
BRANCH  15  44
HETATM   44  C   UNL     1      38.020   3.448 -10.235  1.00  0.00     0.010 C 
HETATM   45  C   UNL     1      38.667   2.874 -11.492  1.00  0.00     0.012 C 
HETATM   46  C   UNL     1      37.572   2.329  -9.300  1.00  0.00     0.012 C 
ENDBRANCH  15  44
TORSDOF 7
ENDMDL
MODEL 16
REMARK VINA RESULT:    -4.863      2.318      8.229
REMARK INTER + INTRA:          -5.931
REMARK INTER:                  -6.696
REMARK INTRA:                   0.765
REMARK UNBOUND:                 0.921
REMARK  7 active torsions:
REMARK  status: ('A' for Active; 'I' for Inactive)
REMARK    1  A    between atoms: C_13  and  C_14 
REMARK    2  A    between atoms: C_14  and  C_19 
REMARK    3  A    between atoms: C_15  and  C_20 
REMARK    4  A    between atoms: C_16  and  C_21 
REMARK    5  A    between atoms: C_17  and  C_23 
REMARK    6  A    between atoms: C_18  and  C_26 
REMARK    7  A    between atoms: C_22  and  C_28 
ROOT
HETATM    1  O   UNL     1      37.567   9.308  -7.522  1.00  0.00    -0.304 OA
HETATM    2  O   UNL     1      32.507   8.144  -6.942  1.00  0.00    -0.304 OA
HETATM    3  O   UNL     1      35.567   4.548  -7.169  1.00  0.00    -0.304 OA
HETATM    4  O   UNL     1      34.410   9.888  -8.824  1.00  0.00    -0.270 OA
HETATM    5  O   UNL     1      36.534   8.679  -5.558  1.00  0.00    -0.263 OA
HETATM    6  O   UNL     1      36.269   7.609  -8.987  1.00  0.00    -0.270 OA
HETATM    7  O   UNL     1      32.366   4.048  -7.067  1.00  0.00    -0.270 OA
HETATM    8  O   UNL     1      30.359   8.332  -6.150  1.00  0.00    -0.263 OA
HETATM    9  O   UNL     1      34.539   3.724  -9.056  1.00  0.00    -0.263 OA
HETATM   10  N   UNL     1      34.490  10.383  -6.558  1.00  0.00    -0.340 N 
HETATM   11  N   UNL     1      37.523   5.737  -8.463  1.00  0.00    -0.340 N 
HETATM   12  N   UNL     1      33.004   5.820  -5.701  1.00  0.00    -0.340 N 
HETATM   13  C   UNL     1      35.916  10.757  -6.663  1.00  0.00     0.190 C 
HETATM   14  C   UNL     1      36.638   4.889  -9.290  1.00  0.00     0.190 C 
HETATM   15  C   UNL     1      31.627   6.348  -5.606  1.00  0.00     0.190 C 
HETATM   16  C   UNL     1      32.412   9.427  -7.592  1.00  0.00     0.227 C 
HETATM   17  C   UNL     1      38.210   8.021  -7.650  1.00  0.00     0.227 C 
HETATM   18  C   UNL     1      34.621   3.983  -6.244  1.00  0.00     0.227 C 
HETATM   19  C   UNL     1      33.851   9.918  -7.721  1.00  0.00     0.250 C 
HETATM   20  C   UNL     1      36.697   9.466  -6.481  1.00  0.00     0.283 C 
HETATM   21  C   UNL     1      37.248   7.111  -8.419  1.00  0.00     0.250 C 
HETATM   22  C   UNL     1      33.228   4.615  -6.389  1.00  0.00     0.250 C 
HETATM   23  C   UNL     1      31.418   7.720  -6.243  1.00  0.00     0.283 C 
HETATM   24  C   UNL     1      35.452   4.331  -8.507  1.00  0.00     0.283 C 
HETATM   25  C   UNL     1      33.851  10.486  -5.242  1.00  0.00     0.153 C 
HETATM   26  C   UNL     1      38.600   5.080  -7.718  1.00  0.00     0.153 C 
HETATM   27  C   UNL     1      34.042   6.489  -4.916  1.00  0.00     0.153 C 
ENDROOT
BRANCH  17  28
HETATM   28  C   UNL     1      39.489   8.245  -8.444  1.00  0.00     0.016 C 
HETATM   29  C   UNL     1      39.424   9.565  -9.210  1.00  0.00     0.012 C 
HETATM   30  C   UNL     1      40.708   8.220  -7.523  1.00  0.00     0.012 C 
ENDBRANCH  17  28
BRANCH  13  31
HETATM   31  C   UNL     1      36.405  11.811  -5.677  1.00  0.00     0.014 C 
HETATM   32  C   UNL     1      37.919  11.694  -5.499  1.00  0.00     0.012 C 
BRANCH  31  33
HETATM   33  C   UNL     1      35.979  13.212  -6.151  1.00  0.00     0.002 C 
HETATM   34  C   UNL     1      35.820  14.220  -5.021  1.00  0.00     0.005 C 
ENDBRANCH  31  33
ENDBRANCH  13  31
BRANCH  14  35
HETATM   35  C   UNL     1      37.367   3.749 -10.002  1.00  0.00     0.010 C 
HETATM   36  C   UNL     1      37.003   2.403  -9.378  1.00  0.00     0.012 C 
HETATM   37  C   UNL     1      37.044   3.751 -11.496  1.00  0.00     0.012 C 
ENDBRANCH  14  35
BRANCH  16  38
HETATM   38  C   UNL     1      31.756   9.237  -8.957  1.00  0.00     0.016 C 
HETATM   39  C   UNL     1      30.383   9.906  -8.993  1.00  0.00     0.012 C 
HETATM   40  C   UNL     1      31.636   7.752  -9.295  1.00  0.00     0.012 C 
ENDBRANCH  16  38
BRANCH  18  41
HETATM   41  C   UNL     1      34.588   2.457  -6.327  1.00  0.00     0.016 C 
HETATM   42  C   UNL     1      33.526   1.891  -5.386  1.00  0.00     0.012 C 
HETATM   43  C   UNL     1      35.960   1.873  -6.000  1.00  0.00     0.012 C 
ENDBRANCH  18  41
BRANCH  15  44
HETATM   44  C   UNL     1      31.131   6.348  -4.160  1.00  0.00     0.010 C 
HETATM   45  C   UNL     1      31.828   7.443  -3.355  1.00  0.00     0.012 C 
HETATM   46  C   UNL     1      31.355   4.982  -3.519  1.00  0.00     0.012 C 
ENDBRANCH  15  44
TORSDOF 7
ENDMDL
MODEL 17
REMARK VINA RESULT:    -4.834      2.581      7.096
REMARK INTER + INTRA:          -5.890
REMARK INTER:                  -6.636
REMARK INTRA:                   0.746
REMARK UNBOUND:                 0.921
REMARK  7 active torsions:
REMARK  status: ('A' for Active; 'I' for Inactive)
REMARK    1  A    between atoms: C_13  and  C_14 
REMARK    2  A    between atoms: C_14  and  C_19 
REMARK    3  A    between atoms: C_15  and  C_20 
REMARK    4  A    between atoms: C_16  and  C_21 
REMARK    5  A    between atoms: C_17  and  C_23 
REMARK    6  A    between atoms: C_18  and  C_26 
REMARK    7  A    between atoms: C_22  and  C_28 
ROOT
HETATM    1  O   UNL     1      35.203   8.456 -12.755  1.00  0.00    -0.304 OA
HETATM    2  O   UNL     1      35.568   4.101  -9.892  1.00  0.00    -0.304 OA
HETATM    3  O   UNL     1      32.442   7.369  -8.516  1.00  0.00    -0.304 OA
HETATM    4  O   UNL     1      37.438   6.392 -11.099  1.00  0.00    -0.270 OA
HETATM    5  O   UNL     1      33.744   6.670 -12.806  1.00  0.00    -0.263 OA
HETATM    6  O   UNL     1      35.495   8.406 -10.181  1.00  0.00    -0.270 OA
HETATM    7  O   UNL     1      33.011   4.714  -6.745  1.00  0.00    -0.270 OA
HETATM    8  O   UNL     1      35.792   1.858  -9.452  1.00  0.00    -0.263 OA
HETATM    9  O   UNL     1      33.518   7.624  -6.497  1.00  0.00    -0.263 OA
HETATM   10  N   UNL     1      36.171   5.200 -12.635  1.00  0.00    -0.340 N 
HETATM   11  N   UNL     1      33.526   9.489  -9.632  1.00  0.00    -0.340 N 
HETATM   12  N   UNL     1      33.035   4.251  -9.025  1.00  0.00    -0.340 N 
HETATM   13  C   UNL     1      36.058   6.389 -13.504  1.00  0.00     0.190 C 
HETATM   14  C   UNL     1      33.810   9.316  -8.191  1.00  0.00     0.190 C 
HETATM   15  C   UNL     1      33.732   2.961  -8.838  1.00  0.00     0.190 C 
HETATM   16  C   UNL     1      36.887   4.151 -10.469  1.00  0.00     0.227 C 
HETATM   17  C   UNL     1      34.254   9.271 -12.034  1.00  0.00     0.227 C 
HETATM   18  C   UNL     1      31.717   6.187  -8.132  1.00  0.00     0.227 C 
HETATM   19  C   UNL     1      36.864   5.345 -11.420  1.00  0.00     0.250 C 
HETATM   20  C   UNL     1      34.850   7.159 -12.998  1.00  0.00     0.283 C 
HETATM   21  C   UNL     1      34.480   9.013 -10.542  1.00  0.00     0.250 C 
HETATM   22  C   UNL     1      32.653   4.992  -7.894  1.00  0.00     0.250 C 
HETATM   23  C   UNL     1      35.135   2.894  -9.435  1.00  0.00     0.283 C 
HETATM   24  C   UNL     1      33.260   8.004  -7.634  1.00  0.00     0.283 C 
HETATM   25  C   UNL     1      35.522   3.962 -13.079  1.00  0.00     0.153 C 
HETATM   26  C   UNL     1      32.255  10.112 -10.009  1.00  0.00     0.153 C 
HETATM   27  C   UNL     1      32.617   4.603 -10.383  1.00  0.00     0.153 C 
ENDROOT
BRANCH  17  28
HETATM   28  C   UNL     1      34.564  10.720 -12.382  1.00  0.00     0.016 C 
HETATM   29  C   UNL     1      35.865  11.167 -11.717  1.00  0.00     0.012 C 
HETATM   30  C   UNL     1      34.645  10.906 -13.896  1.00  0.00     0.012 C 
ENDBRANCH  17  28
BRANCH  13  31
HETATM   31  C   UNL     1      35.919   6.114 -14.997  1.00  0.00     0.014 C 
HETATM   32  C   UNL     1      35.339   7.342 -15.700  1.00  0.00     0.012 C 
BRANCH  31  33
HETATM   33  C   UNL     1      37.280   5.695 -15.583  1.00  0.00     0.002 C 
HETATM   34  C   UNL     1      37.221   4.427 -16.422  1.00  0.00     0.005 C 
ENDBRANCH  31  33
ENDBRANCH  13  31
BRANCH  14  35
HETATM   35  C   UNL     1      33.335  10.482  -7.325  1.00  0.00     0.010 C 
HETATM   36  C   UNL     1      32.164  10.057  -6.441  1.00  0.00     0.012 C 
HETATM   37  C   UNL     1      34.481  11.022  -6.470  1.00  0.00     0.012 C 
ENDBRANCH  14  35
BRANCH  16  38
HETATM   38  C   UNL     1      37.905   4.342  -9.348  1.00  0.00     0.016 C 
HETATM   39  C   UNL     1      38.764   3.089  -9.181  1.00  0.00     0.012 C 
HETATM   40  C   UNL     1      37.203   4.688  -8.036  1.00  0.00     0.012 C 
ENDBRANCH  16  38
BRANCH  18  41
HETATM   41  C   UNL     1      30.784   6.451  -6.951  1.00  0.00     0.016 C 
HETATM   42  C   UNL     1      29.953   5.209  -6.636  1.00  0.00     0.012 C 
HETATM   43  C   UNL     1      29.876   7.644  -7.241  1.00  0.00     0.012 C 
ENDBRANCH  18  41
BRANCH  15  44
HETATM   44  C   UNL     1      32.881   1.792  -9.337  1.00  0.00     0.010 C 
HETATM   45  C   UNL     1      32.892   0.652  -8.323  1.00  0.00     0.012 C 
HETATM   46  C   UNL     1      33.380   1.310 -10.696  1.00  0.00     0.012 C 
ENDBRANCH  15  44
TORSDOF 7
ENDMDL
MODEL 18
REMARK VINA RESULT:    -4.834      2.334      6.963
REMARK INTER + INTRA:          -5.890
REMARK INTER:                  -6.717
REMARK INTRA:                   0.826
REMARK UNBOUND:                 0.921
REMARK  7 active torsions:
REMARK  status: ('A' for Active; 'I' for Inactive)
REMARK    1  A    between atoms: C_13  and  C_14 
REMARK    2  A    between atoms: C_14  and  C_19 
REMARK    3  A    between atoms: C_15  and  C_20 
REMARK    4  A    between atoms: C_16  and  C_21 
REMARK    5  A    between atoms: C_17  and  C_23 
REMARK    6  A    between atoms: C_18  and  C_26 
REMARK    7  A    between atoms: C_22  and  C_28 
ROOT
HETATM    1  O   UNL     1      34.693   8.220 -11.792  1.00  0.00    -0.304 OA
HETATM    2  O   UNL     1      37.435   4.673  -9.110  1.00  0.00    -0.304 OA
HETATM    3  O   UNL     1      33.184   5.880  -7.430  1.00  0.00    -0.304 OA
HETATM    4  O   UNL     1      37.780   7.597 -10.349  1.00  0.00    -0.270 OA
HETATM    5  O   UNL     1      34.353   5.939 -11.814  1.00  0.00    -0.263 OA
HETATM    6  O   UNL     1      35.151   8.332  -9.244  1.00  0.00    -0.270 OA
HETATM    7  O   UNL     1      35.155   3.895  -5.791  1.00  0.00    -0.270 OA
HETATM    8  O   UNL     1      38.806   2.863  -8.762  1.00  0.00    -0.263 OA
HETATM    9  O   UNL     1      34.118   6.654  -5.474  1.00  0.00    -0.263 OA
HETATM   10  N   UNL     1      37.196   5.920 -11.844  1.00  0.00    -0.340 N 
HETATM   11  N   UNL     1      32.949   8.254  -8.537  1.00  0.00    -0.340 N 
HETATM   12  N   UNL     1      35.251   3.505  -8.083  1.00  0.00    -0.340 N 
HETATM   13  C   UNL     1      36.430   6.882 -12.664  1.00  0.00     0.190 C 
HETATM   14  C   UNL     1      33.384   8.253  -7.123  1.00  0.00     0.190 C 
HETATM   15  C   UNL     1      36.520   2.755  -7.984  1.00  0.00     0.190 C 
HETATM   16  C   UNL     1      38.499   5.391  -9.765  1.00  0.00     0.227 C 
HETATM   17  C   UNL     1      33.514   8.435 -10.986  1.00  0.00     0.227 C 
HETATM   18  C   UNL     1      33.195   4.494  -7.044  1.00  0.00     0.227 C 
HETATM   19  C   UNL     1      37.801   6.403 -10.670  1.00  0.00     0.250 C 
HETATM   20  C   UNL     1      35.037   6.925 -12.057  1.00  0.00     0.283 C 
HETATM   21  C   UNL     1      33.946   8.332  -9.521  1.00  0.00     0.250 C 
HETATM   22  C   UNL     1      34.625   3.949  -6.905  1.00  0.00     0.250 C 
HETATM   23  C   UNL     1      37.714   3.416  -8.668  1.00  0.00     0.283 C 
HETATM   24  C   UNL     1      33.623   6.847  -6.579  1.00  0.00     0.283 C 
HETATM   25  C   UNL     1      37.241   4.524 -12.290  1.00  0.00     0.153 C 
HETATM   26  C   UNL     1      31.516   8.136  -8.813  1.00  0.00     0.153 C 
HETATM   27  C   UNL     1      34.616   3.591  -9.399  1.00  0.00     0.153 C 
ENDROOT
BRANCH  17  28
HETATM   28  C   UNL     1      33.014   9.837 -11.302  1.00  0.00     0.016 C 
HETATM   29  C   UNL     1      33.882  10.887 -10.610  1.00  0.00     0.012 C 
HETATM   30  C   UNL     1      32.988  10.074 -12.811  1.00  0.00     0.012 C 
ENDBRANCH  17  28
BRANCH  13  31
HETATM   31  C   UNL     1      36.346   6.572 -14.154  1.00  0.00     0.014 C 
HETATM   32  C   UNL     1      35.160   7.314 -14.773  1.00  0.00     0.012 C 
BRANCH  31  33
HETATM   33  C   UNL     1      37.678   6.925 -14.840  1.00  0.00     0.002 C 
HETATM   34  C   UNL     1      38.272   8.248 -14.379  1.00  0.00     0.005 C 
ENDBRANCH  31  33
ENDBRANCH  13  31
BRANCH  14  35
HETATM   35  C   UNL     1      32.441   9.013  -6.190  1.00  0.00     0.010 C 
HETATM   36  C   UNL     1      31.726   8.050  -5.244  1.00  0.00     0.012 C 
HETATM   37  C   UNL     1      33.205  10.073  -5.397  1.00  0.00     0.012 C 
ENDBRANCH  14  35
BRANCH  16  38
HETATM   38  C   UNL     1      39.353   6.079  -8.703  1.00  0.00     0.016 C 
HETATM   39  C   UNL     1      40.742   5.447  -8.635  1.00  0.00     0.012 C 
HETATM   40  C   UNL     1      38.669   6.016  -7.338  1.00  0.00     0.012 C 
ENDBRANCH  16  38
BRANCH  18  41
HETATM   41  C   UNL     1      32.345   4.245  -5.799  1.00  0.00     0.016 C 
HETATM   42  C   UNL     1      32.374   2.767  -5.416  1.00  0.00     0.012 C 
HETATM   43  C   UNL     1      30.909   4.711  -6.028  1.00  0.00     0.012 C 
ENDBRANCH  18  41
BRANCH  15  44
HETATM   44  C   UNL     1      36.354   1.315  -8.469  1.00  0.00     0.010 C 
HETATM   45  C   UNL     1      34.998   0.760  -8.043  1.00  0.00     0.012 C 
HETATM   46  C   UNL     1      37.485   0.439  -7.939  1.00  0.00     0.012 C 
ENDBRANCH  15  44
TORSDOF 7
ENDMDL
MODEL 19
REMARK VINA RESULT:    -4.798      2.931      7.090
REMARK INTER + INTRA:          -5.840
REMARK INTER:                  -6.516
REMARK INTRA:                   0.676
REMARK UNBOUND:                 0.921
REMARK  7 active torsions:
REMARK  status: ('A' for Active; 'I' for Inactive)
REMARK    1  A    between atoms: C_13  and  C_14 
REMARK    2  A    between atoms: C_14  and  C_19 
REMARK    3  A    between atoms: C_15  and  C_20 
REMARK    4  A    between atoms: C_16  and  C_21 
REMARK    5  A    between atoms: C_17  and  C_23 
REMARK    6  A    between atoms: C_18  and  C_26 
REMARK    7  A    between atoms: C_22  and  C_28 
ROOT
HETATM    1  O   UNL     1      35.481   9.634  -6.262  1.00  0.00    -0.304 OA
HETATM    2  O   UNL     1      34.620   5.760  -9.659  1.00  0.00    -0.304 OA
HETATM    3  O   UNL     1      38.698   5.708  -7.269  1.00  0.00    -0.304 OA
HETATM    4  O   UNL     1      34.584   8.951  -9.537  1.00  0.00    -0.270 OA
HETATM    5  O   UNL     1      34.816   7.489  -5.737  1.00  0.00    -0.263 OA
HETATM    6  O   UNL     1      37.152   8.885  -8.096  1.00  0.00    -0.270 OA
HETATM    7  O   UNL     1      38.072   3.548  -9.605  1.00  0.00    -0.270 OA
HETATM    8  O   UNL     1      33.439   4.144 -10.789  1.00  0.00    -0.263 OA
HETATM    9  O   UNL     1      39.906   5.846  -9.224  1.00  0.00    -0.263 OA
HETATM   10  N   UNL     1      33.189   7.861  -8.037  1.00  0.00    -0.340 N 
HETATM   11  N   UNL     1      38.885   8.267  -6.693  1.00  0.00    -0.340 N 
HETATM   12  N   UNL     1      36.178   4.022  -8.340  1.00  0.00    -0.340 N 
HETATM   13  C   UNL     1      33.367   8.941  -7.045  1.00  0.00     0.190 C 
HETATM   14  C   UNL     1      39.687   7.817  -7.851  1.00  0.00     0.190 C 
HETATM   15  C   UNL     1      35.261   3.462  -9.355  1.00  0.00     0.190 C 
HETATM   16  C   UNL     1      33.800   6.800 -10.228  1.00  0.00     0.227 C 
HETATM   17  C   UNL     1      36.820   9.387  -5.780  1.00  0.00     0.227 C 
HETATM   18  C   UNL     1      38.467   4.290  -7.355  1.00  0.00     0.227 C 
HETATM   19  C   UNL     1      33.895   7.966  -9.249  1.00  0.00     0.250 C 
HETATM   20  C   UNL     1      34.615   8.578  -6.258  1.00  0.00     0.283 C 
HETATM   21  C   UNL     1      37.625   8.824  -6.955  1.00  0.00     0.250 C 
HETATM   22  C   UNL     1      37.565   3.926  -8.544  1.00  0.00     0.250 C 
HETATM   23  C   UNL     1      34.326   4.477 -10.008  1.00  0.00     0.283 C 
HETATM   24  C   UNL     1      39.437   6.354  -8.211  1.00  0.00     0.283 C 
HETATM   25  C   UNL     1      32.319   6.737  -7.677  1.00  0.00     0.153 C 
HETATM   26  C   UNL     1      39.443   8.066  -5.354  1.00  0.00     0.153 C 
HETATM   27  C   UNL     1      35.592   4.489  -7.082  1.00  0.00     0.153 C 
ENDROOT
BRANCH  17  28
HETATM   28  C   UNL     1      37.384  10.729  -5.337  1.00  0.00     0.016 C 
HETATM   29  C   UNL     1      36.431  11.864  -5.710  1.00  0.00     0.012 C 
HETATM   30  C   UNL     1      37.655  10.731  -3.833  1.00  0.00     0.012 C 
ENDBRANCH  17  28
BRANCH  13  31
HETATM   31  C   UNL     1      32.196   9.178  -6.097  1.00  0.00     0.014 C 
HETATM   32  C   UNL     1      32.631  10.096  -4.954  1.00  0.00     0.012 C 
BRANCH  31  33
HETATM   33  C   UNL     1      30.996   9.743  -6.876  1.00  0.00     0.002 C 
HETATM   34  C   UNL     1      29.661   9.131  -6.473  1.00  0.00     0.005 C 
ENDBRANCH  31  33
ENDBRANCH  13  31
BRANCH  14  35
HETATM   35  C   UNL     1      41.187   8.059  -7.692  1.00  0.00     0.010 C 
HETATM   36  C   UNL     1      41.927   6.740  -7.478  1.00  0.00     0.012 C 
HETATM   37  C   UNL     1      41.748   8.796  -8.908  1.00  0.00     0.012 C 
ENDBRANCH  14  35
BRANCH  16  38
HETATM   38  C   UNL     1      34.360   7.168 -11.600  1.00  0.00     0.016 C 
HETATM   39  C   UNL     1      33.367   6.805 -12.703  1.00  0.00     0.012 C 
HETATM   40  C   UNL     1      35.701   6.476 -11.839  1.00  0.00     0.012 C 
ENDBRANCH  16  38
BRANCH  18  41
HETATM   41  C   UNL     1      39.776   3.500  -7.343  1.00  0.00     0.016 C 
HETATM   42  C   UNL     1      39.502   2.006  -7.497  1.00  0.00     0.012 C 
HETATM   43  C   UNL     1      40.555   3.773  -6.059  1.00  0.00     0.012 C 
ENDBRANCH  18  41
BRANCH  15  44
HETATM   44  C   UNL     1      34.465   2.283  -8.794  1.00  0.00     0.010 C 
HETATM   45  C   UNL     1      34.483   1.112  -9.773  1.00  0.00     0.012 C 
HETATM   46  C   UNL     1      33.032   2.705  -8.486  1.00  0.00     0.012 C 
ENDBRANCH  15  44
TORSDOF 7
ENDMDL
MODEL 20
REMARK VINA RESULT:    -4.722      3.276      8.505
REMARK INTER + INTRA:          -5.732
REMARK INTER:                  -6.974
REMARK INTRA:                   1.241
REMARK UNBOUND:                 0.921
REMARK  7 active torsions:
REMARK  status: ('A' for Active; 'I' for Inactive)
REMARK    1  A    between atoms: C_13  and  C_14 
REMARK    2  A    between atoms: C_14  and  C_19 
REMARK    3  A    between atoms: C_15  and  C_20 
REMARK    4  A    between atoms: C_16  and  C_21 
REMARK    5  A    between atoms: C_17  and  C_23 
REMARK    6  A    between atoms: C_18  and  C_26 
REMARK    7  A    between atoms: C_22  and  C_28 
ROOT
HETATM    1  O   UNL     1      38.749  10.013  -7.952  1.00  0.00    -0.304 OA
HETATM    2  O   UNL     1      33.705  10.125  -6.596  1.00  0.00    -0.304 OA
HETATM    3  O   UNL     1      34.937   7.344 -10.214  1.00  0.00    -0.304 OA
HETATM    4  O   UNL     1      36.082  12.131  -7.324  1.00  0.00    -0.270 OA
HETATM    5  O   UNL     1      37.636   8.408  -6.726  1.00  0.00    -0.263 OA
HETATM    6  O   UNL     1      36.789  10.403  -9.602  1.00  0.00    -0.270 OA
HETATM    7  O   UNL     1      31.834   7.759  -9.373  1.00  0.00    -0.270 OA
HETATM    8  O   UNL     1      31.877  10.178  -5.206  1.00  0.00    -0.263 OA
HETATM    9  O   UNL     1      33.573   8.518 -11.650  1.00  0.00    -0.263 OA
HETATM   10  N   UNL     1      36.466  10.707  -5.532  1.00  0.00    -0.340 N 
HETATM   11  N   UNL     1      37.152   8.556 -10.946  1.00  0.00    -0.340 N 
HETATM   12  N   UNL     1      33.224   7.651  -7.511  1.00  0.00    -0.340 N 
HETATM   13  C   UNL     1      37.909  10.660  -5.845  1.00  0.00     0.190 C 
HETATM   14  C   UNL     1      35.955   8.882 -11.750  1.00  0.00     0.190 C 
HETATM   15  C   UNL     1      32.207   8.244  -6.617  1.00  0.00     0.190 C 
HETATM   16  C   UNL     1      34.135  11.420  -6.131  1.00  0.00     0.227 C 
HETATM   17  C   UNL     1      38.779   9.165  -9.121  1.00  0.00     0.227 C 
HETATM   18  C   UNL     1      33.882   6.538  -9.658  1.00  0.00     0.227 C 
HETATM   19  C   UNL     1      35.639  11.459  -6.386  1.00  0.00     0.250 C 
HETATM   20  C   UNL     1      38.076   9.542  -6.861  1.00  0.00     0.283 C 
HETATM   21  C   UNL     1      37.489   9.429  -9.902  1.00  0.00     0.250 C 
HETATM   22  C   UNL     1      32.885   7.379  -8.847  1.00  0.00     0.250 C 
HETATM   23  C   UNL     1      32.571   9.611  -6.044  1.00  0.00     0.283 C 
HETATM   24  C   UNL     1      34.681   8.247 -11.198  1.00  0.00     0.283 C 
HETATM   25  C   UNL     1      35.990   9.939  -4.377  1.00  0.00     0.153 C 
HETATM   26  C   UNL     1      37.881   7.327 -11.270  1.00  0.00     0.153 C 
HETATM   27  C   UNL     1      34.482   7.210  -6.906  1.00  0.00     0.153 C 
ENDROOT
BRANCH  17  28
HETATM   28  C   UNL     1      39.995   9.581  -9.936  1.00  0.00     0.016 C 
HETATM   29  C   UNL     1      40.483  10.965  -9.508  1.00  0.00     0.012 C 
HETATM   30  C   UNL     1      41.116   8.552  -9.797  1.00  0.00     0.012 C 
ENDBRANCH  17  28
BRANCH  13  31
HETATM   31  C   UNL     1      38.843  10.438  -4.660  1.00  0.00     0.014 C 
HETATM   32  C   UNL     1      40.218   9.993  -5.159  1.00  0.00     0.012 C 
BRANCH  31  33
HETATM   33  C   UNL     1      38.918  11.715  -3.805  1.00  0.00     0.002 C 
HETATM   34  C   UNL     1      39.119  12.986  -4.618  1.00  0.00     0.005 C 
ENDBRANCH  31  33
ENDBRANCH  13  31
BRANCH  14  35
HETATM   35  C   UNL     1      36.099   8.542 -13.234  1.00  0.00     0.010 C 
HETATM   36  C   UNL     1      35.155   7.405 -13.621  1.00  0.00     0.012 C 
HETATM   37  C   UNL     1      35.834   9.774 -14.099  1.00  0.00     0.012 C 
ENDBRANCH  14  35
BRANCH  16  38
HETATM   38  C   UNL     1      33.399  12.495  -6.927  1.00  0.00     0.016 C 
HETATM   39  C   UNL     1      33.358  12.134  -8.411  1.00  0.00     0.012 C 
HETATM   40  C   UNL     1      34.056  13.859  -6.726  1.00  0.00     0.012 C 
ENDBRANCH  16  38
BRANCH  18  41
HETATM   41  C   UNL     1      33.201   5.679 -10.722  1.00  0.00     0.016 C 
HETATM   42  C   UNL     1      32.150   4.771 -10.088  1.00  0.00     0.012 C 
HETATM   43  C   UNL     1      34.234   4.852 -11.485  1.00  0.00     0.012 C 
ENDBRANCH  18  41
BRANCH  15  44
HETATM   44  C   UNL     1      31.823   7.279  -5.495  1.00  0.00     0.010 C 
HETATM   45  C   UNL     1      32.967   7.140  -4.494  1.00  0.00     0.012 C 
HETATM   46  C   UNL     1      31.441   5.918  -6.069  1.00  0.00     0.012 C 
ENDBRANCH  15  44
TORSDOF 7
ENDMDL
