MODEL 1
REMARK VINA RESULT:    -6.233      0.000      0.000
REMARK INTER + INTRA:          -8.185
REMARK INTER:                  -8.783
REMARK INTRA:                   0.598
REMARK UNBOUND:                 0.598
REMARK  7 active torsions:
REMARK  status: ('A' for Active; 'I' for Inactive)
REMARK    1  A    between atoms: C_13  and  C_14 
REMARK    2  A    between atoms: C_14  and  C_19 
REMARK    3  A    between atoms: C_15  and  C_20 
REMARK    4  A    between atoms: C_16  and  C_21 
REMARK    5  A    between atoms: C_17  and  C_23 
REMARK    6  A    between atoms: C_18  and  C_26 
REMARK    7  A    between atoms: C_22  and  C_28 
ROOT
HETATM    1  O   UNL     1      63.005  48.177  18.178  1.00  0.00    -0.304 OA
HETATM    2  O   UNL     1      59.974  49.810  14.248  1.00  0.00    -0.304 OA
HETATM    3  O   UNL     1      59.134  51.592  18.545  1.00  0.00    -0.304 OA
HETATM    4  O   UNL     1      60.998  47.090  15.572  1.00  0.00    -0.270 OA
HETATM    5  O   UNL     1      63.188  50.189  17.066  1.00  0.00    -0.263 OA
HETATM    6  O   UNL     1      60.414  48.211  18.232  1.00  0.00    -0.270 OA
HETATM    7  O   UNL     1      57.216  52.272  16.022  1.00  0.00    -0.270 OA
HETATM    8  O   UNL     1      59.433  50.504  12.126  1.00  0.00    -0.263 OA
HETATM    9  O   UNL     1      57.000  50.729  18.544  1.00  0.00    -0.263 OA
HETATM   10  N   UNL     1      62.648  48.537  14.817  1.00  0.00    -0.340 N 
HETATM   11  N   UNL     1      60.167  49.669  20.011  1.00  0.00    -0.340 N 
HETATM   12  N   UNL     1      59.455  52.175  15.400  1.00  0.00    -0.340 N 
HETATM   13  C   UNL     1      63.564  48.094  15.888  1.00  0.00     0.190 C 
HETATM   14  C   UNL     1      58.696  49.632  19.862  1.00  0.00     0.190 C 
HETATM   15  C   UNL     1      59.134  52.046  13.963  1.00  0.00     0.190 C 
HETATM   16  C   UNL     1      60.373  48.516  13.756  1.00  0.00     0.227 C 
HETATM   17  C   UNL     1      62.443  48.819  19.344  1.00  0.00     0.227 C 
HETATM   18  C   UNL     1      58.810  52.749  17.753  1.00  0.00     0.227 C 
HETATM   19  C   UNL     1      61.357  47.979  14.791  1.00  0.00     0.250 C 
HETATM   20  C   UNL     1      63.248  48.967  17.091  1.00  0.00     0.283 C 
HETATM   21  C   UNL     1      60.926  48.873  19.141  1.00  0.00     0.250 C 
HETATM   22  C   UNL     1      58.410  52.369  16.320  1.00  0.00     0.250 C 
HETATM   23  C   UNL     1      59.538  50.717  13.330  1.00  0.00     0.283 C 
HETATM   24  C   UNL     1      58.173  50.696  18.899  1.00  0.00     0.283 C 
HETATM   25  C   UNL     1      63.132  49.555  13.879  1.00  0.00     0.153 C 
HETATM   26  C   UNL     1      60.730  50.558  21.030  1.00  0.00     0.153 C 
HETATM   27  C   UNL     1      60.867  52.276  15.772  1.00  0.00     0.153 C 
ENDROOT
BRANCH  17  28
HETATM   28  C   UNL     1      62.795  47.946  20.539  1.00  0.00     0.016 C 
HETATM   29  C   UNL     1      62.801  46.469  20.146  1.00  0.00     0.012 C 
HETATM   30  C   UNL     1      64.149  48.349  21.123  1.00  0.00     0.012 C 
ENDBRANCH  17  28
BRANCH  13  31
HETATM   31  C   UNL     1      65.052  48.162  15.564  1.00  0.00     0.014 C 
HETATM   32  C   UNL     1      65.862  48.245  16.859  1.00  0.00     0.012 C 
BRANCH  31  33
HETATM   33  C   UNL     1      65.457  46.955  14.699  1.00  0.00     0.002 C 
HETATM   34  C   UNL     1      64.790  45.652  15.115  1.00  0.00     0.005 C 
ENDBRANCH  31  33
ENDBRANCH  13  31
BRANCH  14  35
HETATM   35  C   UNL     1      57.940  49.721  21.187  1.00  0.00     0.010 C 
HETATM   36  C   UNL     1      57.406  51.134  21.410  1.00  0.00     0.012 C 
HETATM   37  C   UNL     1      56.799  48.705  21.228  1.00  0.00     0.012 C 
ENDBRANCH  14  35
BRANCH  16  38
HETATM   38  C   UNL     1      59.133  47.632  13.644  1.00  0.00     0.016 C 
HETATM   39  C   UNL     1      58.870  47.255  12.187  1.00  0.00     0.012 C 
HETATM   40  C   UNL     1      57.916  48.332  14.244  1.00  0.00     0.012 C 
ENDBRANCH  16  38
BRANCH  18  41
HETATM   41  C   UNL     1      57.773  53.636  18.440  1.00  0.00     0.016 C 
HETATM   42  C   UNL     1      57.399  54.815  17.546  1.00  0.00     0.012 C 
HETATM   43  C   UNL     1      58.296  54.128  19.788  1.00  0.00     0.012 C 
ENDBRANCH  18  41
BRANCH  15  44
HETATM   44  C   UNL     1      59.702  53.216  13.159  1.00  0.00     0.010 C 
HETATM   45  C   UNL     1      58.650  53.767  12.201  1.00  0.00     0.012 C 
HETATM   46  C   UNL     1      60.952  52.784  12.398  1.00  0.00     0.012 C 
ENDBRANCH  15  44
TORSDOF 7
ENDMDL
MODEL 2
REMARK VINA RESULT:    -5.737     17.788     21.353
REMARK INTER + INTRA:          -7.487
REMARK INTER:                  -8.287
REMARK INTRA:                   0.800
REMARK UNBOUND:                 0.598
REMARK  7 active torsions:
REMARK  status: ('A' for Active; 'I' for Inactive)
REMARK    1  A    between atoms: C_13  and  C_14 
REMARK    2  A    between atoms: C_14  and  C_19 
REMARK    3  A    between atoms: C_15  and  C_20 
REMARK    4  A    between atoms: C_16  and  C_21 
REMARK    5  A    between atoms: C_17  and  C_23 
REMARK    6  A    between atoms: C_18  and  C_26 
REMARK    7  A    between atoms: C_22  and  C_28 
ROOT
HETATM    1  O   UNL     1      44.312  55.039  28.057  1.00  0.00    -0.304 OA
HETATM    2  O   UNL     1      45.646  50.565  30.401  1.00  0.00    -0.304 OA
HETATM    3  O   UNL     1      47.647  54.546  31.983  1.00  0.00    -0.304 OA
HETATM    4  O   UNL     1      45.454  51.822  27.471  1.00  0.00    -0.270 OA
HETATM    5  O   UNL     1      43.531  54.286  30.091  1.00  0.00    -0.263 OA
HETATM    6  O   UNL     1      46.750  54.267  28.478  1.00  0.00    -0.270 OA
HETATM    7  O   UNL     1      48.521  51.639  33.121  1.00  0.00    -0.270 OA
HETATM    8  O   UNL     1      45.364  48.477  31.316  1.00  0.00    -0.263 OA
HETATM    9  O   UNL     1      49.746  53.763  31.455  1.00  0.00    -0.263 OA
HETATM   10  N   UNL     1      43.486  51.806  28.702  1.00  0.00    -0.340 N 
HETATM   11  N   UNL     1      47.398  56.031  29.828  1.00  0.00    -0.340 N 
HETATM   12  N   UNL     1      46.231  51.757  32.731  1.00  0.00    -0.340 N 
HETATM   13  C   UNL     1      43.038  53.054  28.051  1.00  0.00     0.190 C 
HETATM   14  C   UNL     1      48.728  55.416  30.024  1.00  0.00     0.190 C 
HETATM   15  C   UNL     1      46.069  50.288  32.752  1.00  0.00     0.190 C 
HETATM   16  C   UNL     1      45.265  50.080  29.099  1.00  0.00     0.227 C 
HETATM   17  C   UNL     1      45.148  56.031  28.692  1.00  0.00     0.227 C 
HETATM   18  C   UNL     1      47.548  53.831  33.228  1.00  0.00     0.227 C 
HETATM   19  C   UNL     1      44.752  51.305  28.348  1.00  0.00     0.250 C 
HETATM   20  C   UNL     1      43.629  54.186  28.875  1.00  0.00     0.283 C 
HETATM   21  C   UNL     1      46.494  55.363  28.989  1.00  0.00     0.250 C 
HETATM   22  C   UNL     1      47.491  52.311  33.015  1.00  0.00     0.250 C 
HETATM   23  C   UNL     1      45.641  49.668  31.425  1.00  0.00     0.283 C 
HETATM   24  C   UNL     1      48.770  54.468  31.220  1.00  0.00     0.283 C 
HETATM   25  C   UNL     1      42.599  51.196  29.698  1.00  0.00     0.153 C 
HETATM   26  C   UNL     1      47.103  57.272  30.548  1.00  0.00     0.153 C 
HETATM   27  C   UNL     1      45.021  52.569  32.591  1.00  0.00     0.153 C 
ENDROOT
BRANCH  17  28
HETATM   28  C   UNL     1      45.321  57.167  27.694  1.00  0.00     0.016 C 
HETATM   29  C   UNL     1      45.171  56.654  26.263  1.00  0.00     0.012 C 
HETATM   30  C   UNL     1      44.316  58.285  27.970  1.00  0.00     0.012 C 
ENDBRANCH  17  28
BRANCH  13  31
HETATM   31  C   UNL     1      41.530  53.233  27.915  1.00  0.00     0.014 C 
HETATM   32  C   UNL     1      41.152  54.688  28.198  1.00  0.00     0.012 C 
BRANCH  31  33
HETATM   33  C   UNL     1      41.070  52.770  26.522  1.00  0.00     0.002 C 
HETATM   34  C   UNL     1      42.211  52.343  25.610  1.00  0.00     0.005 C 
ENDBRANCH  31  33
ENDBRANCH  13  31
BRANCH  14  35
HETATM   35  C   UNL     1      49.865  56.432  30.133  1.00  0.00     0.010 C 
HETATM   36  C   UNL     1      50.401  56.493  31.562  1.00  0.00     0.012 C 
HETATM   37  C   UNL     1      50.989  56.092  29.155  1.00  0.00     0.012 C 
ENDBRANCH  14  35
BRANCH  16  38
HETATM   38  C   UNL     1      46.493  49.476  28.423  1.00  0.00     0.016 C 
HETATM   39  C   UNL     1      46.241  48.016  28.051  1.00  0.00     0.012 C 
HETATM   40  C   UNL     1      47.719  49.594  29.327  1.00  0.00     0.012 C 
ENDBRANCH  16  38
BRANCH  18  41
HETATM   41  C   UNL     1      48.640  54.249  34.211  1.00  0.00     0.016 C 
HETATM   42  C   UNL     1      48.532  53.448  35.507  1.00  0.00     0.012 C 
HETATM   43  C   UNL     1      48.559  55.747  34.499  1.00  0.00     0.012 C 
ENDBRANCH  18  41
BRANCH  15  44
HETATM   44  C   UNL     1      45.131  49.849  33.877  1.00  0.00     0.010 C 
HETATM   45  C   UNL     1      45.728  48.671  34.641  1.00  0.00     0.012 C 
HETATM   46  C   UNL     1      43.758  49.489  33.316  1.00  0.00     0.012 C 
ENDBRANCH  15  44
TORSDOF 7
ENDMDL
MODEL 3
REMARK VINA RESULT:    -5.612      2.188      7.801
REMARK INTER + INTRA:          -7.310
REMARK INTER:                  -7.987
REMARK INTRA:                   0.677
REMARK UNBOUND:                 0.598
REMARK  7 active torsions:
REMARK  status: ('A' for Active; 'I' for Inactive)
REMARK    1  A    between atoms: C_13  and  C_14 
REMARK    2  A    between atoms: C_14  and  C_19 
REMARK    3  A    between atoms: C_15  and  C_20 
REMARK    4  A    between atoms: C_16  and  C_21 
REMARK    5  A    between atoms: C_17  and  C_23 
REMARK    6  A    between atoms: C_18  and  C_26 
REMARK    7  A    between atoms: C_22  and  C_28 
ROOT
HETATM    1  O   UNL     1      58.474  50.631  17.538  1.00  0.00    -0.304 OA
HETATM    2  O   UNL     1      63.213  49.118  19.134  1.00  0.00    -0.304 OA
HETATM    3  O   UNL     1      62.728  50.373  14.602  1.00  0.00    -0.304 OA
HETATM    4  O   UNL     1      60.183  48.107  19.183  1.00  0.00    -0.270 OA
HETATM    5  O   UNL     1      60.250  52.018  18.029  1.00  0.00    -0.263 OA
HETATM    6  O   UNL     1      59.932  48.852  16.344  1.00  0.00    -0.270 OA
HETATM    7  O   UNL     1      65.512  49.162  15.739  1.00  0.00    -0.270 OA
HETATM    8  O   UNL     1      65.030  48.935  20.528  1.00  0.00    -0.263 OA
HETATM    9  O   UNL     1      63.364  48.276  13.898  1.00  0.00    -0.263 OA
HETATM   10  N   UNL     1      60.582  50.172  20.164  1.00  0.00    -0.340 N 
HETATM   11  N   UNL     1      60.149  49.947  14.318  1.00  0.00    -0.340 N 
HETATM   12  N   UNL     1      64.493  50.574  17.282  1.00  0.00    -0.340 N 
HETATM   13  C   UNL     1      59.241  50.648  19.769  1.00  0.00     0.190 C 
HETATM   14  C   UNL     1      61.029  48.873  13.810  1.00  0.00     0.190 C 
HETATM   15  C   UNL     1      65.303  50.061  18.407  1.00  0.00     0.190 C 
HETATM   16  C   UNL     1      62.379  48.421  20.080  1.00  0.00     0.227 C 
HETATM   17  C   UNL     1      58.635  50.850  16.119  1.00  0.00     0.227 C 
HETATM   18  C   UNL     1      64.067  50.850  14.827  1.00  0.00     0.227 C 
HETATM   19  C   UNL     1      60.955  48.874  19.769  1.00  0.00     0.250 C 
HETATM   20  C   UNL     1      59.398  51.206  18.364  1.00  0.00     0.283 C 
HETATM   21  C   UNL     1      59.627  49.800  15.612  1.00  0.00     0.250 C 
HETATM   22  C   UNL     1      64.754  50.106  15.983  1.00  0.00     0.250 C 
HETATM   23  C   UNL     1      64.513  49.323  19.485  1.00  0.00     0.283 C 
HETATM   24  C   UNL     1      62.504  49.122  14.119  1.00  0.00     0.283 C 
HETATM   25  C   UNL     1      61.446  51.095  20.907  1.00  0.00     0.153 C 
HETATM   26  C   UNL     1      59.912  51.105  13.453  1.00  0.00     0.153 C 
HETATM   27  C   UNL     1      63.579  51.683  17.557  1.00  0.00     0.153 C 
ENDROOT
BRANCH  17  28
HETATM   28  C   UNL     1      57.267  50.648  15.484  1.00  0.00     0.016 C 
HETATM   29  C   UNL     1      56.308  49.984  16.471  1.00  0.00     0.012 C 
HETATM   30  C   UNL     1      56.697  51.979  14.997  1.00  0.00     0.012 C 
ENDBRANCH  17  28
BRANCH  13  31
HETATM   31  C   UNL     1      58.606  51.692  20.682  1.00  0.00     0.014 C 
HETATM   32  C   UNL     1      57.639  52.564  19.880  1.00  0.00     0.012 C 
BRANCH  31  33
HETATM   33  C   UNL     1      57.920  50.999  21.872  1.00  0.00     0.002 C 
HETATM   34  C   UNL     1      57.400  49.605  21.553  1.00  0.00     0.005 C 
ENDBRANCH  31  33
ENDBRANCH  13  31
BRANCH  14  35
HETATM   35  C   UNL     1      60.856  48.590  12.318  1.00  0.00     0.010 C 
HETATM   36  C   UNL     1      62.083  49.050  11.535  1.00  0.00     0.012 C 
HETATM   37  C   UNL     1      60.595  47.103  12.077  1.00  0.00     0.012 C 
ENDBRANCH  14  35
BRANCH  16  38
HETATM   38  C   UNL     1      62.551  46.918  19.869  1.00  0.00     0.016 C 
HETATM   39  C   UNL     1      63.316  46.295  21.035  1.00  0.00     0.012 C 
HETATM   40  C   UNL     1      63.266  46.637  18.549  1.00  0.00     0.012 C 
ENDBRANCH  16  38
BRANCH  18  41
HETATM   41  C   UNL     1      64.896  50.842  13.544  1.00  0.00     0.016 C 
HETATM   42  C   UNL     1      66.319  51.320  13.821  1.00  0.00     0.012 C 
HETATM   43  C   UNL     1      64.237  51.710  12.474  1.00  0.00     0.012 C 
ENDBRANCH  18  41
BRANCH  15  44
HETATM   44  C   UNL     1      66.153  51.168  19.030  1.00  0.00     0.010 C 
HETATM   45  C   UNL     1      66.743  52.064  17.945  1.00  0.00     0.012 C 
HETATM   46  C   UNL     1      67.259  50.569  19.895  1.00  0.00     0.012 C 
ENDBRANCH  15  44
TORSDOF 7
ENDMDL
MODEL 4
REMARK VINA RESULT:    -5.571      2.120      5.532
REMARK INTER + INTRA:          -7.252
REMARK INTER:                  -8.018
REMARK INTRA:                   0.766
REMARK UNBOUND:                 0.598
REMARK  7 active torsions:
REMARK  status: ('A' for Active; 'I' for Inactive)
REMARK    1  A    between atoms: C_13  and  C_14 
REMARK    2  A    between atoms: C_14  and  C_19 
REMARK    3  A    between atoms: C_15  and  C_20 
REMARK    4  A    between atoms: C_16  and  C_21 
REMARK    5  A    between atoms: C_17  and  C_23 
REMARK    6  A    between atoms: C_18  and  C_26 
REMARK    7  A    between atoms: C_22  and  C_28 
ROOT
HETATM    1  O   UNL     1      61.432  49.791  20.222  1.00  0.00    -0.304 OA
HETATM    2  O   UNL     1      63.880  47.542  16.192  1.00  0.00    -0.304 OA
HETATM    3  O   UNL     1      60.829  51.023  15.232  1.00  0.00    -0.304 OA
HETATM    4  O   UNL     1      62.160  46.736  18.760  1.00  0.00    -0.270 OA
HETATM    5  O   UNL     1      63.228  50.661  19.066  1.00  0.00    -0.263 OA
HETATM    6  O   UNL     1      60.250  48.880  18.103  1.00  0.00    -0.270 OA
HETATM    7  O   UNL     1      62.260  49.323  12.872  1.00  0.00    -0.270 OA
HETATM    8  O   UNL     1      65.612  46.601  15.012  1.00  0.00    -0.263 OA
HETATM    9  O   UNL     1      59.523  49.603  13.975  1.00  0.00    -0.263 OA
HETATM   10  N   UNL     1      64.092  47.955  19.171  1.00  0.00    -0.340 N 
HETATM   11  N   UNL     1      59.329  50.878  17.387  1.00  0.00    -0.340 N 
HETATM   12  N   UNL     1      63.711  49.726  14.645  1.00  0.00    -0.340 N 
HETATM   13  C   UNL     1      63.466  48.602  20.342  1.00  0.00     0.190 C 
HETATM   14  C   UNL     1      58.778  50.215  16.186  1.00  0.00     0.190 C 
HETATM   15  C   UNL     1      64.656  48.673  14.217  1.00  0.00     0.190 C 
HETATM   16  C   UNL     1      63.913  46.470  17.155  1.00  0.00     0.227 C 
HETATM   17  C   UNL     1      60.521  50.725  19.602  1.00  0.00     0.227 C 
HETATM   18  C   UNL     1      61.792  51.273  14.193  1.00  0.00     0.227 C 
HETATM   19  C   UNL     1      63.307  47.055  18.427  1.00  0.00     0.250 C 
HETATM   20  C   UNL     1      62.731  49.816  19.800  1.00  0.00     0.283 C 
HETATM   21  C   UNL     1      60.029  50.080  18.304  1.00  0.00     0.250 C 
HETATM   22  C   UNL     1      62.596  50.013  13.840  1.00  0.00     0.250 C 
HETATM   23  C   UNL     1      64.789  47.496  15.179  1.00  0.00     0.283 C 
HETATM   24  C   UNL     1      59.750  50.225  15.008  1.00  0.00     0.283 C 
HETATM   25  C   UNL     1      65.474  48.321  18.843  1.00  0.00     0.153 C 
HETATM   26  C   UNL     1      59.138  52.324  17.520  1.00  0.00     0.153 C 
HETATM   27  C   UNL     1      64.086  50.543  15.800  1.00  0.00     0.153 C 
ENDROOT
BRANCH  17  28
HETATM   28  C   UNL     1      59.367  50.926  20.574  1.00  0.00     0.016 C 
HETATM   29  C   UNL     1      58.720  49.587  20.926  1.00  0.00     0.012 C 
HETATM   30  C   UNL     1      59.844  51.639  21.838  1.00  0.00     0.012 C 
ENDBRANCH  17  28
BRANCH  13  31
HETATM   31  C   UNL     1      64.414  49.018  21.462  1.00  0.00     0.014 C 
HETATM   32  C   UNL     1      63.727  50.037  22.372  1.00  0.00     0.012 C 
BRANCH  31  33
HETATM   33  C   UNL     1      64.891  47.775  22.234  1.00  0.00     0.002 C 
HETATM   34  C   UNL     1      63.913  46.609  22.183  1.00  0.00     0.005 C 
ENDBRANCH  31  33
ENDBRANCH  13  31
BRANCH  14  35
HETATM   35  C   UNL     1      57.425  50.772  15.742  1.00  0.00     0.010 C 
HETATM   36  C   UNL     1      57.515  51.346  14.329  1.00  0.00     0.012 C 
HETATM   37  C   UNL     1      56.347  49.691  15.813  1.00  0.00     0.012 C 
ENDBRANCH  14  35
BRANCH  16  38
HETATM   38  C   UNL     1      63.085  45.305  16.619  1.00  0.00     0.016 C 
HETATM   39  C   UNL     1      63.979  44.105  16.311  1.00  0.00     0.012 C 
HETATM   40  C   UNL     1      62.305  45.725  15.375  1.00  0.00     0.012 C 
ENDBRANCH  16  38
BRANCH  18  41
HETATM   41  C   UNL     1      61.151  51.926  12.969  1.00  0.00     0.016 C 
HETATM   42  C   UNL     1      62.202  52.204  11.897  1.00  0.00     0.012 C 
HETATM   43  C   UNL     1      60.432  53.215  13.364  1.00  0.00     0.012 C 
ENDBRANCH  18  41
BRANCH  15  44
HETATM   44  C   UNL     1      66.031  49.259  13.894  1.00  0.00     0.010 C 
HETATM   45  C   UNL     1      66.559  48.691  12.579  1.00  0.00     0.012 C 
HETATM   46  C   UNL     1      67.010  48.984  15.032  1.00  0.00     0.012 C 
ENDBRANCH  15  44
TORSDOF 7
ENDMDL
MODEL 5
REMARK VINA RESULT:    -5.450      2.388      6.729
REMARK INTER + INTRA:          -7.082
REMARK INTER:                  -7.717
REMARK INTRA:                   0.634
REMARK UNBOUND:                 0.598
REMARK  7 active torsions:
REMARK  status: ('A' for Active; 'I' for Inactive)
REMARK    1  A    between atoms: C_13  and  C_14 
REMARK    2  A    between atoms: C_14  and  C_19 
REMARK    3  A    between atoms: C_15  and  C_20 
REMARK    4  A    between atoms: C_16  and  C_21 
REMARK    5  A    between atoms: C_17  and  C_23 
REMARK    6  A    between atoms: C_18  and  C_26 
REMARK    7  A    between atoms: C_22  and  C_28 
ROOT
HETATM    1  O   UNL     1      58.731  50.263  18.772  1.00  0.00    -0.304 OA
HETATM    2  O   UNL     1      62.235  52.777  15.823  1.00  0.00    -0.304 OA
HETATM    3  O   UNL     1      63.779  49.169  18.458  1.00  0.00    -0.304 OA
HETATM    4  O   UNL     1      59.975  53.400  17.993  1.00  0.00    -0.270 OA
HETATM    5  O   UNL     1      59.588  49.532  16.760  1.00  0.00    -0.263 OA
HETATM    6  O   UNL     1      60.997  51.179  19.636  1.00  0.00    -0.270 OA
HETATM    7  O   UNL     1      65.822  51.023  16.756  1.00  0.00    -0.270 OA
HETATM    8  O   UNL     1      63.082  53.851  13.977  1.00  0.00    -0.263 OA
HETATM    9  O   UNL     1      65.204  50.557  19.617  1.00  0.00    -0.263 OA
HETATM   10  N   UNL     1      59.273  52.276  16.088  1.00  0.00    -0.340 N 
HETATM   11  N   UNL     1      61.906  49.159  20.303  1.00  0.00    -0.340 N 
HETATM   12  N   UNL     1      63.839  50.641  15.600  1.00  0.00    -0.340 N 
HETATM   13  C   UNL     1      58.240  51.556  16.862  1.00  0.00     0.190 C 
HETATM   14  C   UNL     1      63.167  49.831  20.684  1.00  0.00     0.190 C 
HETATM   15  C   UNL     1      64.077  51.757  14.661  1.00  0.00     0.190 C 
HETATM   16  C   UNL     1      61.254  53.816  16.015  1.00  0.00     0.227 C 
HETATM   17  C   UNL     1      59.518  49.302  19.509  1.00  0.00     0.227 C 
HETATM   18  C   UNL     1      64.647  49.007  17.321  1.00  0.00     0.227 C 
HETATM   19  C   UNL     1      60.117  53.156  16.790  1.00  0.00     0.250 C 
HETATM   20  C   UNL     1      58.929  50.323  17.422  1.00  0.00     0.283 C 
HETATM   21  C   UNL     1      60.865  49.963  19.815  1.00  0.00     0.250 C 
HETATM   22  C   UNL     1      64.828  50.321  16.546  1.00  0.00     0.250 C 
HETATM   23  C   UNL     1      63.077  52.907  14.761  1.00  0.00     0.283 C 
HETATM   24  C   UNL     1      64.164  49.914  19.530  1.00  0.00     0.283 C 
HETATM   25  C   UNL     1      59.371  51.997  14.652  1.00  0.00     0.153 C 
HETATM   26  C   UNL     1      61.842  47.701  20.427  1.00  0.00     0.153 C 
HETATM   27  C   UNL     1      62.658  49.807  15.376  1.00  0.00     0.153 C 
ENDROOT
BRANCH  17  28
HETATM   28  C   UNL     1      58.761  49.006  20.796  1.00  0.00     0.016 C 
HETATM   29  C   UNL     1      58.154  50.285  21.370  1.00  0.00     0.012 C 
HETATM   30  C   UNL     1      57.674  47.959  20.553  1.00  0.00     0.012 C 
ENDBRANCH  17  28
BRANCH  13  31
HETATM   31  C   UNL     1      56.987  51.156  16.092  1.00  0.00     0.014 C 
HETATM   32  C   UNL     1      56.248  50.047  16.843  1.00  0.00     0.012 C 
BRANCH  31  33
HETATM   33  C   UNL     1      56.100  52.390  15.853  1.00  0.00     0.002 C 
HETATM   34  C   UNL     1      55.598  52.516  14.422  1.00  0.00     0.005 C 
ENDBRANCH  31  33
ENDBRANCH  13  31
BRANCH  14  35
HETATM   35  C   UNL     1      63.846  49.217  21.908  1.00  0.00     0.010 C 
HETATM   36  C   UNL     1      65.210  48.639  21.535  1.00  0.00     0.012 C 
HETATM   37  C   UNL     1      63.990  50.253  23.022  1.00  0.00     0.012 C 
ENDBRANCH  14  35
BRANCH  16  38
HETATM   38  C   UNL     1      61.894  54.951  16.810  1.00  0.00     0.016 C 
HETATM   39  C   UNL     1      62.035  56.202  15.944  1.00  0.00     0.012 C 
HETATM   40  C   UNL     1      63.253  54.525  17.360  1.00  0.00     0.012 C 
ENDBRANCH  16  38
BRANCH  18  41
HETATM   41  C   UNL     1      65.976  48.362  17.709  1.00  0.00     0.016 C 
HETATM   42  C   UNL     1      66.857  48.166  16.477  1.00  0.00     0.012 C 
HETATM   43  C   UNL     1      65.740  47.029  18.416  1.00  0.00     0.012 C 
ENDBRANCH  18  41
BRANCH  15  44
HETATM   44  C   UNL     1      64.177  51.258  13.219  1.00  0.00     0.010 C 
HETATM   45  C   UNL     1      65.376  51.890  12.517  1.00  0.00     0.012 C 
HETATM   46  C   UNL     1      62.888  51.559  12.460  1.00  0.00     0.012 C 
ENDBRANCH  15  44
TORSDOF 7
ENDMDL
MODEL 6
REMARK VINA RESULT:    -5.391      2.060      6.684
REMARK INTER + INTRA:          -6.999
REMARK INTER:                  -7.607
REMARK INTRA:                   0.608
REMARK UNBOUND:                 0.598
REMARK  7 active torsions:
REMARK  status: ('A' for Active; 'I' for Inactive)
REMARK    1  A    between atoms: C_13  and  C_14 
REMARK    2  A    between atoms: C_14  and  C_19 
REMARK    3  A    between atoms: C_15  and  C_20 
REMARK    4  A    between atoms: C_16  and  C_21 
REMARK    5  A    between atoms: C_17  and  C_23 
REMARK    6  A    between atoms: C_18  and  C_26 
REMARK    7  A    between atoms: C_22  and  C_28 
ROOT
HETATM    1  O   UNL     1      58.446  51.170  17.271  1.00  0.00    -0.304 OA
HETATM    2  O   UNL     1      62.098  49.971  13.733  1.00  0.00    -0.304 OA
HETATM    3  O   UNL     1      61.932  47.367  17.674  1.00  0.00    -0.304 OA
HETATM    4  O   UNL     1      61.005  52.499  15.351  1.00  0.00    -0.270 OA
HETATM    5  O   UNL     1      58.362  49.421  15.771  1.00  0.00    -0.263 OA
HETATM    6  O   UNL     1      60.964  50.862  17.800  1.00  0.00    -0.270 OA
HETATM    7  O   UNL     1      64.274  46.961  15.470  1.00  0.00    -0.270 OA
HETATM    8  O   UNL     1      63.011  49.620  11.654  1.00  0.00    -0.263 OA
HETATM    9  O   UNL     1      64.074  47.993  18.241  1.00  0.00    -0.263 OA
HETATM   10  N   UNL     1      59.452  51.387  14.032  1.00  0.00    -0.340 N 
HETATM   11  N   UNL     1      60.751  49.090  19.271  1.00  0.00    -0.340 N 
HETATM   12  N   UNL     1      62.218  47.397  14.472  1.00  0.00    -0.340 N 
HETATM   13  C   UNL     1      58.369  51.722  14.979  1.00  0.00     0.190 C 
HETATM   14  C   UNL     1      62.220  49.002  19.409  1.00  0.00     0.190 C 
HETATM   15  C   UNL     1      62.831  47.750  13.175  1.00  0.00     0.190 C 
HETATM   16  C   UNL     1      61.892  51.367  13.440  1.00  0.00     0.227 C 
HETATM   17  C   UNL     1      58.717  50.274  18.372  1.00  0.00     0.227 C 
HETATM   18  C   UNL     1      62.334  46.345  16.744  1.00  0.00     0.227 C 
HETATM   19  C   UNL     1      60.755  51.806  14.358  1.00  0.00     0.250 C 
HETATM   20  C   UNL     1      58.377  50.618  16.024  1.00  0.00     0.283 C 
HETATM   21  C   UNL     1      60.236  50.103  18.449  1.00  0.00     0.250 C 
HETATM   22  C   UNL     1      63.040  46.934  15.514  1.00  0.00     0.250 C 
HETATM   23  C   UNL     1      62.651  49.205  12.752  1.00  0.00     0.283 C 
HETATM   24  C   UNL     1      62.857  48.081  18.370  1.00  0.00     0.283 C 
HETATM   25  C   UNL     1      59.103  50.611  12.838  1.00  0.00     0.153 C 
HETATM   26  C   UNL     1      59.936  48.093  19.971  1.00  0.00     0.153 C 
HETATM   27  C   UNL     1      60.756  47.375  14.546  1.00  0.00     0.153 C 
ENDROOT
BRANCH  17  28
HETATM   28  C   UNL     1      58.187  50.949  19.629  1.00  0.00     0.016 C 
HETATM   29  C   UNL     1      57.954  52.439  19.384  1.00  0.00     0.012 C 
HETATM   30  C   UNL     1      56.899  50.276  20.101  1.00  0.00     0.012 C 
ENDBRANCH  17  28
BRANCH  13  31
HETATM   31  C   UNL     1      56.976  51.866  14.377  1.00  0.00     0.014 C 
HETATM   32  C   UNL     1      55.925  51.854  15.488  1.00  0.00     0.012 C 
BRANCH  31  33
HETATM   33  C   UNL     1      56.904  53.142  13.519  1.00  0.00     0.002 C 
HETATM   34  C   UNL     1      56.167  52.953  12.201  1.00  0.00     0.005 C 
ENDBRANCH  31  33
ENDBRANCH  13  31
BRANCH  14  35
HETATM   35  C   UNL     1      62.684  48.599  20.808  1.00  0.00     0.010 C 
HETATM   36  C   UNL     1      63.263  47.185  20.799  1.00  0.00     0.012 C 
HETATM   37  C   UNL     1      63.714  49.594  21.344  1.00  0.00     0.012 C 
ENDBRANCH  14  35
BRANCH  16  38
HETATM   38  C   UNL     1      63.183  52.125  13.737  1.00  0.00     0.016 C 
HETATM   39  C   UNL     1      63.819  52.635  12.445  1.00  0.00     0.012 C 
HETATM   40  C   UNL     1      64.163  51.240  14.504  1.00  0.00     0.012 C 
ENDBRANCH  16  38
BRANCH  18  41
HETATM   41  C   UNL     1      63.151  45.247  17.425  1.00  0.00     0.016 C 
HETATM   42  C   UNL     1      63.506  44.147  16.427  1.00  0.00     0.012 C 
HETATM   43  C   UNL     1      62.387  44.668  18.613  1.00  0.00     0.012 C 
ENDBRANCH  18  41
BRANCH  15  44
HETATM   44  C   UNL     1      62.363  46.808  12.064  1.00  0.00     0.010 C 
HETATM   45  C   UNL     1      63.549  46.342  11.224  1.00  0.00     0.012 C 
HETATM   46  C   UNL     1      61.318  47.493  11.189  1.00  0.00     0.012 C 
ENDBRANCH  15  44
TORSDOF 7
ENDMDL
MODEL 7
REMARK VINA RESULT:    -5.212     19.201     24.105
REMARK INTER + INTRA:          -6.747
REMARK INTER:                  -7.736
REMARK INTRA:                   0.988
REMARK UNBOUND:                 0.598
REMARK  7 active torsions:
REMARK  status: ('A' for Active; 'I' for Inactive)
REMARK    1  A    between atoms: C_13  and  C_14 
REMARK    2  A    between atoms: C_14  and  C_19 
REMARK    3  A    between atoms: C_15  and  C_20 
REMARK    4  A    between atoms: C_16  and  C_21 
REMARK    5  A    between atoms: C_17  and  C_23 
REMARK    6  A    between atoms: C_18  and  C_26 
REMARK    7  A    between atoms: C_22  and  C_28 
ROOT
HETATM    1  O   UNL     1      42.297  52.723  28.211  1.00  0.00    -0.304 OA
HETATM    2  O   UNL     1      40.951  50.517  32.752  1.00  0.00    -0.304 OA
HETATM    3  O   UNL     1      45.363  52.163  32.342  1.00  0.00    -0.304 OA
HETATM    4  O   UNL     1      40.890  49.889  29.620  1.00  0.00    -0.270 OA
HETATM    5  O   UNL     1      41.757  53.838  30.156  1.00  0.00    -0.263 OA
HETATM    6  O   UNL     1      43.659  50.872  29.410  1.00  0.00    -0.270 OA
HETATM    7  O   UNL     1      44.398  50.533  34.973  1.00  0.00    -0.270 OA
HETATM    8  O   UNL     1      39.626  50.005  34.557  1.00  0.00    -0.263 OA
HETATM    9  O   UNL     1      46.236  50.062  32.696  1.00  0.00    -0.263 OA
HETATM   10  N   UNL     1      39.773  51.808  30.295  1.00  0.00    -0.340 N 
HETATM   11  N   UNL     1      45.605  52.083  29.725  1.00  0.00    -0.340 N 
HETATM   12  N   UNL     1      42.728  51.939  34.169  1.00  0.00    -0.340 N 
HETATM   13  C   UNL     1      40.094  52.476  29.016  1.00  0.00     0.190 C 
HETATM   14  C   UNL     1      46.215  50.950  30.453  1.00  0.00     0.190 C 
HETATM   15  C   UNL     1      41.666  51.246  34.929  1.00  0.00     0.190 C 
HETATM   16  C   UNL     1      40.036  49.859  31.854  1.00  0.00     0.227 C 
HETATM   17  C   UNL     1      43.700  53.027  28.372  1.00  0.00     0.227 C 
HETATM   18  C   UNL     1      45.142  52.451  33.734  1.00  0.00     0.227 C 
HETATM   19  C   UNL     1      40.271  50.508  30.493  1.00  0.00     0.250 C 
HETATM   20  C   UNL     1      41.458  53.115  29.215  1.00  0.00     0.283 C 
HETATM   21  C   UNL     1      44.311  51.904  29.214  1.00  0.00     0.250 C 
HETATM   22  C   UNL     1      44.065  51.543  34.344  1.00  0.00     0.250 C 
HETATM   23  C   UNL     1      40.623  50.532  34.073  1.00  0.00     0.283 C 
HETATM   24  C   UNL     1      45.931  50.989  31.953  1.00  0.00     0.283 C 
HETATM   25  C   UNL     1      38.989  52.558  31.281  1.00  0.00     0.153 C 
HETATM   26  C   UNL     1      46.376  53.324  29.619  1.00  0.00     0.153 C 
HETATM   27  C   UNL     1      42.347  53.129  33.407  1.00  0.00     0.153 C 
ENDROOT
BRANCH  17  28
HETATM   28  C   UNL     1      44.309  53.045  26.977  1.00  0.00     0.016 C 
HETATM   29  C   UNL     1      43.319  52.500  25.949  1.00  0.00     0.012 C 
HETATM   30  C   UNL     1      44.750  54.459  26.599  1.00  0.00     0.012 C 
ENDBRANCH  17  28
BRANCH  13  31
HETATM   31  C   UNL     1      39.090  53.517  28.536  1.00  0.00     0.014 C 
HETATM   32  C   UNL     1      39.830  54.751  28.016  1.00  0.00     0.012 C 
BRANCH  31  33
HETATM   33  C   UNL     1      38.162  52.902  27.473  1.00  0.00     0.002 C 
HETATM   34  C   UNL     1      38.520  53.295  26.047  1.00  0.00     0.005 C 
ENDBRANCH  31  33
ENDBRANCH  13  31
BRANCH  14  35
HETATM   35  C   UNL     1      47.718  50.804  30.217  1.00  0.00     0.010 C 
HETATM   36  C   UNL     1      48.502  51.207  31.464  1.00  0.00     0.012 C 
HETATM   37  C   UNL     1      48.064  49.373  29.807  1.00  0.00     0.012 C 
ENDBRANCH  14  35
BRANCH  16  38
HETATM   38  C   UNL     1      40.360  48.367  31.832  1.00  0.00     0.016 C 
HETATM   39  C   UNL     1      39.350  47.583  32.668  1.00  0.00     0.012 C 
HETATM   40  C   UNL     1      41.780  48.117  32.335  1.00  0.00     0.012 C 
ENDBRANCH  16  38
BRANCH  18  41
HETATM   41  C   UNL     1      46.446  52.438  34.531  1.00  0.00     0.016 C 
HETATM   42  C   UNL     1      46.175  52.708  36.009  1.00  0.00     0.012 C 
HETATM   43  C   UNL     1      47.429  53.464  33.970  1.00  0.00     0.012 C 
ENDBRANCH  18  41
BRANCH  15  44
HETATM   44  C   UNL     1      40.989  52.188  35.924  1.00  0.00     0.010 C 
HETATM   45  C   UNL     1      42.022  53.088  36.597  1.00  0.00     0.012 C 
HETATM   46  C   UNL     1      40.206  51.393  36.965  1.00  0.00     0.012 C 
ENDBRANCH  15  44
TORSDOF 7
ENDMDL
MODEL 8
REMARK VINA RESULT:    -5.203      1.936      6.666
REMARK INTER + INTRA:          -6.733
REMARK INTER:                  -7.782
REMARK INTRA:                   1.049
REMARK UNBOUND:                 0.598
REMARK  7 active torsions:
REMARK  status: ('A' for Active; 'I' for Inactive)
REMARK    1  A    between atoms: C_13  and  C_14 
REMARK    2  A    between atoms: C_14  and  C_19 
REMARK    3  A    between atoms: C_15  and  C_20 
REMARK    4  A    between atoms: C_16  and  C_21 
REMARK    5  A    between atoms: C_17  and  C_23 
REMARK    6  A    between atoms: C_18  and  C_26 
REMARK    7  A    between atoms: C_22  and  C_28 
ROOT
HETATM    1  O   UNL     1      59.233  50.909  18.530  1.00  0.00    -0.304 OA
HETATM    2  O   UNL     1      61.764  50.534  13.975  1.00  0.00    -0.304 OA
HETATM    3  O   UNL     1      62.323  47.018  17.084  1.00  0.00    -0.304 OA
HETATM    4  O   UNL     1      61.356  52.599  16.378  1.00  0.00    -0.270 OA
HETATM    5  O   UNL     1      58.611  49.604  16.734  1.00  0.00    -0.263 OA
HETATM    6  O   UNL     1      61.762  50.395  18.289  1.00  0.00    -0.270 OA
HETATM    7  O   UNL     1      63.997  47.112  14.310  1.00  0.00    -0.270 OA
HETATM    8  O   UNL     1      62.098  50.695  11.708  1.00  0.00    -0.263 OA
HETATM    9  O   UNL     1      64.588  47.409  17.199  1.00  0.00    -0.263 OA
HETATM   10  N   UNL     1      59.425  51.913  15.289  1.00  0.00    -0.340 N 
HETATM   11  N   UNL     1      61.746  48.313  19.298  1.00  0.00    -0.340 N 
HETATM   12  N   UNL     1      61.811  47.854  14.022  1.00  0.00    -0.340 N 
HETATM   13  C   UNL     1      58.647  52.030  16.539  1.00  0.00     0.190 C 
HETATM   14  C   UNL     1      63.188  48.146  19.019  1.00  0.00     0.190 C 
HETATM   15  C   UNL     1      62.116  48.506  12.732  1.00  0.00     0.190 C 
HETATM   16  C   UNL     1      61.629  51.965  14.088  1.00  0.00     0.227 C 
HETATM   17  C   UNL     1      59.678  49.754  19.275  1.00  0.00     0.227 C 
HETATM   18  C   UNL     1      62.381  46.254  15.866  1.00  0.00     0.227 C 
HETATM   19  C   UNL     1      60.802  52.192  15.350  1.00  0.00     0.250 C 
HETATM   20  C   UNL     1      58.805  50.696  17.251  1.00  0.00     0.283 C 
HETATM   21  C   UNL     1      61.146  49.519  18.906  1.00  0.00     0.250 C 
HETATM   22  C   UNL     1      62.815  47.115  14.670  1.00  0.00     0.250 C 
HETATM   23  C   UNL     1      61.981  50.027  12.730  1.00  0.00     0.283 C 
HETATM   24  C   UNL     1      63.456  47.500  17.661  1.00  0.00     0.283 C 
HETATM   25  C   UNL     1      58.718  51.478  14.080  1.00  0.00     0.153 C 
HETATM   26  C   UNL     1      61.036  47.199  19.930  1.00  0.00     0.153 C 
HETATM   27  C   UNL     1      60.418  47.862  14.472  1.00  0.00     0.153 C 
ENDROOT
BRANCH  17  28
HETATM   28  C   UNL     1      59.544  50.102  20.750  1.00  0.00     0.016 C 
HETATM   29  C   UNL     1      59.902  51.568  20.993  1.00  0.00     0.012 C 
HETATM   30  C   UNL     1      58.129  49.808  21.247  1.00  0.00     0.012 C 
ENDBRANCH  17  28
BRANCH  13  31
HETATM   31  C   UNL     1      57.169  52.368  16.377  1.00  0.00     0.014 C 
HETATM   32  C   UNL     1      56.418  52.048  17.671  1.00  0.00     0.012 C 
BRANCH  31  33
HETATM   33  C   UNL     1      57.011  53.841  15.958  1.00  0.00     0.002 C 
HETATM   34  C   UNL     1      56.534  54.749  17.083  1.00  0.00     0.005 C 
ENDBRANCH  31  33
ENDBRANCH  13  31
BRANCH  14  35
HETATM   35  C   UNL     1      63.941  47.384  20.109  1.00  0.00     0.010 C 
HETATM   36  C   UNL     1      65.450  47.512  19.913  1.00  0.00     0.012 C 
HETATM   37  C   UNL     1      63.538  47.885  21.496  1.00  0.00     0.012 C 
ENDBRANCH  14  35
BRANCH  16  38
HETATM   38  C   UNL     1      63.021  52.580  14.206  1.00  0.00     0.016 C 
HETATM   39  C   UNL     1      63.366  53.380  12.952  1.00  0.00     0.012 C 
HETATM   40  C   UNL     1      64.070  51.497  14.455  1.00  0.00     0.012 C 
ENDBRANCH  16  38
BRANCH  18  41
HETATM   41  C   UNL     1      63.229  44.994  16.025  1.00  0.00     0.016 C 
HETATM   42  C   UNL     1      63.068  44.081  14.812  1.00  0.00     0.012 C 
HETATM   43  C   UNL     1      62.854  44.253  17.307  1.00  0.00     0.012 C 
ENDBRANCH  18  41
BRANCH  15  44
HETATM   44  C   UNL     1      61.300  47.895  11.593  1.00  0.00     0.010 C 
HETATM   45  C   UNL     1      62.193  47.603  10.391  1.00  0.00     0.012 C 
HETATM   46  C   UNL     1      60.153  48.822  11.200  1.00  0.00     0.012 C 
ENDBRANCH  15  44
TORSDOF 7
ENDMDL
MODEL 9
REMARK VINA RESULT:    -5.084      2.706      6.490
REMARK INTER + INTRA:          -6.567
REMARK INTER:                  -7.837
REMARK INTRA:                   1.270
REMARK UNBOUND:                 0.598
REMARK  7 active torsions:
REMARK  status: ('A' for Active; 'I' for Inactive)
REMARK    1  A    between atoms: C_13  and  C_14 
REMARK    2  A    between atoms: C_14  and  C_19 
REMARK    3  A    between atoms: C_15  and  C_20 
REMARK    4  A    between atoms: C_16  and  C_21 
REMARK    5  A    between atoms: C_17  and  C_23 
REMARK    6  A    between atoms: C_18  and  C_26 
REMARK    7  A    between atoms: C_22  and  C_28 
ROOT
HETATM    1  O   UNL     1      60.777  49.954  19.857  1.00  0.00    -0.304 OA
HETATM    2  O   UNL     1      57.841  53.313  17.138  1.00  0.00    -0.304 OA
HETATM    3  O   UNL     1      62.215  52.458  15.562  1.00  0.00    -0.304 OA
HETATM    4  O   UNL     1      58.816  52.795  20.135  1.00  0.00    -0.270 OA
HETATM    5  O   UNL     1      59.671  49.504  17.884  1.00  0.00    -0.263 OA
HETATM    6  O   UNL     1      61.541  52.320  19.125  1.00  0.00    -0.270 OA
HETATM    7  O   UNL     1      60.320  54.694  14.177  1.00  0.00    -0.270 OA
HETATM    8  O   UNL     1      55.954  54.170  16.148  1.00  0.00    -0.263 OA
HETATM    9  O   UNL     1      62.794  54.672  15.809  1.00  0.00    -0.263 OA
HETATM   10  N   UNL     1      57.646  51.060  19.132  1.00  0.00    -0.340 N 
HETATM   11  N   UNL     1      63.329  51.668  17.809  1.00  0.00    -0.340 N 
HETATM   12  N   UNL     1      59.106  52.818  14.826  1.00  0.00    -0.340 N 
HETATM   13  C   UNL     1      58.421  50.061  19.896  1.00  0.00     0.190 C 
HETATM   14  C   UNL     1      63.588  53.074  17.432  1.00  0.00     0.190 C 
HETATM   15  C   UNL     1      57.812  53.527  14.743  1.00  0.00     0.190 C 
HETATM   16  C   UNL     1      57.250  53.442  18.446  1.00  0.00     0.227 C 
HETATM   17  C   UNL     1      62.056  49.985  19.186  1.00  0.00     0.227 C 
HETATM   18  C   UNL     1      61.549  52.635  14.298  1.00  0.00     0.227 C 
HETATM   19  C   UNL     1      57.972  52.416  19.315  1.00  0.00     0.250 C 
HETATM   20  C   UNL     1      59.670  49.789  19.074  1.00  0.00     0.283 C 
HETATM   21  C   UNL     1      62.279  51.421  18.706  1.00  0.00     0.250 C 
HETATM   22  C   UNL     1      60.278  53.486  14.434  1.00  0.00     0.250 C 
HETATM   23  C   UNL     1      57.084  53.698  16.074  1.00  0.00     0.283 C 
HETATM   24  C   UNL     1      62.813  53.506  16.189  1.00  0.00     0.283 C 
HETATM   25  C   UNL     1      56.617  50.569  18.210  1.00  0.00     0.153 C 
HETATM   26  C   UNL     1      64.159  50.630  17.195  1.00  0.00     0.153 C 
HETATM   27  C   UNL     1      59.076  51.390  15.144  1.00  0.00     0.153 C 
ENDROOT
BRANCH  17  28
HETATM   28  C   UNL     1      63.104  49.595  20.219  1.00  0.00     0.016 C 
HETATM   29  C   UNL     1      62.889  50.365  21.522  1.00  0.00     0.012 C 
HETATM   30  C   UNL     1      63.075  48.089  20.476  1.00  0.00     0.012 C 
ENDBRANCH  17  28
BRANCH  13  31
HETATM   31  C   UNL     1      57.702  48.753  20.208  1.00  0.00     0.014 C 
HETATM   32  C   UNL     1      58.725  47.639  20.436  1.00  0.00     0.012 C 
BRANCH  31  33
HETATM   33  C   UNL     1      56.768  48.944  21.417  1.00  0.00     0.002 C 
HETATM   34  C   UNL     1      55.969  47.698  21.775  1.00  0.00     0.005 C 
ENDBRANCH  31  33
ENDBRANCH  13  31
BRANCH  14  35
HETATM   35  C   UNL     1      65.071  53.399  17.253  1.00  0.00     0.010 C 
HETATM   36  C   UNL     1      65.859  53.037  18.510  1.00  0.00     0.012 C 
HETATM   37  C   UNL     1      65.641  52.670  16.036  1.00  0.00     0.012 C 
ENDBRANCH  14  35
BRANCH  16  38
HETATM   38  C   UNL     1      57.477  54.866  18.948  1.00  0.00     0.016 C 
HETATM   39  C   UNL     1      56.186  55.678  18.868  1.00  0.00     0.012 C 
HETATM   40  C   UNL     1      58.588  55.547  18.150  1.00  0.00     0.012 C 
ENDBRANCH  16  38
BRANCH  18  41
HETATM   41  C   UNL     1      62.501  53.160  13.224  1.00  0.00     0.016 C 
HETATM   42  C   UNL     1      61.772  53.312  11.891  1.00  0.00     0.012 C 
HETATM   43  C   UNL     1      63.705  52.233  13.075  1.00  0.00     0.012 C 
ENDBRANCH  18  41
BRANCH  15  44
HETATM   44  C   UNL     1      56.890  52.881  13.708  1.00  0.00     0.010 C 
HETATM   45  C   UNL     1      56.342  53.934  12.749  1.00  0.00     0.012 C 
HETATM   46  C   UNL     1      55.752  52.135  14.398  1.00  0.00     0.012 C 
ENDBRANCH  15  44
TORSDOF 7
ENDMDL
MODEL 10
REMARK VINA RESULT:    -5.031      2.177      4.410
REMARK INTER + INTRA:          -6.491
REMARK INTER:                  -7.454
REMARK INTRA:                   0.964
REMARK UNBOUND:                 0.598
REMARK  7 active torsions:
REMARK  status: ('A' for Active; 'I' for Inactive)
REMARK    1  A    between atoms: C_13  and  C_14 
REMARK    2  A    between atoms: C_14  and  C_19 
REMARK    3  A    between atoms: C_15  and  C_20 
REMARK    4  A    between atoms: C_16  and  C_21 
REMARK    5  A    between atoms: C_17  and  C_23 
REMARK    6  A    between atoms: C_18  and  C_26 
REMARK    7  A    between atoms: C_22  and  C_28 
ROOT
HETATM    1  O   UNL     1      60.176  49.201  19.356  1.00  0.00    -0.304 OA
HETATM    2  O   UNL     1      62.763  49.737  14.849  1.00  0.00    -0.304 OA
HETATM    3  O   UNL     1      59.847  53.231  16.127  1.00  0.00    -0.304 OA
HETATM    4  O   UNL     1      60.900  47.625  16.358  1.00  0.00    -0.270 OA
HETATM    5  O   UNL     1      62.047  50.504  19.010  1.00  0.00    -0.263 OA
HETATM    6  O   UNL     1      59.077  49.819  17.092  1.00  0.00    -0.270 OA
HETATM    7  O   UNL     1      61.351  53.241  13.255  1.00  0.00    -0.270 OA
HETATM    8  O   UNL     1      64.527  49.619  13.382  1.00  0.00    -0.263 OA
HETATM    9  O   UNL     1      58.571  52.929  14.235  1.00  0.00    -0.263 OA
HETATM   10  N   UNL     1      62.839  48.249  17.471  1.00  0.00    -0.340 N 
HETATM   11  N   UNL     1      58.241  51.884  17.715  1.00  0.00    -0.340 N 
HETATM   12  N   UNL     1      62.723  52.416  14.943  1.00  0.00    -0.340 N 
HETATM   13  C   UNL     1      62.172  48.085  18.779  1.00  0.00     0.190 C 
HETATM   14  C   UNL     1      57.733  52.112  16.345  1.00  0.00     0.190 C 
HETATM   15  C   UNL     1      63.662  51.793  13.987  1.00  0.00     0.190 C 
HETATM   16  C   UNL     1      62.723  48.301  14.964  1.00  0.00     0.227 C 
HETATM   17  C   UNL     1      59.320  50.363  19.409  1.00  0.00     0.227 C 
HETATM   18  C   UNL     1      60.865  54.012  15.477  1.00  0.00     0.227 C 
HETATM   19  C   UNL     1      62.070  48.024  16.315  1.00  0.00     0.250 C 
HETATM   20  C   UNL     1      61.494  49.414  19.068  1.00  0.00     0.283 C 
HETATM   21  C   UNL     1      58.876  50.661  17.974  1.00  0.00     0.250 C 
HETATM   22  C   UNL     1      61.655  53.186  14.451  1.00  0.00     0.250 C 
HETATM   23  C   UNL     1      63.719  50.269  14.039  1.00  0.00     0.283 C 
HETATM   24  C   UNL     1      58.761  52.786  15.438  1.00  0.00     0.283 C 
HETATM   25  C   UNL     1      64.243  48.671  17.466  1.00  0.00     0.153 C 
HETATM   26  C   UNL     1      58.079  52.961  18.694  1.00  0.00     0.153 C 
HETATM   27  C   UNL     1      63.061  52.346  16.366  1.00  0.00     0.153 C 
ENDROOT
BRANCH  17  28
HETATM   28  C   UNL     1      58.124  49.990  20.275  1.00  0.00     0.016 C 
HETATM   29  C   UNL     1      58.083  48.482  20.516  1.00  0.00     0.012 C 
HETATM   30  C   UNL     1      58.164  50.744  21.603  1.00  0.00     0.012 C 
ENDBRANCH  17  28
BRANCH  13  31
HETATM   31  C   UNL     1      63.074  47.690  19.944  1.00  0.00     0.014 C 
HETATM   32  C   UNL     1      62.892  48.676  21.098  1.00  0.00     0.012 C 
BRANCH  31  33
HETATM   33  C   UNL     1      62.783  46.238  20.364  1.00  0.00     0.002 C 
HETATM   34  C   UNL     1      62.186  45.387  19.253  1.00  0.00     0.005 C 
ENDBRANCH  31  33
ENDBRANCH  13  31
BRANCH  14  35
HETATM   35  C   UNL     1      56.418  52.889  16.297  1.00  0.00     0.010 C 
HETATM   36  C   UNL     1      56.680  54.388  16.172  1.00  0.00     0.012 C 
HETATM   37  C   UNL     1      55.544  52.401  15.142  1.00  0.00     0.012 C 
ENDBRANCH  14  35
BRANCH  16  38
HETATM   38  C   UNL     1      61.894  47.740  13.811  1.00  0.00     0.016 C 
HETATM   39  C   UNL     1      62.780  46.964  12.837  1.00  0.00     0.012 C 
HETATM   40  C   UNL     1      61.154  48.861  13.084  1.00  0.00     0.012 C 
ENDBRANCH  16  38
BRANCH  18  41
HETATM   41  C   UNL     1      60.301  55.304  14.887  1.00  0.00     0.016 C 
HETATM   42  C   UNL     1      61.394  56.084  14.160  1.00  0.00     0.012 C 
HETATM   43  C   UNL     1      59.666  56.160  15.980  1.00  0.00     0.012 C 
ENDBRANCH  18  41
BRANCH  15  44
HETATM   44  C   UNL     1      65.065  52.387  14.119  1.00  0.00     0.010 C 
HETATM   45  C   UNL     1      65.640  52.712  12.743  1.00  0.00     0.012 C 
HETATM   46  C   UNL     1      65.981  51.429  14.873  1.00  0.00     0.012 C 
ENDBRANCH  15  44
TORSDOF 7
ENDMDL
MODEL 11
REMARK VINA RESULT:    -4.987     18.800     22.495
REMARK INTER + INTRA:          -6.430
REMARK INTER:                  -7.199
REMARK INTRA:                   0.769
REMARK UNBOUND:                 0.598
REMARK  7 active torsions:
REMARK  status: ('A' for Active; 'I' for Inactive)
REMARK    1  A    between atoms: C_13  and  C_14 
REMARK    2  A    between atoms: C_14  and  C_19 
REMARK    3  A    between atoms: C_15  and  C_20 
REMARK    4  A    between atoms: C_16  and  C_21 
REMARK    5  A    between atoms: C_17  and  C_23 
REMARK    6  A    between atoms: C_18  and  C_26 
REMARK    7  A    between atoms: C_22  and  C_28 
ROOT
HETATM    1  O   UNL     1      40.855  53.112  29.374  1.00  0.00    -0.304 OA
HETATM    2  O   UNL     1      45.409  50.753  30.368  1.00  0.00    -0.304 OA
HETATM    3  O   UNL     1      45.365  55.479  30.286  1.00  0.00    -0.304 OA
HETATM    4  O   UNL     1      43.045  50.689  28.221  1.00  0.00    -0.270 OA
HETATM    5  O   UNL     1      41.837  52.873  31.447  1.00  0.00    -0.263 OA
HETATM    6  O   UNL     1      43.081  53.634  28.154  1.00  0.00    -0.270 OA
HETATM    7  O   UNL     1      48.125  53.813  30.629  1.00  0.00    -0.270 OA
HETATM    8  O   UNL     1      46.853  49.210  31.270  1.00  0.00    -0.263 OA
HETATM    9  O   UNL     1      46.875  55.515  28.549  1.00  0.00    -0.263 OA
HETATM   10  N   UNL     1      42.430  50.288  30.422  1.00  0.00    -0.340 N 
HETATM   11  N   UNL     1      43.250  55.857  28.770  1.00  0.00    -0.340 N 
HETATM   12  N   UNL     1      46.368  52.817  31.785  1.00  0.00    -0.340 N 
HETATM   13  C   UNL     1      41.111  50.916  30.195  1.00  0.00     0.190 C 
HETATM   14  C   UNL     1      44.553  55.969  28.080  1.00  0.00     0.190 C 
HETATM   15  C   UNL     1      47.079  51.528  31.915  1.00  0.00     0.190 C 
HETATM   16  C   UNL     1      44.738  49.727  29.610  1.00  0.00     0.227 C 
HETATM   17  C   UNL     1      41.190  54.516  29.326  1.00  0.00     0.227 C 
HETATM   18  C   UNL     1      46.351  55.279  31.315  1.00  0.00     0.227 C 
HETATM   19  C   UNL     1      43.337  50.273  29.348  1.00  0.00     0.250 C 
HETATM   20  C   UNL     1      41.311  52.401  30.447  1.00  0.00     0.283 C 
HETATM   21  C   UNL     1      42.585  54.624  28.704  1.00  0.00     0.250 C 
HETATM   22  C   UNL     1      47.033  53.908  31.198  1.00  0.00     0.250 C 
HETATM   23  C   UNL     1      46.438  50.361  31.169  1.00  0.00     0.283 C 
HETATM   24  C   UNL     1      45.732  55.614  28.983  1.00  0.00     0.283 C 
HETATM   25  C   UNL     1      42.715  49.758  31.759  1.00  0.00     0.153 C 
HETATM   26  C   UNL     1      42.761  57.027  29.504  1.00  0.00     0.153 C 
HETATM   27  C   UNL     1      45.066  52.942  32.440  1.00  0.00     0.153 C 
ENDROOT
BRANCH  17  28
HETATM   28  C   UNL     1      40.153  55.186  28.437  1.00  0.00     0.016 C 
HETATM   29  C   UNL     1      39.443  54.153  27.562  1.00  0.00     0.012 C 
HETATM   30  C   UNL     1      39.139  55.960  29.280  1.00  0.00     0.012 C 
ENDBRANCH  17  28
BRANCH  13  31
HETATM   31  C   UNL     1      39.964  50.387  31.049  1.00  0.00     0.014 C 
HETATM   32  C   UNL     1      38.782  51.356  30.989  1.00  0.00     0.012 C 
BRANCH  31  33
HETATM   33  C   UNL     1      39.580  48.968  30.592  1.00  0.00     0.002 C 
HETATM   34  C   UNL     1      39.546  47.949  31.721  1.00  0.00     0.005 C 
ENDBRANCH  31  33
ENDBRANCH  13  31
BRANCH  14  35
HETATM   35  C   UNL     1      44.792  57.333  27.433  1.00  0.00     0.010 C 
HETATM   36  C   UNL     1      45.641  58.220  28.341  1.00  0.00     0.012 C 
HETATM   37  C   UNL     1      45.458  57.173  26.066  1.00  0.00     0.012 C 
ENDBRANCH  14  35
BRANCH  16  38
HETATM   38  C   UNL     1      45.506  49.497  28.312  1.00  0.00     0.016 C 
HETATM   39  C   UNL     1      46.111  48.094  28.284  1.00  0.00     0.012 C 
HETATM   40  C   UNL     1      46.596  50.553  28.136  1.00  0.00     0.012 C 
ENDBRANCH  16  38
BRANCH  18  41
HETATM   41  C   UNL     1      47.351  56.433  31.375  1.00  0.00     0.016 C 
HETATM   42  C   UNL     1      48.429  56.155  32.420  1.00  0.00     0.012 C 
HETATM   43  C   UNL     1      46.636  57.748  31.678  1.00  0.00     0.012 C 
ENDBRANCH  18  41
BRANCH  15  44
HETATM   44  C   UNL     1      47.306  51.165  33.383  1.00  0.00     0.010 C 
HETATM   45  C   UNL     1      48.797  51.014  33.672  1.00  0.00     0.012 C 
HETATM   46  C   UNL     1      46.555  49.885  33.739  1.00  0.00     0.012 C 
ENDBRANCH  15  44
TORSDOF 7
ENDMDL
MODEL 12
REMARK VINA RESULT:    -4.968     17.608     21.196
REMARK INTER + INTRA:          -6.403
REMARK INTER:                  -7.060
REMARK INTRA:                   0.658
REMARK UNBOUND:                 0.598
REMARK  7 active torsions:
REMARK  status: ('A' for Active; 'I' for Inactive)
REMARK    1  A    between atoms: C_13  and  C_14 
REMARK    2  A    between atoms: C_14  and  C_19 
REMARK    3  A    between atoms: C_15  and  C_20 
REMARK    4  A    between atoms: C_16  and  C_21 
REMARK    5  A    between atoms: C_17  and  C_23 
REMARK    6  A    between atoms: C_18  and  C_26 
REMARK    7  A    between atoms: C_22  and  C_28 
ROOT
HETATM    1  O   UNL     1      49.863  54.676  31.599  1.00  0.00    -0.304 OA
HETATM    2  O   UNL     1      45.525  52.119  32.991  1.00  0.00    -0.304 OA
HETATM    3  O   UNL     1      45.558  54.232  28.762  1.00  0.00    -0.304 OA
HETATM    4  O   UNL     1      47.515  54.346  34.124  1.00  0.00    -0.270 OA
HETATM    5  O   UNL     1      49.225  52.585  30.866  1.00  0.00    -0.263 OA
HETATM    6  O   UNL     1      47.471  55.668  31.491  1.00  0.00    -0.270 OA
HETATM    7  O   UNL     1      42.887  52.812  29.929  1.00  0.00    -0.270 OA
HETATM    8  O   UNL     1      44.243  50.444  33.901  1.00  0.00    -0.263 OA
HETATM    9  O   UNL     1      43.789  55.578  29.363  1.00  0.00    -0.263 OA
HETATM   10  N   UNL     1      48.474  52.301  33.593  1.00  0.00    -0.340 N 
HETATM   11  N   UNL     1      47.403  56.051  29.211  1.00  0.00    -0.340 N 
HETATM   12  N   UNL     1      44.805  51.607  30.459  1.00  0.00    -0.340 N 
HETATM   13  C   UNL     1      49.740  52.963  33.215  1.00  0.00     0.190 C 
HETATM   14  C   UNL     1      46.007  56.526  29.313  1.00  0.00     0.190 C 
HETATM   15  C   UNL     1      44.124  50.834  31.519  1.00  0.00     0.190 C 
HETATM   16  C   UNL     1      46.066  52.450  34.285  1.00  0.00     0.227 C 
HETATM   17  C   UNL     1      49.525  55.275  30.328  1.00  0.00     0.227 C 
HETATM   18  C   UNL     1      44.749  53.087  28.437  1.00  0.00     0.227 C 
HETATM   19  C   UNL     1      47.407  53.121  34.000  1.00  0.00     0.250 C 
HETATM   20  C   UNL     1      49.583  53.349  31.753  1.00  0.00     0.283 C 
HETATM   21  C   UNL     1      48.048  55.675  30.398  1.00  0.00     0.250 C 
HETATM   22  C   UNL     1      44.056  52.503  29.678  1.00  0.00     0.250 C 
HETATM   23  C   UNL     1      44.637  51.089  32.934  1.00  0.00     0.283 C 
HETATM   24  C   UNL     1      44.987  55.399  29.168  1.00  0.00     0.283 C 
HETATM   25  C   UNL     1      48.406  50.840  33.484  1.00  0.00     0.153 C 
HETATM   26  C   UNL     1      48.004  55.970  27.877  1.00  0.00     0.153 C 
HETATM   27  C   UNL     1      46.196  51.264  30.159  1.00  0.00     0.153 C 
ENDROOT
BRANCH  17  28
HETATM   28  C   UNL     1      50.407  56.505  30.172  1.00  0.00     0.016 C 
HETATM   29  C   UNL     1      51.091  56.850  31.495  1.00  0.00     0.012 C 
HETATM   30  C   UNL     1      51.447  56.287  29.074  1.00  0.00     0.012 C 
ENDBRANCH  17  28
BRANCH  13  31
HETATM   31  C   UNL     1      51.008  52.140  33.409  1.00  0.00     0.014 C 
HETATM   32  C   UNL     1      52.131  52.702  32.535  1.00  0.00     0.012 C 
BRANCH  31  33
HETATM   33  C   UNL     1      51.390  52.107  34.900  1.00  0.00     0.002 C 
HETATM   34  C   UNL     1      52.695  51.377  35.182  1.00  0.00     0.005 C 
ENDBRANCH  31  33
ENDBRANCH  13  31
BRANCH  14  35
HETATM   35  C   UNL     1      45.668  57.655  28.340  1.00  0.00     0.010 C 
HETATM   36  C   UNL     1      44.752  57.152  27.226  1.00  0.00     0.012 C 
HETATM   37  C   UNL     1      45.020  58.827  29.077  1.00  0.00     0.012 C 
ENDBRANCH  14  35
BRANCH  16  38
HETATM   38  C   UNL     1      45.100  53.398  34.991  1.00  0.00     0.016 C 
HETATM   39  C   UNL     1      44.453  52.711  36.193  1.00  0.00     0.012 C 
HETATM   40  C   UNL     1      44.031  53.899  34.022  1.00  0.00     0.012 C 
ENDBRANCH  16  38
BRANCH  18  41
HETATM   41  C   UNL     1      43.772  53.386  27.301  1.00  0.00     0.016 C 
HETATM   42  C   UNL     1      42.881  52.176  27.027  1.00  0.00     0.012 C 
HETATM   43  C   UNL     1      44.527  53.794  26.038  1.00  0.00     0.012 C 
ENDBRANCH  18  41
BRANCH  15  44
HETATM   44  C   UNL     1      44.134  49.337  31.207  1.00  0.00     0.010 C 
HETATM   45  C   UNL     1      42.745  48.739  31.412  1.00  0.00     0.012 C 
HETATM   46  C   UNL     1      45.164  48.618  32.075  1.00  0.00     0.012 C 
ENDBRANCH  15  44
TORSDOF 7
ENDMDL
MODEL 13
REMARK VINA RESULT:    -4.959     19.197     22.845
REMARK INTER + INTRA:          -6.391
REMARK INTER:                  -7.009
REMARK INTRA:                   0.618
REMARK UNBOUND:                 0.598
REMARK  7 active torsions:
REMARK  status: ('A' for Active; 'I' for Inactive)
REMARK    1  A    between atoms: C_13  and  C_14 
REMARK    2  A    between atoms: C_14  and  C_19 
REMARK    3  A    between atoms: C_15  and  C_20 
REMARK    4  A    between atoms: C_16  and  C_21 
REMARK    5  A    between atoms: C_17  and  C_23 
REMARK    6  A    between atoms: C_18  and  C_26 
REMARK    7  A    between atoms: C_22  and  C_28 
ROOT
HETATM    1  O   UNL     1      42.895  54.200  28.524  1.00  0.00    -0.304 OA
HETATM    2  O   UNL     1      46.432  54.040  32.365  1.00  0.00    -0.304 OA
HETATM    3  O   UNL     1      43.598  50.293  31.844  1.00  0.00    -0.304 OA
HETATM    4  O   UNL     1      44.124  55.947  31.250  1.00  0.00    -0.270 OA
HETATM    5  O   UNL     1      44.895  53.052  28.483  1.00  0.00    -0.263 OA
HETATM    6  O   UNL     1      42.366  53.598  30.988  1.00  0.00    -0.270 OA
HETATM    7  O   UNL     1      45.684  50.511  34.315  1.00  0.00    -0.270 OA
HETATM    8  O   UNL     1      48.457  54.346  33.406  1.00  0.00    -0.263 OA
HETATM    9  O   UNL     1      42.742  50.579  33.962  1.00  0.00    -0.263 OA
HETATM   10  N   UNL     1      45.819  55.420  29.755  1.00  0.00    -0.340 N 
HETATM   11  N   UNL     1      41.583  51.453  30.615  1.00  0.00    -0.340 N 
HETATM   12  N   UNL     1      46.587  51.364  32.348  1.00  0.00    -0.340 N 
HETATM   13  C   UNL     1      44.873  55.481  28.621  1.00  0.00     0.190 C 
HETATM   14  C   UNL     1      41.405  51.245  32.068  1.00  0.00     0.190 C 
HETATM   15  C   UNL     1      47.658  52.092  33.059  1.00  0.00     0.190 C 
HETATM   16  C   UNL     1      46.254  55.463  32.227  1.00  0.00     0.227 C 
HETATM   17  C   UNL     1      42.143  52.978  28.688  1.00  0.00     0.227 C 
HETATM   18  C   UNL     1      44.792  49.616  32.273  1.00  0.00     0.227 C 
HETATM   19  C   UNL     1      45.303  55.636  31.045  1.00  0.00     0.250 C 
HETATM   20  C   UNL     1      44.257  54.096  28.521  1.00  0.00     0.283 C 
HETATM   21  C   UNL     1      42.047  52.708  30.192  1.00  0.00     0.250 C 
HETATM   22  C   UNL     1      45.717  50.539  33.081  1.00  0.00     0.250 C 
HETATM   23  C   UNL     1      47.581  53.613  32.958  1.00  0.00     0.283 C 
HETATM   24  C   UNL     1      42.655  50.686  32.743  1.00  0.00     0.283 C 
HETATM   25  C   UNL     1      47.220  55.102  29.462  1.00  0.00     0.153 C 
HETATM   26  C   UNL     1      41.299  50.328  29.722  1.00  0.00     0.153 C 
HETATM   27  C   UNL     1      46.602  51.398  30.885  1.00  0.00     0.153 C 
ENDROOT
BRANCH  17  28
HETATM   28  C   UNL     1      40.763  53.227  28.097  1.00  0.00     0.016 C 
HETATM   29  C   UNL     1      40.338  54.678  28.314  1.00  0.00     0.012 C 
HETATM   30  C   UNL     1      40.743  52.880  26.609  1.00  0.00     0.012 C 
ENDBRANCH  17  28
BRANCH  13  31
HETATM   31  C   UNL     1      45.467  55.892  27.278  1.00  0.00     0.014 C 
HETATM   32  C   UNL     1      44.684  55.233  26.141  1.00  0.00     0.012 C 
BRANCH  31  33
HETATM   33  C   UNL     1      45.487  57.426  27.160  1.00  0.00     0.002 C 
HETATM   34  C   UNL     1      44.175  58.088  27.559  1.00  0.00     0.005 C 
ENDBRANCH  31  33
ENDBRANCH  13  31
BRANCH  14  35
HETATM   35  C   UNL     1      40.197  50.378  32.422  1.00  0.00     0.010 C 
HETATM   36  C   UNL     1      40.646  49.023  32.966  1.00  0.00     0.012 C 
HETATM   37  C   UNL     1      39.299  51.089  33.433  1.00  0.00     0.012 C 
ENDBRANCH  14  35
BRANCH  16  38
HETATM   38  C   UNL     1      45.653  56.010  33.519  1.00  0.00     0.016 C 
HETATM   39  C   UNL     1      46.660  56.895  34.251  1.00  0.00     0.012 C 
HETATM   40  C   UNL     1      45.189  54.868  34.422  1.00  0.00     0.012 C 
ENDBRANCH  16  38
BRANCH  18  41
HETATM   41  C   UNL     1      44.474  48.312  33.005  1.00  0.00     0.016 C 
HETATM   42  C   UNL     1      45.761  47.601  33.418  1.00  0.00     0.012 C 
HETATM   43  C   UNL     1      43.615  47.402  32.129  1.00  0.00     0.012 C 
ENDBRANCH  18  41
BRANCH  15  44
HETATM   44  C   UNL     1      49.042  51.596  32.637  1.00  0.00     0.010 C 
HETATM   45  C   UNL     1      49.976  51.528  33.842  1.00  0.00     0.012 C 
HETATM   46  C   UNL     1      49.625  52.499  31.554  1.00  0.00     0.012 C 
ENDBRANCH  15  44
TORSDOF 7
ENDMDL
MODEL 14
REMARK VINA RESULT:    -4.895     18.627     21.737
REMARK INTER + INTRA:          -6.300
REMARK INTER:                  -7.743
REMARK INTRA:                   1.443
REMARK UNBOUND:                 0.598
REMARK  7 active torsions:
REMARK  status: ('A' for Active; 'I' for Inactive)
REMARK    1  A    between atoms: C_13  and  C_14 
REMARK    2  A    between atoms: C_14  and  C_19 
REMARK    3  A    between atoms: C_15  and  C_20 
REMARK    4  A    between atoms: C_16  and  C_21 
REMARK    5  A    between atoms: C_17  and  C_23 
REMARK    6  A    between atoms: C_18  and  C_26 
REMARK    7  A    between atoms: C_22  and  C_28 
ROOT
HETATM    1  O   UNL     1      46.061  55.390  29.952  1.00  0.00    -0.304 OA
HETATM    2  O   UNL     1      45.390  50.228  30.398  1.00  0.00    -0.304 OA
HETATM    3  O   UNL     1      47.363  52.501  34.043  1.00  0.00    -0.304 OA
HETATM    4  O   UNL     1      46.651  52.360  28.381  1.00  0.00    -0.270 OA
HETATM    5  O   UNL     1      44.393  54.335  31.144  1.00  0.00    -0.263 OA
HETATM    6  O   UNL     1      47.910  53.721  30.670  1.00  0.00    -0.270 OA
HETATM    7  O   UNL     1      47.088  49.271  34.005  1.00  0.00    -0.270 OA
HETATM    8  O   UNL     1      44.340  48.194  30.196  1.00  0.00    -0.263 OA
HETATM    9  O   UNL     1      49.287  51.252  33.848  1.00  0.00    -0.263 OA
HETATM   10  N   UNL     1      44.398  52.631  28.869  1.00  0.00    -0.340 N 
HETATM   11  N   UNL     1      48.311  54.598  32.772  1.00  0.00    -0.340 N 
HETATM   12  N   UNL     1      45.224  50.305  33.073  1.00  0.00    -0.340 N 
HETATM   13  C   UNL     1      44.517  54.096  28.725  1.00  0.00     0.190 C 
HETATM   14  C   UNL     1      49.293  53.529  33.052  1.00  0.00     0.190 C 
HETATM   15  C   UNL     1      44.768  49.066  32.409  1.00  0.00     0.190 C 
HETATM   16  C   UNL     1      45.471  50.363  28.965  1.00  0.00     0.227 C 
HETATM   17  C   UNL     1      46.757  55.759  31.162  1.00  0.00     0.227 C 
HETATM   18  C   UNL     1      46.628  51.500  34.771  1.00  0.00     0.227 C 
HETATM   19  C   UNL     1      45.567  51.864  28.708  1.00  0.00     0.250 C 
HETATM   20  C   UNL     1      44.947  54.612  30.088  1.00  0.00     0.283 C 
HETATM   21  C   UNL     1      47.701  54.604  31.509  1.00  0.00     0.250 C 
HETATM   22  C   UNL     1      46.349  50.256  33.914  1.00  0.00     0.250 C 
HETATM   23  C   UNL     1      44.789  49.106  30.883  1.00  0.00     0.283 C 
HETATM   24  C   UNL     1      48.655  52.289  33.675  1.00  0.00     0.283 C 
HETATM   25  C   UNL     1      43.082  52.079  29.205  1.00  0.00     0.153 C 
HETATM   26  C   UNL     1      48.015  55.554  33.842  1.00  0.00     0.153 C 
HETATM   27  C   UNL     1      44.368  51.487  32.961  1.00  0.00     0.153 C 
ENDROOT
BRANCH  17  28
HETATM   28  C   UNL     1      47.546  57.022  30.850  1.00  0.00     0.016 C 
HETATM   29  C   UNL     1      47.612  57.257  29.341  1.00  0.00     0.012 C 
HETATM   30  C   UNL     1      46.929  58.231  31.553  1.00  0.00     0.012 C 
ENDBRANCH  17  28
BRANCH  13  31
HETATM   31  C   UNL     1      43.261  54.825  28.259  1.00  0.00     0.014 C 
HETATM   32  C   UNL     1      42.449  55.287  29.470  1.00  0.00     0.012 C 
BRANCH  31  33
HETATM   33  C   UNL     1      43.646  55.993  27.333  1.00  0.00     0.002 C 
HETATM   34  C   UNL     1      44.793  55.672  26.386  1.00  0.00     0.005 C 
ENDBRANCH  31  33
ENDBRANCH  13  31
BRANCH  14  35
HETATM   35  C   UNL     1      50.474  53.987  33.908  1.00  0.00     0.010 C 
HETATM   36  C   UNL     1      50.409  53.358  35.298  1.00  0.00     0.012 C 
HETATM   37  C   UNL     1      51.799  53.644  33.227  1.00  0.00     0.012 C 
ENDBRANCH  14  35
BRANCH  16  38
HETATM   38  C   UNL     1      46.713  49.625  28.474  1.00  0.00     0.016 C 
HETATM   39  C   UNL     1      46.336  48.269  27.881  1.00  0.00     0.012 C 
HETATM   40  C   UNL     1      47.722  49.452  29.608  1.00  0.00     0.012 C 
ENDBRANCH  16  38
BRANCH  18  41
HETATM   41  C   UNL     1      47.296  51.162  36.103  1.00  0.00     0.016 C 
HETATM   42  C   UNL     1      46.522  50.062  36.827  1.00  0.00     0.012 C 
HETATM   43  C   UNL     1      47.406  52.407  36.979  1.00  0.00     0.012 C 
ENDBRANCH  18  41
BRANCH  15  44
HETATM   44  C   UNL     1      43.389  48.640  32.914  1.00  0.00     0.010 C 
HETATM   45  C   UNL     1      43.433  48.359  34.414  1.00  0.00     0.012 C 
HETATM   46  C   UNL     1      42.896  47.414  32.150  1.00  0.00     0.012 C 
ENDBRANCH  15  44
TORSDOF 7
ENDMDL
MODEL 15
REMARK VINA RESULT:    -4.870     18.347     20.913
REMARK INTER + INTRA:          -6.264
REMARK INTER:                  -7.376
REMARK INTRA:                   1.112
REMARK UNBOUND:                 0.598
REMARK  7 active torsions:
REMARK  status: ('A' for Active; 'I' for Inactive)
REMARK    1  A    between atoms: C_13  and  C_14 
REMARK    2  A    between atoms: C_14  and  C_19 
REMARK    3  A    between atoms: C_15  and  C_20 
REMARK    4  A    between atoms: C_16  and  C_21 
REMARK    5  A    between atoms: C_17  and  C_23 
REMARK    6  A    between atoms: C_18  and  C_26 
REMARK    7  A    between atoms: C_22  and  C_28 
ROOT
HETATM    1  O   UNL     1      44.968  51.637  28.783  1.00  0.00    -0.304 OA
HETATM    2  O   UNL     1      45.217  56.556  30.525  1.00  0.00    -0.304 OA
HETATM    3  O   UNL     1      48.861  53.705  31.492  1.00  0.00    -0.304 OA
HETATM    4  O   UNL     1      43.238  54.049  30.569  1.00  0.00    -0.270 OA
HETATM    5  O   UNL     1      46.190  53.351  27.842  1.00  0.00    -0.263 OA
HETATM    6  O   UNL     1      45.523  52.309  31.224  1.00  0.00    -0.270 OA
HETATM    7  O   UNL     1      48.694  56.712  32.692  1.00  0.00    -0.270 OA
HETATM    8  O   UNL     1      44.975  58.840  30.488  1.00  0.00    -0.263 OA
HETATM    9  O   UNL     1      48.521  53.951  33.756  1.00  0.00    -0.263 OA
HETATM   10  N   UNL     1      43.844  54.829  28.469  1.00  0.00    -0.340 N 
HETATM   11  N   UNL     1      47.641  51.383  31.319  1.00  0.00    -0.340 N 
HETATM   12  N   UNL     1      47.897  56.611  30.509  1.00  0.00    -0.340 N 
HETATM   13  C   UNL     1      43.760  53.465  27.909  1.00  0.00     0.190 C 
HETATM   14  C   UNL     1      47.826  51.901  32.691  1.00  0.00     0.190 C 
HETATM   15  C   UNL     1      47.202  57.910  30.616  1.00  0.00     0.190 C 
HETATM   16  C   UNL     1      43.789  56.373  30.447  1.00  0.00     0.227 C 
HETATM   17  C   UNL     1      46.159  51.017  29.313  1.00  0.00     0.227 C 
HETATM   18  C   UNL     1      49.578  54.943  31.331  1.00  0.00     0.227 C 
HETATM   19  C   UNL     1      43.595  54.985  29.844  1.00  0.00     0.250 C 
HETATM   20  C   UNL     1      45.122  52.835  28.146  1.00  0.00     0.283 C 
HETATM   21  C   UNL     1      46.409  51.629  30.695  1.00  0.00     0.250 C 
HETATM   22  C   UNL     1      48.681  56.163  31.586  1.00  0.00     0.250 C 
HETATM   23  C   UNL     1      45.680  57.837  30.522  1.00  0.00     0.283 C 
HETATM   24  C   UNL     1      48.424  53.306  32.717  1.00  0.00     0.283 C 
HETATM   25  C   UNL     1      44.217  55.920  27.563  1.00  0.00     0.153 C 
HETATM   26  C   UNL     1      48.765  50.682  30.693  1.00  0.00     0.153 C 
HETATM   27  C   UNL     1      47.879  55.939  29.209  1.00  0.00     0.153 C 
ENDROOT
BRANCH  17  28
HETATM   28  C   UNL     1      45.866  49.528  29.431  1.00  0.00     0.016 C 
HETATM   29  C   UNL     1      44.366  49.285  29.593  1.00  0.00     0.012 C 
HETATM   30  C   UNL     1      46.401  48.775  28.214  1.00  0.00     0.012 C 
ENDBRANCH  17  28
BRANCH  13  31
HETATM   31  C   UNL     1      43.386  53.370  26.434  1.00  0.00     0.014 C 
HETATM   32  C   UNL     1      44.566  52.816  25.633  1.00  0.00     0.012 C 
BRANCH  31  33
HETATM   33  C   UNL     1      42.116  52.516  26.268  1.00  0.00     0.002 C 
HETATM   34  C   UNL     1      40.983  52.917  27.202  1.00  0.00     0.005 C 
ENDBRANCH  31  33
ENDBRANCH  13  31
BRANCH  14  35
HETATM   35  C   UNL     1      48.645  50.977  33.593  1.00  0.00     0.010 C 
HETATM   36  C   UNL     1      49.928  51.666  34.050  1.00  0.00     0.012 C 
HETATM   37  C   UNL     1      47.819  50.528  34.798  1.00  0.00     0.012 C 
ENDBRANCH  14  35
BRANCH  16  38
HETATM   38  C   UNL     1      43.207  56.464  31.856  1.00  0.00     0.016 C 
HETATM   39  C   UNL     1      42.356  57.723  32.008  1.00  0.00     0.012 C 
HETATM   40  C   UNL     1      44.321  56.441  32.902  1.00  0.00     0.012 C 
ENDBRANCH  16  38
BRANCH  18  41
HETATM   41  C   UNL     1      50.861  54.969  32.161  1.00  0.00     0.016 C 
HETATM   42  C   UNL     1      51.665  56.232  31.865  1.00  0.00     0.012 C 
HETATM   43  C   UNL     1      51.700  53.722  31.890  1.00  0.00     0.012 C 
ENDBRANCH  18  41
BRANCH  15  44
HETATM   44  C   UNL     1      47.753  58.920  29.609  1.00  0.00     0.010 C 
HETATM   45  C   UNL     1      47.337  58.541  28.190  1.00  0.00     0.012 C 
HETATM   46  C   UNL     1      49.272  59.010  29.719  1.00  0.00     0.012 C 
ENDBRANCH  15  44
TORSDOF 7
ENDMDL
MODEL 16
REMARK VINA RESULT:    -4.826     18.418     22.093
REMARK INTER + INTRA:          -6.203
REMARK INTER:                  -6.953
REMARK INTRA:                   0.750
REMARK UNBOUND:                 0.598
REMARK  7 active torsions:
REMARK  status: ('A' for Active; 'I' for Inactive)
REMARK    1  A    between atoms: C_13  and  C_14 
REMARK    2  A    between atoms: C_14  and  C_19 
REMARK    3  A    between atoms: C_15  and  C_20 
REMARK    4  A    between atoms: C_16  and  C_21 
REMARK    5  A    between atoms: C_17  and  C_23 
REMARK    6  A    between atoms: C_18  and  C_26 
REMARK    7  A    between atoms: C_22  and  C_28 
ROOT
HETATM    1  O   UNL     1      45.661  56.841  31.523  1.00  0.00    -0.304 OA
HETATM    2  O   UNL     1      43.961  52.613  28.968  1.00  0.00    -0.304 OA
HETATM    3  O   UNL     1      46.952  51.939  32.565  1.00  0.00    -0.304 OA
HETATM    4  O   UNL     1      45.310  55.447  28.372  1.00  0.00    -0.270 OA
HETATM    5  O   UNL     1      44.021  55.387  32.241  1.00  0.00    -0.263 OA
HETATM    6  O   UNL     1      47.192  54.971  30.587  1.00  0.00    -0.270 OA
HETATM    7  O   UNL     1      45.977  49.484  30.688  1.00  0.00    -0.270 OA
HETATM    8  O   UNL     1      42.475  51.239  27.881  1.00  0.00    -0.263 OA
HETATM    9  O   UNL     1      48.499  50.965  31.167  1.00  0.00    -0.263 OA
HETATM   10  N   UNL     1      43.281  55.502  29.499  1.00  0.00    -0.340 N 
HETATM   11  N   UNL     1      48.114  54.298  32.599  1.00  0.00    -0.340 N 
HETATM   12  N   UNL     1      44.257  50.998  31.087  1.00  0.00    -0.340 N 
HETATM   13  C   UNL     1      43.692  56.719  30.230  1.00  0.00     0.190 C 
HETATM   14  C   UNL     1      48.871  53.228  31.915  1.00  0.00     0.190 C 
HETATM   15  C   UNL     1      43.439  50.489  29.967  1.00  0.00     0.190 C 
HETATM   16  C   UNL     1      43.834  53.614  27.939  1.00  0.00     0.227 C 
HETATM   17  C   UNL     1      46.609  56.316  32.478  1.00  0.00     0.227 C 
HETATM   18  C   UNL     1      46.146  50.757  32.717  1.00  0.00     0.227 C 
HETATM   19  C   UNL     1      44.212  54.931  28.612  1.00  0.00     0.250 C 
HETATM   20  C   UNL     1      44.441  56.229  31.458  1.00  0.00     0.283 C 
HETATM   21  C   UNL     1      47.322  55.140  31.804  1.00  0.00     0.250 C 
HETATM   22  C   UNL     1      45.466  50.354  31.400  1.00  0.00     0.250 C 
HETATM   23  C   UNL     1      43.218  51.480  28.827  1.00  0.00     0.283 C 
HETATM   24  C   UNL     1      48.090  51.919  31.819  1.00  0.00     0.283 C 
HETATM   25  C   UNL     1      41.949  54.954  29.773  1.00  0.00     0.153 C 
HETATM   26  C   UNL     1      48.213  54.383  34.058  1.00  0.00     0.153 C 
HETATM   27  C   UNL     1      43.673  52.041  31.932  1.00  0.00     0.153 C 
ENDROOT
BRANCH  17  28
HETATM   28  C   UNL     1      47.592  57.436  32.784  1.00  0.00     0.016 C 
HETATM   29  C   UNL     1      47.674  58.417  31.615  1.00  0.00     0.012 C 
HETATM   30  C   UNL     1      47.196  58.166  34.067  1.00  0.00     0.012 C 
ENDBRANCH  17  28
BRANCH  13  31
HETATM   31  C   UNL     1      42.567  57.662  30.642  1.00  0.00     0.014 C 
HETATM   32  C   UNL     1      43.004  58.498  31.846  1.00  0.00     0.012 C 
BRANCH  31  33
HETATM   33  C   UNL     1      42.150  58.535  29.445  1.00  0.00     0.002 C 
HETATM   34  C   UNL     1      40.702  58.338  29.018  1.00  0.00     0.005 C 
ENDBRANCH  31  33
ENDBRANCH  13  31
BRANCH  14  35
HETATM   35  C   UNL     1      50.247  52.962  32.525  1.00  0.00     0.010 C 
HETATM   36  C   UNL     1      50.217  51.711  33.401  1.00  0.00     0.012 C 
HETATM   37  C   UNL     1      51.306  52.823  31.431  1.00  0.00     0.012 C 
ENDBRANCH  14  35
BRANCH  16  38
HETATM   38  C   UNL     1      44.788  53.269  26.799  1.00  0.00     0.016 C 
HETATM   39  C   UNL     1      44.010  52.907  25.535  1.00  0.00     0.012 C 
HETATM   40  C   UNL     1      45.718  52.125  27.201  1.00  0.00     0.012 C 
ENDBRANCH  16  38
BRANCH  18  41
HETATM   41  C   UNL     1      46.933  49.610  33.350  1.00  0.00     0.016 C 
HETATM   42  C   UNL     1      46.072  48.352  33.436  1.00  0.00     0.012 C 
HETATM   43  C   UNL     1      47.441  50.008  34.734  1.00  0.00     0.012 C 
ENDBRANCH  18  41
BRANCH  15  44
HETATM   44  C   UNL     1      42.102  49.935  30.461  1.00  0.00     0.010 C 
HETATM   45  C   UNL     1      41.191  51.069  30.921  1.00  0.00     0.012 C 
HETATM   46  C   UNL     1      42.325  48.931  31.588  1.00  0.00     0.012 C 
ENDBRANCH  15  44
TORSDOF 7
ENDMDL
MODEL 17
REMARK VINA RESULT:    -4.784      1.871      6.802
REMARK INTER + INTRA:          -6.144
REMARK INTER:                  -6.894
REMARK INTRA:                   0.751
REMARK UNBOUND:                 0.598
REMARK  7 active torsions:
REMARK  status: ('A' for Active; 'I' for Inactive)
REMARK    1  A    between atoms: C_13  and  C_14 
REMARK    2  A    between atoms: C_14  and  C_19 
REMARK    3  A    between atoms: C_15  and  C_20 
REMARK    4  A    between atoms: C_16  and  C_21 
REMARK    5  A    between atoms: C_17  and  C_23 
REMARK    6  A    between atoms: C_18  and  C_26 
REMARK    7  A    between atoms: C_22  and  C_28 
ROOT
HETATM    1  O   UNL     1      61.405  49.841  19.562  1.00  0.00    -0.304 OA
HETATM    2  O   UNL     1      59.964  51.032  14.683  1.00  0.00    -0.304 OA
HETATM    3  O   UNL     1      63.577  48.033  15.227  1.00  0.00    -0.304 OA
HETATM    4  O   UNL     1      60.751  52.482  17.419  1.00  0.00    -0.270 OA
HETATM    5  O   UNL     1      60.146  48.517  18.155  1.00  0.00    -0.263 OA
HETATM    6  O   UNL     1      63.025  50.631  17.699  1.00  0.00    -0.270 OA
HETATM    7  O   UNL     1      62.687  49.104  12.300  1.00  0.00    -0.270 OA
HETATM    8  O   UNL     1      58.543  51.480  12.935  1.00  0.00    -0.263 OA
HETATM    9  O   UNL     1      65.000  49.463  14.118  1.00  0.00    -0.263 OA
HETATM   10  N   UNL     1      58.953  51.019  17.524  1.00  0.00    -0.340 N 
HETATM   11  N   UNL     1      64.358  48.742  17.636  1.00  0.00    -0.340 N 
HETATM   12  N   UNL     1      60.848  48.713  13.670  1.00  0.00    -0.340 N 
HETATM   13  C   UNL     1      59.290  50.664  18.918  1.00  0.00     0.190 C 
HETATM   14  C   UNL     1      65.145  49.311  16.521  1.00  0.00     0.190 C 
HETATM   15  C   UNL     1      59.942  49.513  12.819  1.00  0.00     0.190 C 
HETATM   16  C   UNL     1      59.518  52.208  15.387  1.00  0.00     0.227 C 
HETATM   17  C   UNL     1      62.567  49.000  19.389  1.00  0.00     0.227 C 
HETATM   18  C   UNL     1      62.996  47.474  14.036  1.00  0.00     0.227 C 
HETATM   19  C   UNL     1      59.799  51.925  16.860  1.00  0.00     0.250 C 
HETATM   20  C   UNL     1      60.299  49.530  18.824  1.00  0.00     0.283 C 
HETATM   21  C   UNL     1      63.328  49.529  18.170  1.00  0.00     0.250 C 
HETATM   22  C   UNL     1      62.176  48.512  13.255  1.00  0.00     0.250 C 
HETATM   23  C   UNL     1      59.388  50.774  13.476  1.00  0.00     0.283 C 
HETATM   24  C   UNL     1      64.565  48.965  15.151  1.00  0.00     0.283 C 
HETATM   25  C   UNL     1      57.783  50.375  16.917  1.00  0.00     0.153 C 
HETATM   26  C   UNL     1      64.684  47.385  18.080  1.00  0.00     0.153 C 
HETATM   27  C   UNL     1      60.261  48.017  14.816  1.00  0.00     0.153 C 
ENDROOT
BRANCH  17  28
HETATM   28  C   UNL     1      63.406  49.144  20.650  1.00  0.00     0.016 C 
HETATM   29  C   UNL     1      62.901  50.306  21.504  1.00  0.00     0.012 C 
HETATM   30  C   UNL     1      63.397  47.845  21.455  1.00  0.00     0.012 C 
ENDBRANCH  17  28
BRANCH  13  31
HETATM   31  C   UNL     1      58.120  50.254  19.805  1.00  0.00     0.014 C 
HETATM   32  C   UNL     1      58.635  49.487  21.024  1.00  0.00     0.012 C 
BRANCH  31  33
HETATM   33  C   UNL     1      57.301  51.496  20.200  1.00  0.00     0.002 C 
HETATM   34  C   UNL     1      55.796  51.299  20.087  1.00  0.00     0.005 C 
ENDBRANCH  31  33
ENDBRANCH  13  31
BRANCH  14  35
HETATM   35  C   UNL     1      66.627  48.941  16.561  1.00  0.00     0.010 C 
HETATM   36  C   UNL     1      66.969  47.958  15.442  1.00  0.00     0.012 C 
HETATM   37  C   UNL     1      67.500  50.192  16.459  1.00  0.00     0.012 C 
ENDBRANCH  14  35
BRANCH  16  38
HETATM   38  C   UNL     1      60.311  53.411  14.882  1.00  0.00     0.016 C 
HETATM   39  C   UNL     1      59.408  54.364  14.103  1.00  0.00     0.012 C 
HETATM   40  C   UNL     1      61.485  52.957  14.016  1.00  0.00     0.012 C 
ENDBRANCH  16  38
BRANCH  18  41
HETATM   41  C   UNL     1      64.041  46.773  13.168  1.00  0.00     0.016 C 
HETATM   42  C   UNL     1      63.401  46.225  11.895  1.00  0.00     0.012 C 
HETATM   43  C   UNL     1      64.725  45.654  13.950  1.00  0.00     0.012 C 
ENDBRANCH  18  41
BRANCH  15  44
HETATM   44  C   UNL     1      58.805  48.657  12.259  1.00  0.00     0.010 C 
HETATM   45  C   UNL     1      59.247  47.203  12.124  1.00  0.00     0.012 C 
HETATM   46  C   UNL     1      58.337  49.206  10.915  1.00  0.00     0.012 C 
ENDBRANCH  15  44
TORSDOF 7
ENDMDL
MODEL 18
REMARK VINA RESULT:    -4.761     18.772     22.816
REMARK INTER + INTRA:          -6.111
REMARK INTER:                  -7.625
REMARK INTRA:                   1.514
REMARK UNBOUND:                 0.598
REMARK  7 active torsions:
REMARK  status: ('A' for Active; 'I' for Inactive)
REMARK    1  A    between atoms: C_13  and  C_14 
REMARK    2  A    between atoms: C_14  and  C_19 
REMARK    3  A    between atoms: C_15  and  C_20 
REMARK    4  A    between atoms: C_16  and  C_21 
REMARK    5  A    between atoms: C_17  and  C_23 
REMARK    6  A    between atoms: C_18  and  C_26 
REMARK    7  A    between atoms: C_22  and  C_28 
ROOT
HETATM    1  O   UNL     1      40.959  51.486  31.455  1.00  0.00    -0.304 OA
HETATM    2  O   UNL     1      45.976  50.393  30.497  1.00  0.00    -0.304 OA
HETATM    3  O   UNL     1      44.807  54.929  31.127  1.00  0.00    -0.304 OA
HETATM    4  O   UNL     1      43.078  49.809  29.288  1.00  0.00    -0.270 OA
HETATM    5  O   UNL     1      42.655  51.410  33.016  1.00  0.00    -0.263 OA
HETATM    6  O   UNL     1      42.400  52.653  29.646  1.00  0.00    -0.270 OA
HETATM    7  O   UNL     1      47.809  54.054  30.271  1.00  0.00    -0.270 OA
HETATM    8  O   UNL     1      47.966  49.250  30.621  1.00  0.00    -0.263 OA
HETATM    9  O   UNL     1      45.528  55.464  29.008  1.00  0.00    -0.263 OA
HETATM   10  N   UNL     1      43.418  49.140  31.484  1.00  0.00    -0.340 N 
HETATM   11  N   UNL     1      42.260  54.804  30.487  1.00  0.00    -0.340 N 
HETATM   12  N   UNL     1      46.877  52.560  31.792  1.00  0.00    -0.340 N 
HETATM   13  C   UNL     1      42.000  49.399  31.810  1.00  0.00     0.190 C 
HETATM   14  C   UNL     1      43.158  55.299  29.422  1.00  0.00     0.190 C 
HETATM   15  C   UNL     1      47.866  51.505  31.484  1.00  0.00     0.190 C 
HETATM   16  C   UNL     1      45.334  49.266  29.868  1.00  0.00     0.227 C 
HETATM   17  C   UNL     1      40.917  52.929  31.502  1.00  0.00     0.227 C 
HETATM   18  C   UNL     1      46.117  54.948  31.722  1.00  0.00     0.227 C 
HETATM   19  C   UNL     1      43.848  49.428  30.177  1.00  0.00     0.250 C 
HETATM   20  C   UNL     1      41.927  50.868  32.195  1.00  0.00     0.283 C 
HETATM   21  C   UNL     1      41.923  53.442  30.469  1.00  0.00     0.250 C 
HETATM   22  C   UNL     1      47.009  53.820  31.182  1.00  0.00     0.250 C 
HETATM   23  C   UNL     1      47.288  50.250  30.835  1.00  0.00     0.283 C 
HETATM   24  C   UNL     1      44.633  55.228  29.812  1.00  0.00     0.283 C 
HETATM   25  C   UNL     1      44.285  48.636  32.553  1.00  0.00     0.153 C 
HETATM   26  C   UNL     1      41.814  55.757  31.506  1.00  0.00     0.153 C 
HETATM   27  C   UNL     1      45.912  52.293  32.859  1.00  0.00     0.153 C 
ENDROOT
BRANCH  17  28
HETATM   28  C   UNL     1      39.502  53.341  31.125  1.00  0.00     0.016 C 
HETATM   29  C   UNL     1      38.833  52.260  30.277  1.00  0.00     0.012 C 
HETATM   30  C   UNL     1      38.672  53.629  32.375  1.00  0.00     0.012 C 
ENDBRANCH  17  28
BRANCH  13  31
HETATM   31  C   UNL     1      41.400  48.536  32.914  1.00  0.00     0.014 C 
HETATM   32  C   UNL     1      41.062  49.404  34.127  1.00  0.00     0.012 C 
BRANCH  31  33
HETATM   33  C   UNL     1      40.172  47.778  32.378  1.00  0.00     0.002 C 
HETATM   34  C   UNL     1      39.139  47.452  33.447  1.00  0.00     0.005 C 
ENDBRANCH  31  33
ENDBRANCH  13  31
BRANCH  14  35
HETATM   35  C   UNL     1      42.820  56.710  28.940  1.00  0.00     0.010 C 
HETATM   36  C   UNL     1      43.724  57.114  27.777  1.00  0.00     0.012 C 
HETATM   37  C   UNL     1      41.350  56.804  28.531  1.00  0.00     0.012 C 
ENDBRANCH  14  35
BRANCH  16  38
HETATM   38  C   UNL     1      45.608  49.321  28.367  1.00  0.00     0.016 C 
HETATM   39  C   UNL     1      46.465  48.134  27.931  1.00  0.00     0.012 C 
HETATM   40  C   UNL     1      46.286  50.638  27.991  1.00  0.00     0.012 C 
ENDBRANCH  16  38
BRANCH  18  41
HETATM   41  C   UNL     1      46.773  56.324  31.609  1.00  0.00     0.016 C 
HETATM   42  C   UNL     1      48.030  56.392  32.473  1.00  0.00     0.012 C 
HETATM   43  C   UNL     1      45.788  57.421  32.008  1.00  0.00     0.012 C 
ENDBRANCH  18  41
BRANCH  15  44
HETATM   44  C   UNL     1      48.689  51.139  32.719  1.00  0.00     0.010 C 
HETATM   45  C   UNL     1      47.806  50.482  33.776  1.00  0.00     0.012 C 
HETATM   46  C   UNL     1      49.379  52.376  33.287  1.00  0.00     0.012 C 
ENDBRANCH  15  44
TORSDOF 7
ENDMDL
MODEL 19
REMARK VINA RESULT:    -4.552      1.791      6.569
REMARK INTER + INTRA:          -5.816
REMARK INTER:                  -8.358
REMARK INTRA:                   2.541
REMARK UNBOUND:                 0.598
REMARK  7 active torsions:
REMARK  status: ('A' for Active; 'I' for Inactive)
REMARK    1  A    between atoms: C_13  and  C_14 
REMARK    2  A    between atoms: C_14  and  C_19 
REMARK    3  A    between atoms: C_15  and  C_20 
REMARK    4  A    between atoms: C_16  and  C_21 
REMARK    5  A    between atoms: C_17  and  C_23 
REMARK    6  A    between atoms: C_18  and  C_26 
REMARK    7  A    between atoms: C_22  and  C_28 
ROOT
HETATM    1  O   UNL     1      60.754  49.177  19.422  1.00  0.00    -0.304 OA
HETATM    2  O   UNL     1      58.819  52.810  16.206  1.00  0.00    -0.304 OA
HETATM    3  O   UNL     1      60.460  48.823  14.268  1.00  0.00    -0.304 OA
HETATM    4  O   UNL     1      60.936  52.532  18.581  1.00  0.00    -0.270 OA
HETATM    5  O   UNL     1      58.674  49.141  18.427  1.00  0.00    -0.263 OA
HETATM    6  O   UNL     1      61.970  50.079  17.319  1.00  0.00    -0.270 OA
HETATM    7  O   UNL     1      59.453  51.306  12.444  1.00  0.00    -0.270 OA
HETATM    8  O   UNL     1      57.390  54.447  15.460  1.00  0.00    -0.263 OA
HETATM    9  O   UNL     1      62.037  49.993  13.067  1.00  0.00    -0.263 OA
HETATM   10  N   UNL     1      58.758  51.906  19.082  1.00  0.00    -0.340 N 
HETATM   11  N   UNL     1      62.115  48.077  16.170  1.00  0.00    -0.340 N 
HETATM   12  N   UNL     1      58.120  51.026  14.329  1.00  0.00    -0.340 N 
HETATM   13  C   UNL     1      59.242  50.882  20.030  1.00  0.00     0.190 C 
HETATM   14  C   UNL     1      62.740  48.762  15.018  1.00  0.00     0.190 C 
HETATM   15  C   UNL     1      57.537  52.380  14.217  1.00  0.00     0.190 C 
HETATM   16  C   UNL     1      59.227  53.630  17.318  1.00  0.00     0.227 C 
HETATM   17  C   UNL     1      61.248  48.150  18.535  1.00  0.00     0.227 C 
HETATM   18  C   UNL     1      59.377  49.087  13.359  1.00  0.00     0.227 C 
HETATM   19  C   UNL     1      59.722  52.650  18.378  1.00  0.00     0.250 C 
HETATM   20  C   UNL     1      59.486  49.632  19.200  1.00  0.00     0.283 C 
HETATM   21  C   UNL     1      61.803  48.855  17.294  1.00  0.00     0.250 C 
HETATM   22  C   UNL     1      59.001  50.576  13.331  1.00  0.00     0.250 C 
HETATM   23  C   UNL     1      57.885  53.329  15.360  1.00  0.00     0.283 C 
HETATM   24  C   UNL     1      61.715  49.280  14.012  1.00  0.00     0.283 C 
HETATM   25  C   UNL     1      57.309  52.051  18.911  1.00  0.00     0.153 C 
HETATM   26  C   UNL     1      61.833  46.645  16.045  1.00  0.00     0.153 C 
HETATM   27  C   UNL     1      57.606  50.153  15.386  1.00  0.00     0.153 C 
ENDROOT
BRANCH  17  28
HETATM   28  C   UNL     1      62.357  47.420  19.279  1.00  0.00     0.016 C 
HETATM   29  C   UNL     1      62.767  48.195  20.530  1.00  0.00     0.012 C 
HETATM   30  C   UNL     1      61.918  46.003  19.646  1.00  0.00     0.012 C 
ENDBRANCH  17  28
BRANCH  13  31
HETATM   31  C   UNL     1      58.318  50.565  21.200  1.00  0.00     0.014 C 
HETATM   32  C   UNL     1      57.953  51.854  21.939  1.00  0.00     0.012 C 
BRANCH  31  33
HETATM   33  C   UNL     1      57.075  49.808  20.698  1.00  0.00     0.002 C 
HETATM   34  C   UNL     1      56.754  48.556  21.502  1.00  0.00     0.005 C 
ENDBRANCH  31  33
ENDBRANCH  13  31
BRANCH  14  35
HETATM   35  C   UNL     1      63.789  47.917  14.295  1.00  0.00     0.010 C 
HETATM   36  C   UNL     1      63.276  47.473  12.927  1.00  0.00     0.012 C 
HETATM   37  C   UNL     1      65.099  48.692  14.149  1.00  0.00     0.012 C 
ENDBRANCH  14  35
BRANCH  16  38
HETATM   38  C   UNL     1      60.338  54.568  16.853  1.00  0.00     0.016 C 
HETATM   39  C   UNL     1      61.462  53.781  16.182  1.00  0.00     0.012 C 
HETATM   40  C   UNL     1      60.881  55.383  18.026  1.00  0.00     0.012 C 
ENDBRANCH  16  38
BRANCH  18  41
HETATM   41  C   UNL     1      59.653  48.522  11.966  1.00  0.00     0.016 C 
HETATM   42  C   UNL     1      58.521  48.882  11.006  1.00  0.00     0.012 C 
HETATM   43  C   UNL     1      59.842  47.008  12.029  1.00  0.00     0.012 C 
ENDBRANCH  18  41
BRANCH  15  44
HETATM   44  C   UNL     1      56.022  52.317  14.016  1.00  0.00     0.010 C 
HETATM   45  C   UNL     1      55.628  52.997  12.708  1.00  0.00     0.012 C 
HETATM   46  C   UNL     1      55.300  52.959  15.197  1.00  0.00     0.012 C 
ENDBRANCH  15  44
TORSDOF 7
ENDMDL
MODEL 20
REMARK VINA RESULT:    -4.463      2.397      5.219
REMARK INTER + INTRA:          -5.691
REMARK INTER:                  -6.378
REMARK INTRA:                   0.687
REMARK UNBOUND:                 0.598
REMARK  7 active torsions:
REMARK  status: ('A' for Active; 'I' for Inactive)
REMARK    1  A    between atoms: C_13  and  C_14 
REMARK    2  A    between atoms: C_14  and  C_19 
REMARK    3  A    between atoms: C_15  and  C_20 
REMARK    4  A    between atoms: C_16  and  C_21 
REMARK    5  A    between atoms: C_17  and  C_23 
REMARK    6  A    between atoms: C_18  and  C_26 
REMARK    7  A    between atoms: C_22  and  C_28 
ROOT
HETATM    1  O   UNL     1      58.292  50.711  18.142  1.00  0.00    -0.304 OA
HETATM    2  O   UNL     1      60.472  50.586  13.396  1.00  0.00    -0.304 OA
HETATM    3  O   UNL     1      57.856  54.365  14.503  1.00  0.00    -0.304 OA
HETATM    4  O   UNL     1      58.659  48.769  15.298  1.00  0.00    -0.270 OA
HETATM    5  O   UNL     1      60.182  51.857  17.484  1.00  0.00    -0.263 OA
HETATM    6  O   UNL     1      57.018  51.133  15.925  1.00  0.00    -0.270 OA
HETATM    7  O   UNL     1      59.086  53.964  11.530  1.00  0.00    -0.270 OA
HETATM    8  O   UNL     1      62.085  50.202  11.805  1.00  0.00    -0.263 OA
HETATM    9  O   UNL     1      56.397  53.926  12.777  1.00  0.00    -0.263 OA
HETATM   10  N   UNL     1      60.720  49.401  16.157  1.00  0.00    -0.340 N 
HETATM   11  N   UNL     1      56.342  53.300  16.371  1.00  0.00    -0.340 N 
HETATM   12  N   UNL     1      60.568  53.256  13.178  1.00  0.00    -0.340 N 
HETATM   13  C   UNL     1      60.171  49.424  17.529  1.00  0.00     0.190 C 
HETATM   14  C   UNL     1      55.721  53.402  15.033  1.00  0.00     0.190 C 
HETATM   15  C   UNL     1      61.383  52.477  12.223  1.00  0.00     0.190 C 
HETATM   16  C   UNL     1      60.375  49.177  13.681  1.00  0.00     0.227 C 
HETATM   17  C   UNL     1      57.500  51.919  18.132  1.00  0.00     0.227 C 
HETATM   18  C   UNL     1      58.846  55.008  13.680  1.00  0.00     0.227 C 
HETATM   19  C   UNL     1      59.837  49.092  15.107  1.00  0.00     0.250 C 
HETATM   20  C   UNL     1      59.586  50.814  17.717  1.00  0.00     0.283 C 
HETATM   21  C   UNL     1      56.940  52.079  16.716  1.00  0.00     0.250 C 
HETATM   22  C   UNL     1      59.497  54.027  12.693  1.00  0.00     0.250 C 
HETATM   23  C   UNL     1      61.373  50.968  12.449  1.00  0.00     0.283 C 
HETATM   24  C   UNL     1      56.692  53.909  13.968  1.00  0.00     0.283 C 
HETATM   25  C   UNL     1      62.137  49.738  15.981  1.00  0.00     0.153 C 
HETATM   26  C   UNL     1      56.323  54.488  17.227  1.00  0.00     0.153 C 
HETATM   27  C   UNL     1      61.033  53.328  14.564  1.00  0.00     0.153 C 
ENDROOT
BRANCH  17  28
HETATM   28  C   UNL     1      56.374  51.716  19.136  1.00  0.00     0.016 C 
HETATM   29  C   UNL     1      56.076  50.228  19.318  1.00  0.00     0.012 C 
HETATM   30  C   UNL     1      56.724  52.360  20.477  1.00  0.00     0.012 C 
ENDBRANCH  17  28
BRANCH  13  31
HETATM   31  C   UNL     1      61.157  49.111  18.649  1.00  0.00     0.014 C 
HETATM   32  C   UNL     1      60.545  49.487  19.999  1.00  0.00     0.012 C 
BRANCH  31  33
HETATM   33  C   UNL     1      61.569  47.629  18.587  1.00  0.00     0.002 C 
HETATM   34  C   UNL     1      61.952  47.044  19.939  1.00  0.00     0.005 C 
ENDBRANCH  31  33
ENDBRANCH  13  31
BRANCH  14  35
HETATM   35  C   UNL     1      54.445  54.243  15.009  1.00  0.00     0.010 C 
HETATM   36  C   UNL     1      54.715  55.616  14.396  1.00  0.00     0.012 C 
HETATM   37  C   UNL     1      53.338  53.523  14.240  1.00  0.00     0.012 C 
ENDBRANCH  14  35
BRANCH  16  38
HETATM   38  C   UNL     1      59.417  48.539  12.678  1.00  0.00     0.016 C 
HETATM   39  C   UNL     1      60.172  47.614  11.725  1.00  0.00     0.012 C 
HETATM   40  C   UNL     1      58.661  49.612  11.897  1.00  0.00     0.012 C 
ENDBRANCH  16  38
BRANCH  18  41
HETATM   41  C   UNL     1      58.291  56.255  12.993  1.00  0.00     0.016 C 
HETATM   42  C   UNL     1      59.348  56.885  12.090  1.00  0.00     0.012 C 
HETATM   43  C   UNL     1      57.799  57.263  14.029  1.00  0.00     0.012 C 
ENDBRANCH  18  41
BRANCH  15  44
HETATM   44  C   UNL     1      62.819  53.000  12.163  1.00  0.00     0.010 C 
HETATM   45  C   UNL     1      63.274  53.148  10.713  1.00  0.00     0.012 C 
HETATM   46  C   UNL     1      63.757  52.073  12.930  1.00  0.00     0.012 C 
ENDBRANCH  15  44
TORSDOF 7
ENDMDL
