MODEL 1
REMARK VINA RESULT:    -6.414      0.000      0.000
REMARK INTER + INTRA:          -7.227
REMARK INTER:                  -9.038
REMARK INTRA:                   1.811
REMARK UNBOUND:                 1.811
REMARK  7 active torsions:
REMARK  status: ('A' for Active; 'I' for Inactive)
REMARK    1  A    between atoms: C_13  and  C_14 
REMARK    2  A    between atoms: C_14  and  C_19 
REMARK    3  A    between atoms: C_15  and  C_20 
REMARK    4  A    between atoms: C_16  and  C_21 
REMARK    5  A    between atoms: C_17  and  C_23 
REMARK    6  A    between atoms: C_18  and  C_26 
REMARK    7  A    between atoms: C_22  and  C_28 
ROOT
HETATM    1  O   UNL     1      32.204  48.942  44.083  1.00  0.00    -0.304 OA
HETATM    2  O   UNL     1      28.179  46.343  46.166  1.00  0.00    -0.304 OA
HETATM    3  O   UNL     1      27.487  48.478  42.006  1.00  0.00    -0.304 OA
HETATM    4  O   UNL     1      30.315  48.580  46.963  1.00  0.00    -0.270 OA
HETATM    5  O   UNL     1      31.466  46.849  43.454  1.00  0.00    -0.263 OA
HETATM    6  O   UNL     1      29.820  49.914  44.384  1.00  0.00    -0.270 OA
HETATM    7  O   UNL     1      25.060  47.030  43.594  1.00  0.00    -0.270 OA
HETATM    8  O   UNL     1      27.080  44.652  47.267  1.00  0.00    -0.263 OA
HETATM    9  O   UNL     1      25.835  49.806  42.903  1.00  0.00    -0.263 OA
HETATM   10  N   UNL     1      31.186  46.544  46.266  1.00  0.00    -0.340 N 
HETATM   11  N   UNL     1      29.369  50.308  42.150  1.00  0.00    -0.340 N 
HETATM   12  N   UNL     1      27.048  45.838  43.788  1.00  0.00    -0.340 N 
HETATM   13  C   UNL     1      32.365  47.219  45.685  1.00  0.00     0.190 C 
HETATM   14  C   UNL     1      28.006  50.772  42.488  1.00  0.00     0.190 C 
HETATM   15  C   UNL     1      26.560  45.053  44.941  1.00  0.00     0.190 C 
HETATM   16  C   UNL     1      28.927  46.671  47.353  1.00  0.00     0.227 C 
HETATM   17  C   UNL     1      31.653  49.544  42.891  1.00  0.00     0.227 C 
HETATM   18  C   UNL     1      26.643  47.328  41.813  1.00  0.00     0.227 C 
HETATM   19  C   UNL     1      30.196  47.354  46.852  1.00  0.00     0.250 C 
HETATM   20  C   UNL     1      31.963  47.611  44.273  1.00  0.00     0.283 C 
HETATM   21  C   UNL     1      30.206  49.932  43.210  1.00  0.00     0.250 C 
HETATM   22  C   UNL     1      26.172  46.732  43.148  1.00  0.00     0.250 C 
HETATM   23  C   UNL     1      27.301  45.306  46.252  1.00  0.00     0.283 C 
HETATM   24  C   UNL     1      26.984  49.637  42.509  1.00  0.00     0.283 C 
HETATM   25  C   UNL     1      31.111  45.084  46.161  1.00  0.00     0.153 C 
HETATM   26  C   UNL     1      29.738  50.240  40.734  1.00  0.00     0.153 C 
HETATM   27  C   UNL     1      28.371  45.508  43.256  1.00  0.00     0.153 C 
ENDROOT
BRANCH  17  28
HETATM   28  C   UNL     1      32.488  50.782  42.597  1.00  0.00     0.016 C 
HETATM   29  C   UNL     1      33.264  51.216  43.840  1.00  0.00     0.012 C 
HETATM   30  C   UNL     1      33.443  50.524  41.433  1.00  0.00     0.012 C 
ENDBRANCH  17  28
BRANCH  13  31
HETATM   31  C   UNL     1      33.654  46.405  45.659  1.00  0.00     0.014 C 
HETATM   32  C   UNL     1      34.758  47.203  44.964  1.00  0.00     0.012 C 
BRANCH  31  33
HETATM   33  C   UNL     1      34.044  45.992  47.089  1.00  0.00     0.002 C 
HETATM   34  C   UNL     1      34.649  44.598  47.181  1.00  0.00     0.005 C 
ENDBRANCH  31  33
ENDBRANCH  13  31
BRANCH  14  35
HETATM   35  C   UNL     1      27.501  51.903  41.593  1.00  0.00     0.010 C 
HETATM   36  C   UNL     1      26.370  51.414  40.690  1.00  0.00     0.012 C 
HETATM   37  C   UNL     1      27.037  53.092  42.434  1.00  0.00     0.012 C 
ENDBRANCH  14  35
BRANCH  16  38
HETATM   38  C   UNL     1      28.086  47.607  48.218  1.00  0.00     0.016 C 
HETATM   39  C   UNL     1      27.780  48.903  47.469  1.00  0.00     0.012 C 
HETATM   40  C   UNL     1      28.796  47.906  49.537  1.00  0.00     0.012 C 
ENDBRANCH  16  38
BRANCH  18  41
HETATM   41  C   UNL     1      25.487  47.625  40.859  1.00  0.00     0.016 C 
HETATM   42  C   UNL     1      24.670  46.362  40.597  1.00  0.00     0.012 C 
HETATM   43  C   UNL     1      26.010  48.207  39.548  1.00  0.00     0.012 C 
ENDBRANCH  18  41
BRANCH  15  44
HETATM   44  C   UNL     1      26.528  43.558  44.623  1.00  0.00     0.010 C 
HETATM   45  C   UNL     1      27.789  43.145  43.868  1.00  0.00     0.012 C 
HETATM   46  C   UNL     1      25.280  43.210  43.818  1.00  0.00     0.012 C 
ENDBRANCH  15  44
TORSDOF 7
ENDMDL
MODEL 2
REMARK VINA RESULT:    -6.398      2.046      6.148
REMARK INTER + INTRA:          -7.205
REMARK INTER:                  -8.252
REMARK INTRA:                   1.047
REMARK UNBOUND:                 1.811
REMARK  7 active torsions:
REMARK  status: ('A' for Active; 'I' for Inactive)
REMARK    1  A    between atoms: C_13  and  C_14 
REMARK    2  A    between atoms: C_14  and  C_19 
REMARK    3  A    between atoms: C_15  and  C_20 
REMARK    4  A    between atoms: C_16  and  C_21 
REMARK    5  A    between atoms: C_17  and  C_23 
REMARK    6  A    between atoms: C_18  and  C_26 
REMARK    7  A    between atoms: C_22  and  C_28 
ROOT
HETATM    1  O   UNL     1      25.941  46.748  42.040  1.00  0.00    -0.304 OA
HETATM    2  O   UNL     1      29.233  48.245  45.810  1.00  0.00    -0.304 OA
HETATM    3  O   UNL     1      26.905  51.627  43.469  1.00  0.00    -0.304 OA
HETATM    4  O   UNL     1      29.186  46.401  43.203  1.00  0.00    -0.270 OA
HETATM    5  O   UNL     1      25.356  47.420  44.167  1.00  0.00    -0.263 OA
HETATM    6  O   UNL     1      27.782  48.550  41.758  1.00  0.00    -0.270 OA
HETATM    7  O   UNL     1      29.179  52.343  45.665  1.00  0.00    -0.270 OA
HETATM    8  O   UNL     1      30.307  48.194  47.841  1.00  0.00    -0.263 OA
HETATM    9  O   UNL     1      28.880  52.545  42.723  1.00  0.00    -0.263 OA
HETATM   10  N   UNL     1      27.640  45.872  44.851  1.00  0.00    -0.340 N 
HETATM   11  N   UNL     1      26.391  50.326  41.243  1.00  0.00    -0.340 N 
HETATM   12  N   UNL     1      27.897  50.514  46.317  1.00  0.00    -0.340 N 
HETATM   13  C   UNL     1      26.676  45.403  43.833  1.00  0.00     0.190 C 
HETATM   14  C   UNL     1      27.551  51.242  41.189  1.00  0.00     0.190 C 
HETATM   15  C   UNL     1      28.885  50.079  47.327  1.00  0.00     0.190 C 
HETATM   16  C   UNL     1      29.814  46.981  45.437  1.00  0.00     0.227 C 
HETATM   17  C   UNL     1      25.474  47.990  41.469  1.00  0.00     0.227 C 
HETATM   18  C   UNL     1      26.954  52.244  44.768  1.00  0.00     0.227 C 
HETATM   19  C   UNL     1      28.864  46.394  44.397  1.00  0.00     0.250 C 
HETATM   20  C   UNL     1      25.900  46.636  43.401  1.00  0.00     0.283 C 
HETATM   21  C   UNL     1      26.648  48.973  41.508  1.00  0.00     0.250 C 
HETATM   22  C   UNL     1      28.120  51.710  45.613  1.00  0.00     0.250 C 
HETATM   23  C   UNL     1      29.548  48.734  47.042  1.00  0.00     0.283 C 
HETATM   24  C   UNL     1      27.872  51.869  42.544  1.00  0.00     0.283 C 
HETATM   25  C   UNL     1      27.240  45.795  46.260  1.00  0.00     0.153 C 
HETATM   26  C   UNL     1      25.056  50.898  41.053  1.00  0.00     0.153 C 
HETATM   27  C   UNL     1      26.643  49.765  46.231  1.00  0.00     0.153 C 
ENDROOT
BRANCH  17  28
HETATM   28  C   UNL     1      25.071  47.690  40.033  1.00  0.00     0.016 C 
HETATM   29  C   UNL     1      26.196  48.063  39.068  1.00  0.00     0.012 C 
HETATM   30  C   UNL     1      24.697  46.217  39.873  1.00  0.00     0.012 C 
ENDBRANCH  17  28
BRANCH  13  31
HETATM   31  C   UNL     1      25.717  44.305  44.278  1.00  0.00     0.014 C 
HETATM   32  C   UNL     1      24.594  44.150  43.251  1.00  0.00     0.012 C 
BRANCH  31  33
HETATM   33  C   UNL     1      26.488  42.993  44.503  1.00  0.00     0.002 C 
HETATM   34  C   UNL     1      27.692  42.825  43.586  1.00  0.00     0.005 C 
ENDBRANCH  31  33
ENDBRANCH  13  31
BRANCH  14  35
HETATM   35  C   UNL     1      27.419  52.339  40.132  1.00  0.00     0.010 C 
HETATM   36  C   UNL     1      27.245  53.706  40.791  1.00  0.00     0.012 C 
HETATM   37  C   UNL     1      28.634  52.344  39.204  1.00  0.00     0.012 C 
ENDBRANCH  14  35
BRANCH  16  38
HETATM   38  C   UNL     1      31.203  47.233  44.854  1.00  0.00     0.016 C 
HETATM   39  C   UNL     1      32.286  46.723  45.803  1.00  0.00     0.012 C 
HETATM   40  C   UNL     1      31.403  48.719  44.562  1.00  0.00     0.012 C 
ENDBRANCH  16  38
BRANCH  18  41
HETATM   41  C   UNL     1      26.943  53.769  44.674  1.00  0.00     0.016 C 
HETATM   42  C   UNL     1      27.025  54.393  46.065  1.00  0.00     0.012 C 
HETATM   43  C   UNL     1      25.693  54.253  43.941  1.00  0.00     0.012 C 
ENDBRANCH  18  41
BRANCH  15  44
HETATM   44  C   UNL     1      28.285  50.094  48.733  1.00  0.00     0.010 C 
HETATM   45  C   UNL     1      29.200  50.845  49.697  1.00  0.00     0.012 C 
HETATM   46  C   UNL     1      28.038  48.670  49.223  1.00  0.00     0.012 C 
ENDBRANCH  15  44
TORSDOF 7
ENDMDL
MODEL 3
REMARK VINA RESULT:    -6.152      2.099      6.680
REMARK INTER + INTRA:          -6.858
REMARK INTER:                  -7.718
REMARK INTRA:                   0.860
REMARK UNBOUND:                 1.811
REMARK  7 active torsions:
REMARK  status: ('A' for Active; 'I' for Inactive)
REMARK    1  A    between atoms: C_13  and  C_14 
REMARK    2  A    between atoms: C_14  and  C_19 
REMARK    3  A    between atoms: C_15  and  C_20 
REMARK    4  A    between atoms: C_16  and  C_21 
REMARK    5  A    between atoms: C_17  and  C_23 
REMARK    6  A    between atoms: C_18  and  C_26 
REMARK    7  A    between atoms: C_22  and  C_28 
ROOT
HETATM    1  O   UNL     1      28.195  52.043  42.229  1.00  0.00    -0.304 OA
HETATM    2  O   UNL     1      27.001  47.368  44.230  1.00  0.00    -0.304 OA
HETATM    3  O   UNL     1      31.570  48.564  44.040  1.00  0.00    -0.304 OA
HETATM    4  O   UNL     1      26.427  49.126  41.626  1.00  0.00    -0.270 OA
HETATM    5  O   UNL     1      28.136  51.499  44.469  1.00  0.00    -0.263 OA
HETATM    6  O   UNL     1      29.290  49.809  41.506  1.00  0.00    -0.270 OA
HETATM    7  O   UNL     1      30.627  45.617  45.005  1.00  0.00    -0.270 OA
HETATM    8  O   UNL     1      25.833  45.813  45.454  1.00  0.00    -0.263 OA
HETATM    9  O   UNL     1      32.036  46.775  42.668  1.00  0.00    -0.263 OA
HETATM   10  N   UNL     1      25.814  50.079  43.651  1.00  0.00    -0.340 N 
HETATM   11  N   UNL     1      31.465  50.332  42.096  1.00  0.00    -0.340 N 
HETATM   12  N   UNL     1      29.190  47.276  45.776  1.00  0.00    -0.340 N 
HETATM   13  C   UNL     1      26.104  51.431  43.133  1.00  0.00     0.190 C 
HETATM   14  C   UNL     1      31.917  48.981  41.701  1.00  0.00     0.190 C 
HETATM   15  C   UNL     1      28.112  46.313  46.084  1.00  0.00     0.190 C 
HETATM   16  C   UNL     1      25.867  47.585  43.368  1.00  0.00     0.227 C 
HETATM   17  C   UNL     1      29.639  52.064  42.224  1.00  0.00     0.227 C 
HETATM   18  C   UNL     1      31.586  47.803  45.261  1.00  0.00     0.227 C 
HETATM   19  C   UNL     1      26.059  48.988  42.798  1.00  0.00     0.250 C 
HETATM   20  C   UNL     1      27.583  51.665  43.390  1.00  0.00     0.283 C 
HETATM   21  C   UNL     1      30.109  50.640  41.914  1.00  0.00     0.250 C 
HETATM   22  C   UNL     1      30.430  46.794  45.323  1.00  0.00     0.250 C 
HETATM   23  C   UNL     1      26.849  46.469  45.242  1.00  0.00     0.283 C 
HETATM   24  C   UNL     1      31.835  47.972  42.844  1.00  0.00     0.283 C 
HETATM   25  C   UNL     1      25.327  49.963  45.030  1.00  0.00     0.153 C 
HETATM   26  C   UNL     1      32.452  51.241  42.683  1.00  0.00     0.153 C 
HETATM   27  C   UNL     1      28.967  48.678  46.132  1.00  0.00     0.153 C 
ENDROOT
BRANCH  17  28
HETATM   28  C   UNL     1      30.062  53.021  41.118  1.00  0.00     0.016 C 
HETATM   29  C   UNL     1      28.970  53.133  40.055  1.00  0.00     0.012 C 
HETATM   30  C   UNL     1      30.392  54.398  41.694  1.00  0.00     0.012 C 
ENDBRANCH  17  28
BRANCH  13  31
HETATM   31  C   UNL     1      25.280  52.567  43.730  1.00  0.00     0.014 C 
HETATM   32  C   UNL     1      26.001  53.899  43.519  1.00  0.00     0.012 C 
BRANCH  31  33
HETATM   33  C   UNL     1      23.866  52.565  43.123  1.00  0.00     0.002 C 
HETATM   34  C   UNL     1      22.756  52.705  44.156  1.00  0.00     0.005 C 
ENDBRANCH  31  33
ENDBRANCH  13  31
BRANCH  14  35
HETATM   35  C   UNL     1      33.319  48.955  41.091  1.00  0.00     0.010 C 
HETATM   36  C   UNL     1      34.330  48.389  42.086  1.00  0.00     0.012 C 
HETATM   37  C   UNL     1      33.330  48.143  39.797  1.00  0.00     0.012 C 
ENDBRANCH  14  35
BRANCH  16  38
HETATM   38  C   UNL     1      25.877  46.524  42.270  1.00  0.00     0.016 C 
HETATM   39  C   UNL     1      24.574  45.726  42.280  1.00  0.00     0.012 C 
HETATM   40  C   UNL     1      27.076  45.592  42.432  1.00  0.00     0.012 C 
ENDBRANCH  16  38
BRANCH  18  41
HETATM   41  C   UNL     1      32.948  47.157  45.510  1.00  0.00     0.016 C 
HETATM   42  C   UNL     1      32.916  46.311  46.781  1.00  0.00     0.012 C 
HETATM   43  C   UNL     1      34.038  48.223  45.602  1.00  0.00     0.012 C 
ENDBRANCH  18  41
BRANCH  15  44
HETATM   44  C   UNL     1      27.768  46.322  47.574  1.00  0.00     0.010 C 
HETATM   45  C   UNL     1      29.024  46.109  48.414  1.00  0.00     0.012 C 
HETATM   46  C   UNL     1      26.722  45.256  47.886  1.00  0.00     0.012 C 
ENDBRANCH  15  44
TORSDOF 7
ENDMDL
MODEL 4
REMARK VINA RESULT:    -6.086      1.979      6.733
REMARK INTER + INTRA:          -6.765
REMARK INTER:                  -7.913
REMARK INTRA:                   1.148
REMARK UNBOUND:                 1.811
REMARK  7 active torsions:
REMARK  status: ('A' for Active; 'I' for Inactive)
REMARK    1  A    between atoms: C_13  and  C_14 
REMARK    2  A    between atoms: C_14  and  C_19 
REMARK    3  A    between atoms: C_15  and  C_20 
REMARK    4  A    between atoms: C_16  and  C_21 
REMARK    5  A    between atoms: C_17  and  C_23 
REMARK    6  A    between atoms: C_18  and  C_26 
REMARK    7  A    between atoms: C_22  and  C_28 
ROOT
HETATM    1  O   UNL     1      28.649  50.891  43.065  1.00  0.00    -0.304 OA
HETATM    2  O   UNL     1      27.908  46.017  44.794  1.00  0.00    -0.304 OA
HETATM    3  O   UNL     1      31.992  48.129  45.890  1.00  0.00    -0.304 OA
HETATM    4  O   UNL     1      27.767  47.690  42.077  1.00  0.00    -0.270 OA
HETATM    5  O   UNL     1      28.058  50.285  45.210  1.00  0.00    -0.263 OA
HETATM    6  O   UNL     1      30.340  48.949  42.765  1.00  0.00    -0.270 OA
HETATM    7  O   UNL     1      31.432  45.026  46.641  1.00  0.00    -0.270 OA
HETATM    8  O   UNL     1      26.779  44.223  45.680  1.00  0.00    -0.263 OA
HETATM    9  O   UNL     1      33.190  46.512  44.773  1.00  0.00    -0.263 OA
HETATM   10  N   UNL     1      26.412  48.441  43.805  1.00  0.00    -0.340 N 
HETATM   11  N   UNL     1      32.095  49.891  43.941  1.00  0.00    -0.340 N 
HETATM   12  N   UNL     1      29.527  46.333  46.907  1.00  0.00    -0.340 N 
HETATM   13  C   UNL     1      26.557  49.838  43.347  1.00  0.00     0.190 C 
HETATM   14  C   UNL     1      32.909  48.673  43.739  1.00  0.00     0.190 C 
HETATM   15  C   UNL     1      28.626  45.162  46.923  1.00  0.00     0.190 C 
HETATM   16  C   UNL     1      27.053  46.020  43.633  1.00  0.00     0.227 C 
HETATM   17  C   UNL     1      29.997  51.207  43.477  1.00  0.00     0.227 C 
HETATM   18  C   UNL     1      31.809  47.355  47.089  1.00  0.00     0.227 C 
HETATM   19  C   UNL     1      27.112  47.448  43.097  1.00  0.00     0.250 C 
HETATM   20  C   UNL     1      27.819  50.363  44.012  1.00  0.00     0.283 C 
HETATM   21  C   UNL     1      30.817  49.919  43.365  1.00  0.00     0.250 C 
HETATM   22  C   UNL     1      30.916  46.128  46.849  1.00  0.00     0.250 C 
HETATM   23  C   UNL     1      27.657  45.078  45.748  1.00  0.00     0.283 C 
HETATM   24  C   UNL     1      32.707  47.637  44.843  1.00  0.00     0.283 C 
HETATM   25  C   UNL     1      25.581  48.191  44.987  1.00  0.00     0.153 C 
HETATM   26  C   UNL     1      32.663  50.967  44.757  1.00  0.00     0.153 C 
HETATM   27  C   UNL     1      28.929  47.650  47.137  1.00  0.00     0.153 C 
ENDROOT
BRANCH  17  28
HETATM   28  C   UNL     1      30.517  52.261  42.509  1.00  0.00     0.016 C 
HETATM   29  C   UNL     1      29.735  52.221  41.197  1.00  0.00     0.012 C 
HETATM   30  C   UNL     1      30.442  53.653  43.135  1.00  0.00     0.012 C 
ENDBRANCH  17  28
BRANCH  13  31
HETATM   31  C   UNL     1      25.382  50.764  43.643  1.00  0.00     0.014 C 
HETATM   32  C   UNL     1      25.795  51.814  44.675  1.00  0.00     0.012 C 
BRANCH  31  33
HETATM   33  C   UNL     1      24.872  51.398  42.337  1.00  0.00     0.002 C 
HETATM   34  C   UNL     1      25.186  50.577  41.094  1.00  0.00     0.005 C 
ENDBRANCH  31  33
ENDBRANCH  13  31
BRANCH  14  35
HETATM   35  C   UNL     1      34.401  48.952  43.561  1.00  0.00     0.010 C 
HETATM   36  C   UNL     1      35.211  48.285  44.671  1.00  0.00     0.012 C 
HETATM   37  C   UNL     1      34.880  48.477  42.190  1.00  0.00     0.012 C 
ENDBRANCH  14  35
BRANCH  16  38
HETATM   38  C   UNL     1      27.597  45.014  42.622  1.00  0.00     0.016 C 
HETATM   39  C   UNL     1      26.604  43.872  42.411  1.00  0.00     0.012 C 
HETATM   40  C   UNL     1      28.950  44.470  43.076  1.00  0.00     0.012 C 
ENDBRANCH  16  38
BRANCH  18  41
HETATM   41  C   UNL     1      33.142  46.995  47.743  1.00  0.00     0.016 C 
HETATM   42  C   UNL     1      32.914  46.176  49.011  1.00  0.00     0.012 C 
HETATM   43  C   UNL     1      33.943  48.257  48.055  1.00  0.00     0.012 C 
ENDBRANCH  18  41
BRANCH  15  44
HETATM   44  C   UNL     1      27.871  45.059  48.249  1.00  0.00     0.010 C 
HETATM   45  C   UNL     1      27.035  46.314  48.486  1.00  0.00     0.012 C 
HETATM   46  C   UNL     1      28.845  44.834  49.402  1.00  0.00     0.012 C 
ENDBRANCH  15  44
TORSDOF 7
ENDMDL
MODEL 5
REMARK VINA RESULT:    -6.080     10.070     14.968
REMARK INTER + INTRA:          -6.757
REMARK INTER:                  -7.543
REMARK INTRA:                   0.786
REMARK UNBOUND:                 1.811
REMARK  7 active torsions:
REMARK  status: ('A' for Active; 'I' for Inactive)
REMARK    1  A    between atoms: C_13  and  C_14 
REMARK    2  A    between atoms: C_14  and  C_19 
REMARK    3  A    between atoms: C_15  and  C_20 
REMARK    4  A    between atoms: C_16  and  C_21 
REMARK    5  A    between atoms: C_17  and  C_23 
REMARK    6  A    between atoms: C_18  and  C_26 
REMARK    7  A    between atoms: C_22  and  C_28 
ROOT
HETATM    1  O   UNL     1      41.411  42.437  47.756  1.00  0.00    -0.304 OA
HETATM    2  O   UNL     1      42.980  42.461  42.773  1.00  0.00    -0.304 OA
HETATM    3  O   UNL     1      41.801  46.606  44.715  1.00  0.00    -0.304 OA
HETATM    4  O   UNL     1      40.878  40.973  44.663  1.00  0.00    -0.270 OA
HETATM    5  O   UNL     1      43.494  43.064  46.990  1.00  0.00    -0.263 OA
HETATM    6  O   UNL     1      40.130  43.579  45.814  1.00  0.00    -0.270 OA
HETATM    7  O   UNL     1      42.554  46.358  41.572  1.00  0.00    -0.270 OA
HETATM    8  O   UNL     1      44.232  41.886  40.934  1.00  0.00    -0.263 OA
HETATM    9  O   UNL     1      40.121  46.912  43.172  1.00  0.00    -0.263 OA
HETATM   10  N   UNL     1      43.105  40.815  45.296  1.00  0.00    -0.340 N 
HETATM   11  N   UNL     1      40.214  45.743  46.626  1.00  0.00    -0.340 N 
HETATM   12  N   UNL     1      43.889  44.981  42.888  1.00  0.00    -0.340 N 
HETATM   13  C   UNL     1      42.723  40.771  46.723  1.00  0.00     0.190 C 
HETATM   14  C   UNL     1      39.533  46.245  45.413  1.00  0.00     0.190 C 
HETATM   15  C   UNL     1      44.324  44.164  41.736  1.00  0.00     0.190 C 
HETATM   16  C   UNL     1      42.473  41.117  42.886  1.00  0.00     0.227 C 
HETATM   17  C   UNL     1      41.042  43.810  48.014  1.00  0.00     0.227 C 
HETATM   18  C   UNL     1      42.860  47.054  43.850  1.00  0.00     0.227 C 
HETATM   19  C   UNL     1      42.074  40.960  44.351  1.00  0.00     0.250 C 
HETATM   20  C   UNL     1      42.625  42.221  47.169  1.00  0.00     0.283 C 
HETATM   21  C   UNL     1      40.428  44.361  46.724  1.00  0.00     0.250 C 
HETATM   22  C   UNL     1      43.073  46.102  42.663  1.00  0.00     0.250 C 
HETATM   23  C   UNL     1      43.861  42.710  41.765  1.00  0.00     0.283 C 
HETATM   24  C   UNL     1      40.507  46.611  44.296  1.00  0.00     0.283 C 
HETATM   25  C   UNL     1      44.532  40.741  44.966  1.00  0.00     0.153 C 
HETATM   26  C   UNL     1      40.651  46.725  47.622  1.00  0.00     0.153 C 
HETATM   27  C   UNL     1      44.482  44.681  44.193  1.00  0.00     0.153 C 
ENDROOT
BRANCH  17  28
HETATM   28  C   UNL     1      40.010  43.785  49.132  1.00  0.00     0.016 C 
HETATM   29  C   UNL     1      39.714  42.349  49.562  1.00  0.00     0.012 C 
HETATM   30  C   UNL     1      40.487  44.613  50.325  1.00  0.00     0.012 C 
ENDBRANCH  17  28
BRANCH  13  31
HETATM   31  C   UNL     1      43.663  40.000  47.643  1.00  0.00     0.014 C 
HETATM   32  C   UNL     1      43.490  40.481  49.084  1.00  0.00     0.012 C 
BRANCH  31  33
HETATM   33  C   UNL     1      43.415  38.488  47.498  1.00  0.00     0.002 C 
HETATM   34  C   UNL     1      44.661  37.695  47.132  1.00  0.00     0.005 C 
ENDBRANCH  31  33
ENDBRANCH  13  31
BRANCH  14  35
HETATM   35  C   UNL     1      38.589  47.418  45.679  1.00  0.00     0.010 C 
HETATM   36  C   UNL     1      39.161  48.711  45.102  1.00  0.00     0.012 C 
HETATM   37  C   UNL     1      37.204  47.139  45.096  1.00  0.00     0.012 C 
ENDBRANCH  14  35
BRANCH  16  38
HETATM   38  C   UNL     1      41.272  40.966  41.955  1.00  0.00     0.016 C 
HETATM   39  C   UNL     1      41.510  39.845  40.945  1.00  0.00     0.012 C 
HETATM   40  C   UNL     1      40.980  42.282  41.236  1.00  0.00     0.012 C 
ENDBRANCH  16  38
BRANCH  18  41
HETATM   41  C   UNL     1      42.662  48.506  43.415  1.00  0.00     0.016 C 
HETATM   42  C   UNL     1      43.785  48.943  42.477  1.00  0.00     0.012 C 
HETATM   43  C   UNL     1      42.590  49.425  44.631  1.00  0.00     0.012 C 
ENDBRANCH  18  41
BRANCH  15  44
HETATM   44  C   UNL     1      45.838  44.241  41.541  1.00  0.00     0.010 C 
HETATM   45  C   UNL     1      46.177  44.460  40.069  1.00  0.00     0.012 C 
HETATM   46  C   UNL     1      46.509  42.975  42.065  1.00  0.00     0.012 C 
ENDBRANCH  15  44
TORSDOF 7
ENDMDL
MODEL 6
REMARK VINA RESULT:    -5.833     10.660     15.579
REMARK INTER + INTRA:          -6.408
REMARK INTER:                  -7.092
REMARK INTRA:                   0.684
REMARK UNBOUND:                 1.811
REMARK  7 active torsions:
REMARK  status: ('A' for Active; 'I' for Inactive)
REMARK    1  A    between atoms: C_13  and  C_14 
REMARK    2  A    between atoms: C_14  and  C_19 
REMARK    3  A    between atoms: C_15  and  C_20 
REMARK    4  A    between atoms: C_16  and  C_21 
REMARK    5  A    between atoms: C_17  and  C_23 
REMARK    6  A    between atoms: C_18  and  C_26 
REMARK    7  A    between atoms: C_22  and  C_28 
ROOT
HETATM    1  O   UNL     1      40.693  44.300  44.228  1.00  0.00    -0.304 OA
HETATM    2  O   UNL     1      44.481  41.518  46.508  1.00  0.00    -0.304 OA
HETATM    3  O   UNL     1      40.592  42.408  49.043  1.00  0.00    -0.304 OA
HETATM    4  O   UNL     1      44.085  44.265  44.928  1.00  0.00    -0.270 OA
HETATM    5  O   UNL     1      40.709  42.013  44.525  1.00  0.00    -0.263 OA
HETATM    6  O   UNL     1      41.696  44.814  46.561  1.00  0.00    -0.270 OA
HETATM    7  O   UNL     1      43.163  40.924  50.345  1.00  0.00    -0.270 OA
HETATM    8  O   UNL     1      46.155  39.955  46.694  1.00  0.00    -0.263 OA
HETATM    9  O   UNL     1      41.818  43.551  50.621  1.00  0.00    -0.263 OA
HETATM   10  N   UNL     1      43.438  42.342  43.802  1.00  0.00    -0.340 N 
HETATM   11  N   UNL     1      39.752  44.562  47.789  1.00  0.00    -0.340 N 
HETATM   12  N   UNL     1      42.793  40.240  48.153  1.00  0.00    -0.340 N 
HETATM   13  C   UNL     1      42.368  43.081  43.100  1.00  0.00     0.190 C 
HETATM   14  C   UNL     1      40.492  44.807  49.046  1.00  0.00     0.190 C 
HETATM   15  C   UNL     1      44.150  39.673  48.015  1.00  0.00     0.190 C 
HETATM   16  C   UNL     1      45.246  42.266  45.542  1.00  0.00     0.227 C 
HETATM   17  C   UNL     1      39.710  44.476  45.271  1.00  0.00     0.227 C 
HETATM   18  C   UNL     1      40.902  41.100  49.556  1.00  0.00     0.227 C 
HETATM   19  C   UNL     1      44.215  43.051  44.736  1.00  0.00     0.250 C 
HETATM   20  C   UNL     1      41.161  43.033  44.021  1.00  0.00     0.283 C 
HETATM   21  C   UNL     1      40.475  44.628  46.589  1.00  0.00     0.250 C 
HETATM   22  C   UNL     1      42.391  40.759  49.396  1.00  0.00     0.250 C 
HETATM   23  C   UNL     1      45.042  40.376  46.995  1.00  0.00     0.283 C 
HETATM   24  C   UNL     1      41.060  43.528  49.657  1.00  0.00     0.283 C 
HETATM   25  C   UNL     1      43.593  40.914  43.504  1.00  0.00     0.153 C 
HETATM   26  C   UNL     1      38.329  44.231  47.886  1.00  0.00     0.153 C 
HETATM   27  C   UNL     1      41.870  40.067  47.030  1.00  0.00     0.153 C 
ENDROOT
BRANCH  17  28
HETATM   28  C   UNL     1      38.944  45.749  44.945  1.00  0.00     0.016 C 
HETATM   29  C   UNL     1      39.714  46.598  43.934  1.00  0.00     0.012 C 
HETATM   30  C   UNL     1      37.549  45.419  44.415  1.00  0.00     0.012 C 
ENDBRANCH  17  28
BRANCH  13  31
HETATM   31  C   UNL     1      41.995  42.562  41.716  1.00  0.00     0.014 C 
HETATM   32  C   UNL     1      40.717  43.248  41.231  1.00  0.00     0.012 C 
BRANCH  31  33
HETATM   33  C   UNL     1      43.172  42.766  40.745  1.00  0.00     0.002 C 
HETATM   34  C   UNL     1      43.616  44.216  40.617  1.00  0.00     0.005 C 
ENDBRANCH  31  33
ENDBRANCH  13  31
BRANCH  14  35
HETATM   35  C   UNL     1      39.683  45.565  50.099  1.00  0.00     0.010 C 
HETATM   36  C   UNL     1      39.253  44.629  51.226  1.00  0.00     0.012 C 
HETATM   37  C   UNL     1      40.487  46.739  50.656  1.00  0.00     0.012 C 
ENDBRANCH  14  35
BRANCH  16  38
HETATM   38  C   UNL     1      46.204  43.191  46.287  1.00  0.00     0.016 C 
HETATM   39  C   UNL     1      47.651  42.748  46.081  1.00  0.00     0.012 C 
HETATM   40  C   UNL     1      45.864  43.235  47.776  1.00  0.00     0.012 C 
ENDBRANCH  16  38
BRANCH  18  41
HETATM   41  C   UNL     1      40.405  40.919  50.990  1.00  0.00     0.016 C 
HETATM   42  C   UNL     1      40.975  39.639  51.597  1.00  0.00     0.012 C 
HETATM   43  C   UNL     1      38.879  40.900  51.030  1.00  0.00     0.012 C 
ENDBRANCH  18  41
BRANCH  15  44
HETATM   44  C   UNL     1      44.099  38.170  47.736  1.00  0.00     0.010 C 
HETATM   45  C   UNL     1      45.114  37.430  48.604  1.00  0.00     0.012 C 
HETATM   46  C   UNL     1      44.351  37.893  46.257  1.00  0.00     0.012 C 
ENDBRANCH  15  44
TORSDOF 7
ENDMDL
MODEL 7
REMARK VINA RESULT:    -5.831      2.349      7.403
REMARK INTER + INTRA:          -6.406
REMARK INTER:                  -8.282
REMARK INTRA:                   1.876
REMARK UNBOUND:                 1.811
REMARK  7 active torsions:
REMARK  status: ('A' for Active; 'I' for Inactive)
REMARK    1  A    between atoms: C_13  and  C_14 
REMARK    2  A    between atoms: C_14  and  C_19 
REMARK    3  A    between atoms: C_15  and  C_20 
REMARK    4  A    between atoms: C_16  and  C_21 
REMARK    5  A    between atoms: C_17  and  C_23 
REMARK    6  A    between atoms: C_18  and  C_26 
REMARK    7  A    between atoms: C_22  and  C_28 
ROOT
HETATM    1  O   UNL     1      31.661  49.053  44.202  1.00  0.00    -0.304 OA
HETATM    2  O   UNL     1      28.217  45.751  46.329  1.00  0.00    -0.304 OA
HETATM    3  O   UNL     1      32.510  45.998  48.291  1.00  0.00    -0.304 OA
HETATM    4  O   UNL     1      29.473  46.467  43.481  1.00  0.00    -0.270 OA
HETATM    5  O   UNL     1      30.447  49.412  46.129  1.00  0.00    -0.263 OA
HETATM    6  O   UNL     1      32.141  46.561  44.726  1.00  0.00    -0.270 OA
HETATM    7  O   UNL     1      30.310  43.837  49.290  1.00  0.00    -0.270 OA
HETATM    8  O   UNL     1      26.184  44.994  47.086  1.00  0.00    -0.263 OA
HETATM    9  O   UNL     1      32.899  43.773  47.848  1.00  0.00    -0.263 OA
HETATM   10  N   UNL     1      28.393  48.202  44.581  1.00  0.00    -0.340 N 
HETATM   11  N   UNL     1      33.870  46.894  46.226  1.00  0.00    -0.340 N 
HETATM   12  N   UNL     1      29.332  45.881  48.764  1.00  0.00    -0.340 N 
HETATM   13  C   UNL     1      29.317  49.189  43.986  1.00  0.00     0.190 C 
HETATM   14  C   UNL     1      33.967  45.438  46.467  1.00  0.00     0.190 C 
HETATM   15  C   UNL     1      27.975  45.302  48.679  1.00  0.00     0.190 C 
HETATM   16  C   UNL     1      27.724  45.815  44.977  1.00  0.00     0.227 C 
HETATM   17  C   UNL     1      32.874  48.827  44.953  1.00  0.00     0.227 C 
HETATM   18  C   UNL     1      31.732  45.763  49.479  1.00  0.00     0.227 C 
HETATM   19  C   UNL     1      28.605  46.845  44.276  1.00  0.00     0.250 C 
HETATM   20  C   UNL     1      30.515  49.250  44.918  1.00  0.00     0.283 C 
HETATM   21  C   UNL     1      32.923  47.334  45.290  1.00  0.00     0.250 C 
HETATM   22  C   UNL     1      30.402  45.062  49.163  1.00  0.00     0.250 C 
HETATM   23  C   UNL     1      27.344  45.339  47.290  1.00  0.00     0.283 C 
HETATM   24  C   UNL     1      33.057  44.963  47.598  1.00  0.00     0.283 C 
HETATM   25  C   UNL     1      27.343  48.699  45.476  1.00  0.00     0.153 C 
HETATM   26  C   UNL     1      34.741  47.776  47.006  1.00  0.00     0.153 C 
HETATM   27  C   UNL     1      29.461  47.330  48.601  1.00  0.00     0.153 C 
ENDROOT
BRANCH  17  28
HETATM   28  C   UNL     1      34.033  49.210  44.044  1.00  0.00     0.016 C 
HETATM   29  C   UNL     1      33.755  48.779  42.605  1.00  0.00     0.012 C 
HETATM   30  C   UNL     1      34.297  50.714  44.111  1.00  0.00     0.012 C 
ENDBRANCH  17  28
BRANCH  13  31
HETATM   31  C   UNL     1      28.749  50.588  43.767  1.00  0.00     0.014 C 
HETATM   32  C   UNL     1      29.890  51.603  43.677  1.00  0.00     0.012 C 
BRANCH  31  33
HETATM   33  C   UNL     1      27.856  50.601  42.514  1.00  0.00     0.002 C 
HETATM   34  C   UNL     1      26.452  51.133  42.769  1.00  0.00     0.005 C 
ENDBRANCH  31  33
ENDBRANCH  13  31
BRANCH  14  35
HETATM   35  C   UNL     1      35.394  44.948  46.713  1.00  0.00     0.010 C 
HETATM   36  C   UNL     1      35.547  44.429  48.141  1.00  0.00     0.012 C 
HETATM   37  C   UNL     1      35.774  43.863  45.706  1.00  0.00     0.012 C 
ENDBRANCH  14  35
BRANCH  16  38
HETATM   38  C   UNL     1      27.857  44.433  44.341  1.00  0.00     0.016 C 
HETATM   39  C   UNL     1      29.328  44.057  44.172  1.00  0.00     0.012 C 
HETATM   40  C   UNL     1      27.134  44.387  42.996  1.00  0.00     0.012 C 
ENDBRANCH  16  38
BRANCH  18  41
HETATM   41  C   UNL     1      32.541  45.039  50.554  1.00  0.00     0.016 C 
HETATM   42  C   UNL     1      31.682  44.786  51.791  1.00  0.00     0.012 C 
HETATM   43  C   UNL     1      33.786  45.843  50.921  1.00  0.00     0.012 C 
ENDBRANCH  18  41
BRANCH  15  44
HETATM   44  C   UNL     1      27.038  45.930  49.711  1.00  0.00     0.010 C 
HETATM   45  C   UNL     1      27.619  47.241  50.233  1.00  0.00     0.012 C 
HETATM   46  C   UNL     1      26.780  44.959  50.859  1.00  0.00     0.012 C 
ENDBRANCH  15  44
TORSDOF 7
ENDMDL
MODEL 8
REMARK VINA RESULT:    -5.606      9.398     13.368
REMARK INTER + INTRA:          -6.089
REMARK INTER:                  -6.704
REMARK INTRA:                   0.615
REMARK UNBOUND:                 1.811
REMARK  7 active torsions:
REMARK  status: ('A' for Active; 'I' for Inactive)
REMARK    1  A    between atoms: C_13  and  C_14 
REMARK    2  A    between atoms: C_14  and  C_19 
REMARK    3  A    between atoms: C_15  and  C_20 
REMARK    4  A    between atoms: C_16  and  C_21 
REMARK    5  A    between atoms: C_17  and  C_23 
REMARK    6  A    between atoms: C_18  and  C_26 
REMARK    7  A    between atoms: C_22  and  C_28 
ROOT
HETATM    1  O   UNL     1      41.884  42.423  42.817  1.00  0.00    -0.304 OA
HETATM    2  O   UNL     1      42.428  44.578  47.545  1.00  0.00    -0.304 OA
HETATM    3  O   UNL     1      39.199  46.451  44.645  1.00  0.00    -0.304 OA
HETATM    4  O   UNL     1      44.205  43.734  45.029  1.00  0.00    -0.270 OA
HETATM    5  O   UNL     1      40.489  42.102  44.626  1.00  0.00    -0.263 OA
HETATM    6  O   UNL     1      42.199  44.958  43.253  1.00  0.00    -0.270 OA
HETATM    7  O   UNL     1      39.878  47.789  47.519  1.00  0.00    -0.270 OA
HETATM    8  O   UNL     1      42.736  44.665  49.820  1.00  0.00    -0.263 OA
HETATM    9  O   UNL     1      40.282  48.483  44.666  1.00  0.00    -0.263 OA
HETATM   10  N   UNL     1      42.968  42.036  46.015  1.00  0.00    -0.340 N 
HETATM   11  N   UNL     1      40.197  45.674  42.340  1.00  0.00    -0.340 N 
HETATM   12  N   UNL     1      39.899  45.465  47.624  1.00  0.00    -0.340 N 
HETATM   13  C   UNL     1      42.806  41.361  44.711  1.00  0.00     0.190 C 
HETATM   14  C   UNL     1      40.499  47.069  42.724  1.00  0.00     0.190 C 
HETATM   15  C   UNL     1      40.643  45.449  48.901  1.00  0.00     0.190 C 
HETATM   16  C   UNL     1      43.740  44.011  47.359  1.00  0.00     0.227 C 
HETATM   17  C   UNL     1      40.912  43.264  42.158  1.00  0.00     0.227 C 
HETATM   18  C   UNL     1      38.520  46.650  45.899  1.00  0.00     0.227 C 
HETATM   19  C   UNL     1      43.666  43.257  46.034  1.00  0.00     0.250 C 
HETATM   20  C   UNL     1      41.575  41.984  44.073  1.00  0.00     0.283 C 
HETATM   21  C   UNL     1      41.160  44.698  42.635  1.00  0.00     0.250 C 
HETATM   22  C   UNL     1      39.500  46.698  47.080  1.00  0.00     0.250 C 
HETATM   23  C   UNL     1      42.042  44.844  48.824  1.00  0.00     0.283 C 
HETATM   24  C   UNL     1      40.002  47.419  44.125  1.00  0.00     0.283 C 
HETATM   25  C   UNL     1      42.360  41.408  47.192  1.00  0.00     0.153 C 
HETATM   26  C   UNL     1      38.901  45.401  41.714  1.00  0.00     0.153 C 
HETATM   27  C   UNL     1      39.457  44.179  47.082  1.00  0.00     0.153 C 
ENDROOT
BRANCH  17  28
HETATM   28  C   UNL     1      41.167  43.144  40.663  1.00  0.00     0.016 C 
HETATM   29  C   UNL     1      42.666  43.163  40.368  1.00  0.00     0.012 C 
HETATM   30  C   UNL     1      40.529  41.871  40.108  1.00  0.00     0.012 C 
ENDBRANCH  17  28
BRANCH  13  31
HETATM   31  C   UNL     1      42.664  39.844  44.757  1.00  0.00     0.014 C 
HETATM   32  C   UNL     1      41.944  39.351  43.501  1.00  0.00     0.012 C 
BRANCH  31  33
HETATM   33  C   UNL     1      44.048  39.192  44.931  1.00  0.00     0.002 C 
HETATM   34  C   UNL     1      44.102  38.158  46.047  1.00  0.00     0.005 C 
ENDBRANCH  31  33
ENDBRANCH  13  31
BRANCH  14  35
HETATM   35  C   UNL     1      39.990  48.107  41.723  1.00  0.00     0.010 C 
HETATM   36  C   UNL     1      38.735  48.797  42.252  1.00  0.00     0.012 C 
HETATM   37  C   UNL     1      41.076  49.137  41.413  1.00  0.00     0.012 C 
ENDBRANCH  14  35
BRANCH  16  38
HETATM   38  C   UNL     1      44.760  45.146  47.306  1.00  0.00     0.016 C 
HETATM   39  C   UNL     1      45.664  45.116  48.537  1.00  0.00     0.012 C 
HETATM   40  C   UNL     1      44.057  46.498  47.191  1.00  0.00     0.012 C 
ENDBRANCH  16  38
BRANCH  18  41
HETATM   41  C   UNL     1      37.588  47.860  45.855  1.00  0.00     0.016 C 
HETATM   42  C   UNL     1      36.930  48.080  47.215  1.00  0.00     0.012 C 
HETATM   43  C   UNL     1      36.530  47.683  44.768  1.00  0.00     0.012 C 
ENDBRANCH  18  41
BRANCH  15  44
HETATM   44  C   UNL     1      39.830  44.778  50.009  1.00  0.00     0.010 C 
HETATM   45  C   UNL     1      39.878  45.611  51.287  1.00  0.00     0.012 C 
HETATM   46  C   UNL     1      40.344  43.365  50.267  1.00  0.00     0.012 C 
ENDBRANCH  15  44
TORSDOF 7
ENDMDL
MODEL 9
REMARK VINA RESULT:    -5.588      1.933      6.446
REMARK INTER + INTRA:          -6.063
REMARK INTER:                  -6.996
REMARK INTRA:                   0.933
REMARK UNBOUND:                 1.811
REMARK  7 active torsions:
REMARK  status: ('A' for Active; 'I' for Inactive)
REMARK    1  A    between atoms: C_13  and  C_14 
REMARK    2  A    between atoms: C_14  and  C_19 
REMARK    3  A    between atoms: C_15  and  C_20 
REMARK    4  A    between atoms: C_16  and  C_21 
REMARK    5  A    between atoms: C_17  and  C_23 
REMARK    6  A    between atoms: C_18  and  C_26 
REMARK    7  A    between atoms: C_22  and  C_28 
ROOT
HETATM    1  O   UNL     1      29.096  46.056  45.363  1.00  0.00    -0.304 OA
HETATM    2  O   UNL     1      32.321  49.806  43.683  1.00  0.00    -0.304 OA
HETATM    3  O   UNL     1      27.681  50.701  43.574  1.00  0.00    -0.304 OA
HETATM    4  O   UNL     1      31.737  46.700  43.218  1.00  0.00    -0.270 OA
HETATM    5  O   UNL     1      29.721  47.938  46.539  1.00  0.00    -0.263 OA
HETATM    6  O   UNL     1      28.856  47.301  43.102  1.00  0.00    -0.270 OA
HETATM    7  O   UNL     1      29.840  52.783  42.344  1.00  0.00    -0.270 OA
HETATM    8  O   UNL     1      34.183  51.152  43.647  1.00  0.00    -0.263 OA
HETATM    9  O   UNL     1      27.735  50.982  41.290  1.00  0.00    -0.263 OA
HETATM   10  N   UNL     1      32.249  47.324  45.394  1.00  0.00    -0.340 N 
HETATM   11  N   UNL     1      26.775  48.234  43.489  1.00  0.00    -0.340 N 
HETATM   12  N   UNL     1      30.621  51.786  44.295  1.00  0.00    -0.340 N 
HETATM   13  C   UNL     1      31.376  46.261  45.932  1.00  0.00     0.190 C 
HETATM   14  C   UNL     1      26.827  48.936  42.189  1.00  0.00     0.190 C 
HETATM   15  C   UNL     1      32.023  52.167  44.025  1.00  0.00     0.190 C 
HETATM   16  C   UNL     1      33.126  48.635  43.441  1.00  0.00     0.227 C 
HETATM   17  C   UNL     1      27.777  46.592  45.116  1.00  0.00     0.227 C 
HETATM   18  C   UNL     1      28.160  52.023  43.882  1.00  0.00     0.227 C 
HETATM   19  C   UNL     1      32.314  47.469  43.996  1.00  0.00     0.250 C 
HETATM   20  C   UNL     1      29.984  46.867  46.009  1.00  0.00     0.283 C 
HETATM   21  C   UNL     1      27.856  47.404  43.821  1.00  0.00     0.250 C 
HETATM   22  C   UNL     1      29.611  52.229  43.423  1.00  0.00     0.250 C 
HETATM   23  C   UNL     1      32.972  50.998  43.778  1.00  0.00     0.283 C 
HETATM   24  C   UNL     1      27.479  50.313  42.286  1.00  0.00     0.283 C 
HETATM   25  C   UNL     1      32.957  48.179  46.352  1.00  0.00     0.153 C 
HETATM   26  C   UNL     1      25.620  48.481  44.355  1.00  0.00     0.153 C 
HETATM   27  C   UNL     1      30.334  51.114  45.564  1.00  0.00     0.153 C 
ENDROOT
BRANCH  17  28
HETATM   28  C   UNL     1      26.843  45.402  44.948  1.00  0.00     0.016 C 
HETATM   29  C   UNL     1      27.626  44.154  44.542  1.00  0.00     0.012 C 
HETATM   30  C   UNL     1      26.058  45.146  46.234  1.00  0.00     0.012 C 
ENDBRANCH  17  28
BRANCH  13  31
HETATM   31  C   UNL     1      31.777  45.689  47.287  1.00  0.00     0.014 C 
HETATM   32  C   UNL     1      30.527  45.278  48.068  1.00  0.00     0.012 C 
BRANCH  31  33
HETATM   33  C   UNL     1      32.756  44.517  47.094  1.00  0.00     0.002 C 
HETATM   34  C   UNL     1      33.524  44.147  48.354  1.00  0.00     0.005 C 
ENDBRANCH  31  33
ENDBRANCH  13  31
BRANCH  14  35
HETATM   35  C   UNL     1      25.468  49.057  41.500  1.00  0.00     0.010 C 
HETATM   36  C   UNL     1      25.155  50.516  41.176  1.00  0.00     0.012 C 
HETATM   37  C   UNL     1      25.429  48.207  40.230  1.00  0.00     0.012 C 
ENDBRANCH  14  35
BRANCH  16  38
HETATM   38  C   UNL     1      33.354  48.499  41.938  1.00  0.00     0.016 C 
HETATM   39  C   UNL     1      34.823  48.734  41.591  1.00  0.00     0.012 C 
HETATM   40  C   UNL     1      32.461  49.470  41.167  1.00  0.00     0.012 C 
ENDBRANCH  16  38
BRANCH  18  41
HETATM   41  C   UNL     1      27.216  53.105  43.358  1.00  0.00     0.016 C 
HETATM   42  C   UNL     1      27.671  54.485  43.826  1.00  0.00     0.012 C 
HETATM   43  C   UNL     1      25.783  52.831  43.809  1.00  0.00     0.012 C 
ENDBRANCH  18  41
BRANCH  15  44
HETATM   44  C   UNL     1      32.571  53.081  45.122  1.00  0.00     0.010 C 
HETATM   45  C   UNL     1      32.693  52.320  46.440  1.00  0.00     0.012 C 
HETATM   46  C   UNL     1      31.681  54.309  45.289  1.00  0.00     0.012 C 
ENDBRANCH  15  44
TORSDOF 7
ENDMDL
MODEL 10
REMARK VINA RESULT:    -5.566      2.191      6.260
REMARK INTER + INTRA:          -6.033
REMARK INTER:                  -6.868
REMARK INTRA:                   0.835
REMARK UNBOUND:                 1.811
REMARK  7 active torsions:
REMARK  status: ('A' for Active; 'I' for Inactive)
REMARK    1  A    between atoms: C_13  and  C_14 
REMARK    2  A    between atoms: C_14  and  C_19 
REMARK    3  A    between atoms: C_15  and  C_20 
REMARK    4  A    between atoms: C_16  and  C_21 
REMARK    5  A    between atoms: C_17  and  C_23 
REMARK    6  A    between atoms: C_18  and  C_26 
REMARK    7  A    between atoms: C_22  and  C_28 
ROOT
HETATM    1  O   UNL     1      26.707  48.052  41.436  1.00  0.00    -0.304 OA
HETATM    2  O   UNL     1      28.920  47.559  46.143  1.00  0.00    -0.304 OA
HETATM    3  O   UNL     1      28.537  51.916  44.350  1.00  0.00    -0.304 OA
HETATM    4  O   UNL     1      29.169  46.362  43.192  1.00  0.00    -0.270 OA
HETATM    5  O   UNL     1      25.699  48.489  43.463  1.00  0.00    -0.263 OA
HETATM    6  O   UNL     1      28.981  49.096  42.111  1.00  0.00    -0.270 OA
HETATM    7  O   UNL     1      30.102  51.358  47.134  1.00  0.00    -0.270 OA
HETATM    8  O   UNL     1      29.231  46.758  48.273  1.00  0.00    -0.263 OA
HETATM    9  O   UNL     1      30.823  52.187  44.380  1.00  0.00    -0.263 OA
HETATM   10  N   UNL     1      27.098  46.130  44.212  1.00  0.00    -0.340 N 
HETATM   11  N   UNL     1      28.402  51.313  41.795  1.00  0.00    -0.340 N 
HETATM   12  N   UNL     1      28.209  50.022  46.928  1.00  0.00    -0.340 N 
HETATM   13  C   UNL     1      26.414  46.230  42.906  1.00  0.00     0.190 C 
HETATM   14  C   UNL     1      29.731  51.748  42.274  1.00  0.00     0.190 C 
HETATM   15  C   UNL     1      28.655  49.087  47.981  1.00  0.00     0.190 C 
HETATM   16  C   UNL     1      29.197  46.261  45.581  1.00  0.00     0.227 C 
HETATM   17  C   UNL     1      26.826  49.460  41.138  1.00  0.00     0.227 C 
HETATM   18  C   UNL     1      28.348  52.227  45.743  1.00  0.00     0.227 C 
HETATM   19  C   UNL     1      28.499  46.253  44.224  1.00  0.00     0.250 C 
HETATM   20  C   UNL     1      26.206  47.716  42.661  1.00  0.00     0.283 C 
HETATM   21  C   UNL     1      28.158  49.934  41.726  1.00  0.00     0.250 C 
HETATM   22  C   UNL     1      28.979  51.166  46.658  1.00  0.00     0.250 C 
HETATM   23  C   UNL     1      28.955  47.669  47.500  1.00  0.00     0.283 C 
HETATM   24  C   UNL     1      29.774  51.961  43.786  1.00  0.00     0.283 C 
HETATM   25  C   UNL     1      26.268  45.945  45.406  1.00  0.00     0.153 C 
HETATM   26  C   UNL     1      27.422  52.349  41.460  1.00  0.00     0.153 C 
HETATM   27  C   UNL     1      26.886  49.801  46.342  1.00  0.00     0.153 C 
ENDROOT
BRANCH  17  28
HETATM   28  C   UNL     1      26.830  49.591  39.622  1.00  0.00     0.016 C 
HETATM   29  C   UNL     1      26.700  48.220  38.962  1.00  0.00     0.012 C 
HETATM   30  C   UNL     1      25.707  50.518  39.157  1.00  0.00     0.012 C 
ENDBRANCH  17  28
BRANCH  13  31
HETATM   31  C   UNL     1      25.089  45.486  42.786  1.00  0.00     0.014 C 
HETATM   32  C   UNL     1      24.266  46.072  41.637  1.00  0.00     0.012 C 
BRANCH  31  33
HETATM   33  C   UNL     1      25.346  43.979  42.611  1.00  0.00     0.002 C 
HETATM   34  C   UNL     1      26.638  43.661  41.870  1.00  0.00     0.005 C 
ENDBRANCH  31  33
ENDBRANCH  13  31
BRANCH  14  35
HETATM   35  C   UNL     1      30.265  52.993  41.565  1.00  0.00     0.010 C 
HETATM   36  C   UNL     1      30.263  54.194  42.507  1.00  0.00     0.012 C 
HETATM   37  C   UNL     1      31.671  52.743  41.020  1.00  0.00     0.012 C 
ENDBRANCH  14  35
BRANCH  16  38
HETATM   38  C   UNL     1      30.709  46.102  45.439  1.00  0.00     0.016 C 
HETATM   39  C   UNL     1      31.240  45.076  46.439  1.00  0.00     0.012 C 
HETATM   40  C   UNL     1      31.412  47.445  45.627  1.00  0.00     0.012 C 
ENDBRANCH  16  38
BRANCH  18  41
HETATM   41  C   UNL     1      28.809  53.645  46.076  1.00  0.00     0.016 C 
HETATM   42  C   UNL     1      28.631  53.930  47.566  1.00  0.00     0.012 C 
HETATM   43  C   UNL     1      28.046  54.668  45.238  1.00  0.00     0.012 C 
ENDBRANCH  18  41
BRANCH  15  44
HETATM   44  C   UNL     1      27.672  49.058  49.152  1.00  0.00     0.010 C 
HETATM   45  C   UNL     1      27.300  50.477  49.572  1.00  0.00     0.012 C 
HETATM   46  C   UNL     1      28.264  48.286  50.327  1.00  0.00     0.012 C 
ENDBRANCH  15  44
TORSDOF 7
ENDMDL
MODEL 11
REMARK VINA RESULT:    -5.538      2.659      6.322
REMARK INTER + INTRA:          -5.993
REMARK INTER:                  -7.058
REMARK INTRA:                   1.066
REMARK UNBOUND:                 1.811
REMARK  7 active torsions:
REMARK  status: ('A' for Active; 'I' for Inactive)
REMARK    1  A    between atoms: C_13  and  C_14 
REMARK    2  A    between atoms: C_14  and  C_19 
REMARK    3  A    between atoms: C_15  and  C_20 
REMARK    4  A    between atoms: C_16  and  C_21 
REMARK    5  A    between atoms: C_17  and  C_23 
REMARK    6  A    between atoms: C_18  and  C_26 
REMARK    7  A    between atoms: C_22  and  C_28 
ROOT
HETATM    1  O   UNL     1      27.180  46.496  44.023  1.00  0.00    -0.304 OA
HETATM    2  O   UNL     1      28.346  51.385  45.447  1.00  0.00    -0.304 OA
HETATM    3  O   UNL     1      25.534  50.812  41.691  1.00  0.00    -0.304 OA
HETATM    4  O   UNL     1      29.806  48.623  44.780  1.00  0.00    -0.270 OA
HETATM    5  O   UNL     1      25.807  47.936  45.189  1.00  0.00    -0.263 OA
HETATM    6  O   UNL     1      28.073  48.324  42.418  1.00  0.00    -0.270 OA
HETATM    7  O   UNL     1      26.588  53.743  42.591  1.00  0.00    -0.270 OA
HETATM    8  O   UNL     1      28.738  53.152  46.862  1.00  0.00    -0.263 OA
HETATM    9  O   UNL     1      27.048  51.884  40.328  1.00  0.00    -0.263 OA
HETATM   10  N   UNL     1      28.249  48.561  46.501  1.00  0.00    -0.340 N 
HETATM   11  N   UNL     1      26.256  48.385  40.986  1.00  0.00    -0.340 N 
HETATM   12  N   UNL     1      26.087  52.407  44.428  1.00  0.00    -0.340 N 
HETATM   13  C   UNL     1      27.898  47.166  46.167  1.00  0.00     0.190 C 
HETATM   14  C   UNL     1      26.878  49.481  40.213  1.00  0.00     0.190 C 
HETATM   15  C   UNL     1      26.848  53.264  45.361  1.00  0.00     0.190 C 
HETATM   16  C   UNL     1      29.489  50.677  45.965  1.00  0.00     0.227 C 
HETATM   17  C   UNL     1      26.402  46.658  42.816  1.00  0.00     0.227 C 
HETATM   18  C   UNL     1      24.957  52.018  42.224  1.00  0.00     0.227 C 
HETATM   19  C   UNL     1      29.206  49.203  45.693  1.00  0.00     0.250 C 
HETATM   20  C   UNL     1      26.820  47.255  45.100  1.00  0.00     0.283 C 
HETATM   21  C   UNL     1      26.983  47.859  42.065  1.00  0.00     0.250 C 
HETATM   22  C   UNL     1      25.960  52.802  43.085  1.00  0.00     0.250 C 
HETATM   23  C   UNL     1      28.071  52.604  45.990  1.00  0.00     0.283 C 
HETATM   24  C   UNL     1      26.517  50.863  40.753  1.00  0.00     0.283 C 
HETATM   25  C   UNL     1      27.553  49.193  47.626  1.00  0.00     0.153 C 
HETATM   26  C   UNL     1      24.914  47.948  40.597  1.00  0.00     0.153 C 
HETATM   27  C   UNL     1      25.349  51.277  44.995  1.00  0.00     0.153 C 
ENDROOT
BRANCH  17  28
HETATM   28  C   UNL     1      26.576  45.382  42.005  1.00  0.00     0.016 C 
HETATM   29  C   UNL     1      27.746  44.558  42.541  1.00  0.00     0.012 C 
HETATM   30  C   UNL     1      25.290  44.557  42.016  1.00  0.00     0.012 C 
ENDBRANCH  17  28
BRANCH  13  31
HETATM   31  C   UNL     1      27.418  46.302  47.329  1.00  0.00     0.014 C 
HETATM   32  C   UNL     1      26.311  45.360  46.853  1.00  0.00     0.012 C 
BRANCH  31  33
HETATM   33  C   UNL     1      28.607  45.542  47.943  1.00  0.00     0.002 C 
HETATM   34  C   UNL     1      29.868  45.585  47.091  1.00  0.00     0.005 C 
ENDBRANCH  31  33
ENDBRANCH  13  31
BRANCH  14  35
HETATM   35  C   UNL     1      26.585  49.421  38.714  1.00  0.00     0.010 C 
HETATM   36  C   UNL     1      25.282  50.148  38.389  1.00  0.00     0.012 C 
HETATM   37  C   UNL     1      27.743  50.015  37.913  1.00  0.00     0.012 C 
ENDBRANCH  14  35
BRANCH  16  38
HETATM   38  C   UNL     1      30.737  51.157  45.228  1.00  0.00     0.016 C 
HETATM   39  C   UNL     1      31.652  51.940  46.169  1.00  0.00     0.012 C 
HETATM   40  C   UNL     1      30.355  52.011  44.021  1.00  0.00     0.012 C 
ENDBRANCH  16  38
BRANCH  18  41
HETATM   41  C   UNL     1      24.322  52.876  41.130  1.00  0.00     0.016 C 
HETATM   42  C   UNL     1      23.565  54.052  41.743  1.00  0.00     0.012 C 
HETATM   43  C   UNL     1      23.392  52.033  40.261  1.00  0.00     0.012 C 
ENDBRANCH  18  41
BRANCH  15  44
HETATM   44  C   UNL     1      25.940  53.851  46.443  1.00  0.00     0.010 C 
HETATM   45  C   UNL     1      24.576  54.208  45.860  1.00  0.00     0.012 C 
HETATM   46  C   UNL     1      26.591  55.074  47.080  1.00  0.00     0.012 C 
ENDBRANCH  15  44
TORSDOF 7
ENDMDL
MODEL 12
REMARK VINA RESULT:    -5.498      2.413      7.178
REMARK INTER + INTRA:          -5.937
REMARK INTER:                  -6.887
REMARK INTRA:                   0.949
REMARK UNBOUND:                 1.811
REMARK  7 active torsions:
REMARK  status: ('A' for Active; 'I' for Inactive)
REMARK    1  A    between atoms: C_13  and  C_14 
REMARK    2  A    between atoms: C_14  and  C_19 
REMARK    3  A    between atoms: C_15  and  C_20 
REMARK    4  A    between atoms: C_16  and  C_21 
REMARK    5  A    between atoms: C_17  and  C_23 
REMARK    6  A    between atoms: C_18  and  C_26 
REMARK    7  A    between atoms: C_22  and  C_28 
ROOT
HETATM    1  O   UNL     1      31.364  50.612  44.465  1.00  0.00    -0.304 OA
HETATM    2  O   UNL     1      28.978  46.212  45.962  1.00  0.00    -0.304 OA
HETATM    3  O   UNL     1      33.455  46.850  47.337  1.00  0.00    -0.304 OA
HETATM    4  O   UNL     1      29.548  47.898  43.310  1.00  0.00    -0.270 OA
HETATM    5  O   UNL     1      30.483  50.187  46.553  1.00  0.00    -0.263 OA
HETATM    6  O   UNL     1      32.345  48.231  44.171  1.00  0.00    -0.270 OA
HETATM    7  O   UNL     1      31.874  44.084  47.937  1.00  0.00    -0.270 OA
HETATM    8  O   UNL     1      27.277  44.867  46.721  1.00  0.00    -0.263 OA
HETATM    9  O   UNL     1      34.125  44.954  46.217  1.00  0.00    -0.263 OA
HETATM   10  N   UNL     1      28.413  49.013  44.999  1.00  0.00    -0.340 N 
HETATM   11  N   UNL     1      34.240  48.522  45.466  1.00  0.00    -0.340 N 
HETATM   12  N   UNL     1      30.485  45.937  48.162  1.00  0.00    -0.340 N 
HETATM   13  C   UNL     1      29.031  50.295  44.603  1.00  0.00     0.190 C 
HETATM   14  C   UNL     1      34.623  47.110  45.256  1.00  0.00     0.190 C 
HETATM   15  C   UNL     1      29.253  45.124  48.089  1.00  0.00     0.190 C 
HETATM   16  C   UNL     1      28.240  46.520  44.763  1.00  0.00     0.227 C 
HETATM   17  C   UNL     1      32.715  50.462  44.954  1.00  0.00     0.227 C 
HETATM   18  C   UNL     1      32.960  46.152  48.494  1.00  0.00     0.227 C 
HETATM   19  C   UNL     1      28.791  47.861  44.286  1.00  0.00     0.250 C 
HETATM   20  C   UNL     1      30.353  50.365  45.349  1.00  0.00     0.283 C 
HETATM   21  C   UNL     1      33.076  48.979  44.831  1.00  0.00     0.250 C 
HETATM   22  C   UNL     1      31.733  45.290  48.163  1.00  0.00     0.250 C 
HETATM   23  C   UNL     1      28.379  45.387  46.865  1.00  0.00     0.283 C 
HETATM   24  C   UNL     1      34.031  46.173  46.307  1.00  0.00     0.283 C 
HETATM   25  C   UNL     1      27.478  49.022  46.128  1.00  0.00     0.153 C 
HETATM   26  C   UNL     1      35.078  49.335  46.350  1.00  0.00     0.153 C 
HETATM   27  C   UNL     1      30.335  47.371  48.414  1.00  0.00     0.153 C 
ENDROOT
BRANCH  17  28
HETATM   28  C   UNL     1      33.605  51.308  44.054  1.00  0.00     0.016 C 
HETATM   29  C   UNL     1      32.911  51.592  42.723  1.00  0.00     0.012 C 
HETATM   30  C   UNL     1      33.987  52.614  44.749  1.00  0.00     0.012 C 
ENDBRANCH  17  28
BRANCH  13  31
HETATM   31  C   UNL     1      28.205  51.547  44.878  1.00  0.00     0.014 C 
HETATM   32  C   UNL     1      29.116  52.776  44.901  1.00  0.00     0.012 C 
BRANCH  31  33
HETATM   33  C   UNL     1      27.081  51.674  43.835  1.00  0.00     0.002 C 
HETATM   34  C   UNL     1      25.760  52.163  44.414  1.00  0.00     0.005 C 
ENDBRANCH  31  33
ENDBRANCH  13  31
BRANCH  14  35
HETATM   35  C   UNL     1      36.133  46.889  45.162  1.00  0.00     0.010 C 
HETATM   36  C   UNL     1      36.479  45.418  45.378  1.00  0.00     0.012 C 
HETATM   37  C   UNL     1      36.666  47.371  43.813  1.00  0.00     0.012 C 
ENDBRANCH  14  35
BRANCH  16  38
HETATM   38  C   UNL     1      28.485  45.413  43.740  1.00  0.00     0.016 C 
HETATM   39  C   UNL     1      27.183  44.686  43.410  1.00  0.00     0.012 C 
HETATM   40  C   UNL     1      29.534  44.428  44.253  1.00  0.00     0.012 C 
ENDBRANCH  16  38
BRANCH  18  41
HETATM   41  C   UNL     1      34.064  45.363  49.197  1.00  0.00     0.016 C 
HETATM   42  C   UNL     1      33.581  44.858  50.555  1.00  0.00     0.012 C 
HETATM   43  C   UNL     1      35.317  46.220  49.358  1.00  0.00     0.012 C 
ENDBRANCH  18  41
BRANCH  15  44
HETATM   44  C   UNL     1      28.429  45.245  49.371  1.00  0.00     0.010 C 
HETATM   45  C   UNL     1      28.179  43.868  49.979  1.00  0.00     0.012 C 
HETATM   46  C   UNL     1      27.110  45.959  49.092  1.00  0.00     0.012 C 
ENDBRANCH  15  44
TORSDOF 7
ENDMDL
MODEL 13
REMARK VINA RESULT:    -5.448      2.679      7.691
REMARK INTER + INTRA:          -5.866
REMARK INTER:                  -6.524
REMARK INTRA:                   0.657
REMARK UNBOUND:                 1.811
REMARK  7 active torsions:
REMARK  status: ('A' for Active; 'I' for Inactive)
REMARK    1  A    between atoms: C_13  and  C_14 
REMARK    2  A    between atoms: C_14  and  C_19 
REMARK    3  A    between atoms: C_15  and  C_20 
REMARK    4  A    between atoms: C_16  and  C_21 
REMARK    5  A    between atoms: C_17  and  C_23 
REMARK    6  A    between atoms: C_18  and  C_26 
REMARK    7  A    between atoms: C_22  and  C_28 
ROOT
HETATM    1  O   UNL     1      26.463  52.679  46.531  1.00  0.00    -0.304 OA
HETATM    2  O   UNL     1      26.961  50.079  42.028  1.00  0.00    -0.304 OA
HETATM    3  O   UNL     1      27.872  47.726  46.025  1.00  0.00    -0.304 OA
HETATM    4  O   UNL     1      27.936  52.794  43.399  1.00  0.00    -0.270 OA
HETATM    5  O   UNL     1      24.949  51.176  45.655  1.00  0.00    -0.263 OA
HETATM    6  O   UNL     1      28.543  51.288  45.857  1.00  0.00    -0.270 OA
HETATM    7  O   UNL     1      28.365  46.383  43.116  1.00  0.00    -0.270 OA
HETATM    8  O   UNL     1      26.449  49.407  39.891  1.00  0.00    -0.263 OA
HETATM    9  O   UNL     1      30.043  47.338  45.365  1.00  0.00    -0.263 OA
HETATM   10  N   UNL     1      25.639  52.503  43.238  1.00  0.00    -0.340 N 
HETATM   11  N   UNL     1      28.458  49.757  47.589  1.00  0.00    -0.340 N 
HETATM   12  N   UNL     1      26.445  47.696  43.144  1.00  0.00    -0.340 N 
HETATM   13  C   UNL     1      25.430  53.258  44.491  1.00  0.00     0.190 C 
HETATM   14  C   UNL     1      29.619  49.032  47.029  1.00  0.00     0.190 C 
HETATM   15  C   UNL     1      26.378  47.773  41.670  1.00  0.00     0.190 C 
HETATM   16  C   UNL     1      27.190  51.430  41.581  1.00  0.00     0.227 C 
HETATM   17  C   UNL     1      26.894  51.732  47.533  1.00  0.00     0.227 C 
HETATM   18  C   UNL     1      27.305  46.652  45.254  1.00  0.00     0.227 C 
HETATM   19  C   UNL     1      26.965  52.303  42.813  1.00  0.00     0.250 C 
HETATM   20  C   UNL     1      25.552  52.240  45.613  1.00  0.00     0.283 C 
HETATM   21  C   UNL     1      28.030  50.911  46.916  1.00  0.00     0.250 C 
HETATM   22  C   UNL     1      27.435  46.898  43.744  1.00  0.00     0.250 C 
HETATM   23  C   UNL     1      26.583  49.169  41.087  1.00  0.00     0.283 C 
HETATM   24  C   UNL     1      29.214  47.948  46.033  1.00  0.00     0.283 C 
HETATM   25  C   UNL     1      24.456  51.984  42.545  1.00  0.00     0.153 C 
HETATM   26  C   UNL     1      27.815  49.203  48.782  1.00  0.00     0.153 C 
HETATM   27  C   UNL     1      25.358  48.316  43.904  1.00  0.00     0.153 C 
ENDROOT
BRANCH  17  28
HETATM   28  C   UNL     1      27.400  52.543  48.717  1.00  0.00     0.016 C 
HETATM   29  C   UNL     1      27.718  53.976  48.293  1.00  0.00     0.012 C 
HETATM   30  C   UNL     1      26.376  52.535  49.852  1.00  0.00     0.012 C 
ENDBRANCH  17  28
BRANCH  13  31
HETATM   31  C   UNL     1      24.109  54.011  44.604  1.00  0.00     0.014 C 
HETATM   32  C   UNL     1      23.726  54.169  46.077  1.00  0.00     0.012 C 
BRANCH  31  33
HETATM   33  C   UNL     1      24.212  55.365  43.879  1.00  0.00     0.002 C 
HETATM   34  C   UNL     1      25.564  56.044  44.041  1.00  0.00     0.005 C 
ENDBRANCH  31  33
ENDBRANCH  13  31
BRANCH  14  35
HETATM   35  C   UNL     1      30.543  48.436  48.091  1.00  0.00     0.010 C 
HETATM   36  C   UNL     1      30.423  46.914  48.119  1.00  0.00     0.012 C 
HETATM   37  C   UNL     1      31.992  48.854  47.843  1.00  0.00     0.012 C 
ENDBRANCH  14  35
BRANCH  16  38
HETATM   38  C   UNL     1      28.622  51.540  41.065  1.00  0.00     0.016 C 
HETATM   39  C   UNL     1      28.637  51.703  39.546  1.00  0.00     0.012 C 
HETATM   40  C   UNL     1      29.440  50.318  41.481  1.00  0.00     0.012 C 
ENDBRANCH  16  38
BRANCH  18  41
HETATM   41  C   UNL     1      27.859  45.292  45.680  1.00  0.00     0.016 C 
HETATM   42  C   UNL     1      27.292  44.182  44.799  1.00  0.00     0.012 C 
HETATM   43  C   UNL     1      27.548  45.023  47.151  1.00  0.00     0.012 C 
ENDBRANCH  18  41
BRANCH  15  44
HETATM   44  C   UNL     1      25.084  47.155  41.139  1.00  0.00     0.010 C 
HETATM   45  C   UNL     1      24.812  45.817  41.820  1.00  0.00     0.012 C 
HETATM   46  C   UNL     1      25.156  46.985  39.625  1.00  0.00     0.012 C 
ENDBRANCH  15  44
TORSDOF 7
ENDMDL
MODEL 14
REMARK VINA RESULT:    -5.442      2.414      3.351
REMARK INTER + INTRA:          -5.857
REMARK INTER:                  -7.073
REMARK INTRA:                   1.215
REMARK UNBOUND:                 1.811
REMARK  7 active torsions:
REMARK  status: ('A' for Active; 'I' for Inactive)
REMARK    1  A    between atoms: C_13  and  C_14 
REMARK    2  A    between atoms: C_14  and  C_19 
REMARK    3  A    between atoms: C_15  and  C_20 
REMARK    4  A    between atoms: C_16  and  C_21 
REMARK    5  A    between atoms: C_17  and  C_23 
REMARK    6  A    between atoms: C_18  and  C_26 
REMARK    7  A    between atoms: C_22  and  C_28 
ROOT
HETATM    1  O   UNL     1      31.780  49.266  47.692  1.00  0.00    -0.304 OA
HETATM    2  O   UNL     1      28.166  45.805  46.191  1.00  0.00    -0.304 OA
HETATM    3  O   UNL     1      27.683  50.262  44.693  1.00  0.00    -0.304 OA
HETATM    4  O   UNL     1      29.587  46.850  48.854  1.00  0.00    -0.270 OA
HETATM    5  O   UNL     1      31.644  48.254  45.624  1.00  0.00    -0.263 OA
HETATM    6  O   UNL     1      29.222  49.618  47.915  1.00  0.00    -0.270 OA
HETATM    7  O   UNL     1      25.424  48.016  44.092  1.00  0.00    -0.270 OA
HETATM    8  O   UNL     1      27.315  43.800  45.459  1.00  0.00    -0.263 OA
HETATM    9  O   UNL     1      25.653  50.457  45.759  1.00  0.00    -0.263 OA
HETATM   10  N   UNL     1      30.995  45.993  47.219  1.00  0.00    -0.340 N 
HETATM   11  N   UNL     1      29.056  51.492  46.569  1.00  0.00    -0.340 N 
HETATM   12  N   UNL     1      27.573  47.138  43.941  1.00  0.00    -0.340 N 
HETATM   13  C   UNL     1      32.069  46.926  47.619  1.00  0.00     0.190 C 
HETATM   14  C   UNL     1      27.587  51.509  46.742  1.00  0.00     0.190 C 
HETATM   15  C   UNL     1      27.097  45.743  44.038  1.00  0.00     0.190 C 
HETATM   16  C   UNL     1      28.621  45.199  47.417  1.00  0.00     0.227 C 
HETATM   17  C   UNL     1      31.305  50.522  47.161  1.00  0.00     0.227 C 
HETATM   18  C   UNL     1      27.163  49.578  43.539  1.00  0.00     0.227 C 
HETATM   19  C   UNL     1      29.767  46.084  47.900  1.00  0.00     0.250 C 
HETATM   20  C   UNL     1      31.819  48.204  46.835  1.00  0.00     0.283 C 
HETATM   21  C   UNL     1      29.776  50.498  47.247  1.00  0.00     0.250 C 
HETATM   22  C   UNL     1      26.632  48.181  43.892  1.00  0.00     0.250 C 
HETATM   23  C   UNL     1      27.542  44.995  45.291  1.00  0.00     0.283 C 
HETATM   24  C   UNL     1      26.858  50.673  45.693  1.00  0.00     0.283 C 
HETATM   25  C   UNL     1      31.268  45.064  46.119  1.00  0.00     0.153 C 
HETATM   26  C   UNL     1      29.652  52.487  45.674  1.00  0.00     0.153 C 
HETATM   27  C   UNL     1      29.004  47.351  43.719  1.00  0.00     0.153 C 
ENDROOT
BRANCH  17  28
HETATM   28  C   UNL     1      31.876  51.619  48.048  1.00  0.00     0.016 C 
HETATM   29  C   UNL     1      32.307  51.051  49.399  1.00  0.00     0.012 C 
HETATM   30  C   UNL     1      33.050  52.314  47.359  1.00  0.00     0.012 C 
ENDBRANCH  17  28
BRANCH  13  31
HETATM   31  C   UNL     1      33.495  46.439  47.391  1.00  0.00     0.014 C 
HETATM   32  C   UNL     1      34.470  47.612  47.508  1.00  0.00     0.012 C 
BRANCH  31  33
HETATM   33  C   UNL     1      33.826  45.304  48.376  1.00  0.00     0.002 C 
HETATM   34  C   UNL     1      35.002  44.439  47.943  1.00  0.00     0.005 C 
ENDBRANCH  31  33
ENDBRANCH  13  31
BRANCH  14  35
HETATM   35  C   UNL     1      26.990  52.915  46.787  1.00  0.00     0.010 C 
HETATM   36  C   UNL     1      26.211  53.212  45.507  1.00  0.00     0.012 C 
HETATM   37  C   UNL     1      26.090  53.081  48.011  1.00  0.00     0.012 C 
ENDBRANCH  14  35
BRANCH  16  38
HETATM   38  C   UNL     1      27.464  45.181  48.412  1.00  0.00     0.016 C 
HETATM   39  C   UNL     1      27.059  46.603  48.794  1.00  0.00     0.012 C 
HETATM   40  C   UNL     1      27.837  44.377  49.657  1.00  0.00     0.012 C 
ENDBRANCH  16  38
BRANCH  18  41
HETATM   41  C   UNL     1      26.137  50.427  42.789  1.00  0.00     0.016 C 
HETATM   42  C   UNL     1      25.590  49.667  41.583  1.00  0.00     0.012 C 
HETATM   43  C   UNL     1      26.755  51.754  42.353  1.00  0.00     0.012 C 
ENDBRANCH  18  41
BRANCH  15  44
HETATM   44  C   UNL     1      27.454  44.945  42.783  1.00  0.00     0.010 C 
HETATM   45  C   UNL     1      26.247  44.152  42.291  1.00  0.00     0.012 C 
HETATM   46  C   UNL     1      28.633  44.017  43.059  1.00  0.00     0.012 C 
ENDBRANCH  15  44
TORSDOF 7
ENDMDL
MODEL 15
REMARK VINA RESULT:    -5.426      2.874      7.612
REMARK INTER + INTRA:          -5.836
REMARK INTER:                  -6.462
REMARK INTRA:                   0.626
REMARK UNBOUND:                 1.811
REMARK  7 active torsions:
REMARK  status: ('A' for Active; 'I' for Inactive)
REMARK    1  A    between atoms: C_13  and  C_14 
REMARK    2  A    between atoms: C_14  and  C_19 
REMARK    3  A    between atoms: C_15  and  C_20 
REMARK    4  A    between atoms: C_16  and  C_21 
REMARK    5  A    between atoms: C_17  and  C_23 
REMARK    6  A    between atoms: C_18  and  C_26 
REMARK    7  A    between atoms: C_22  and  C_28 
ROOT
HETATM    1  O   UNL     1      29.071  46.058  45.996  1.00  0.00    -0.304 OA
HETATM    2  O   UNL     1      33.565  46.621  48.598  1.00  0.00    -0.304 OA
HETATM    3  O   UNL     1      32.730  49.581  45.008  1.00  0.00    -0.304 OA
HETATM    4  O   UNL     1      31.864  44.352  47.128  1.00  0.00    -0.270 OA
HETATM    5  O   UNL     1      29.528  47.663  47.587  1.00  0.00    -0.263 OA
HETATM    6  O   UNL     1      31.407  46.204  44.884  1.00  0.00    -0.270 OA
HETATM    7  O   UNL     1      35.560  49.588  46.589  1.00  0.00    -0.270 OA
HETATM    8  O   UNL     1      34.981  46.703  50.405  1.00  0.00    -0.263 OA
HETATM    9  O   UNL     1      34.598  48.835  43.888  1.00  0.00    -0.263 OA
HETATM   10  N   UNL     1      30.795  45.462  48.863  1.00  0.00    -0.340 N 
HETATM   11  N   UNL     1      31.031  48.116  43.637  1.00  0.00    -0.340 N 
HETATM   12  N   UNL     1      33.769  49.234  48.031  1.00  0.00    -0.340 N 
HETATM   13  C   UNL     1      29.488  45.307  48.192  1.00  0.00     0.190 C 
HETATM   14  C   UNL     1      32.426  48.094  43.147  1.00  0.00     0.190 C 
HETATM   15  C   UNL     1      34.635  48.714  49.109  1.00  0.00     0.190 C 
HETATM   16  C   UNL     1      33.294  45.226  48.836  1.00  0.00     0.227 C 
HETATM   17  C   UNL     1      29.160  47.026  44.927  1.00  0.00     0.227 C 
HETATM   18  C   UNL     1      33.445  50.476  45.878  1.00  0.00     0.227 C 
HETATM   19  C   UNL     1      31.931  44.969  48.198  1.00  0.00     0.250 C 
HETATM   20  C   UNL     1      29.359  46.497  47.256  1.00  0.00     0.283 C 
HETATM   21  C   UNL     1      30.627  47.077  44.489  1.00  0.00     0.250 C 
HETATM   22  C   UNL     1      34.361  49.720  46.852  1.00  0.00     0.250 C 
HETATM   23  C   UNL     1      34.413  47.245  49.462  1.00  0.00     0.283 C 
HETATM   24  C   UNL     1      33.384  48.860  44.057  1.00  0.00     0.283 C 
HETATM   25  C   UNL     1      30.822  46.152  50.157  1.00  0.00     0.153 C 
HETATM   26  C   UNL     1      30.179  49.236  43.230  1.00  0.00     0.153 C 
HETATM   27  C   UNL     1      32.342  49.383  48.321  1.00  0.00     0.153 C 
ENDROOT
BRANCH  17  28
HETATM   28  C   UNL     1      28.279  46.516  43.796  1.00  0.00     0.016 C 
HETATM   29  C   UNL     1      28.165  44.993  43.846  1.00  0.00     0.012 C 
HETATM   30  C   UNL     1      26.894  47.158  43.859  1.00  0.00     0.012 C 
ENDBRANCH  17  28
BRANCH  13  31
HETATM   31  C   UNL     1      28.272  45.223  49.108  1.00  0.00     0.014 C 
HETATM   32  C   UNL     1      26.994  45.443  48.297  1.00  0.00     0.012 C 
BRANCH  31  33
HETATM   33  C   UNL     1      28.267  43.876  49.853  1.00  0.00     0.002 C 
HETATM   34  C   UNL     1      27.754  43.969  51.283  1.00  0.00     0.005 C 
ENDBRANCH  31  33
ENDBRANCH  13  31
BRANCH  14  35
HETATM   35  C   UNL     1      32.581  48.584  41.708  1.00  0.00     0.010 C 
HETATM   36  C   UNL     1      33.295  49.933  41.671  1.00  0.00     0.012 C 
HETATM   37  C   UNL     1      33.335  47.556  40.865  1.00  0.00     0.012 C 
ENDBRANCH  14  35
BRANCH  16  38
HETATM   38  C   UNL     1      34.391  44.394  48.177  1.00  0.00     0.016 C 
HETATM   39  C   UNL     1      35.319  43.794  49.232  1.00  0.00     0.012 C 
HETATM   40  C   UNL     1      35.186  45.240  47.184  1.00  0.00     0.012 C 
ENDBRANCH  16  38
BRANCH  18  41
HETATM   41  C   UNL     1      34.184  51.561  45.094  1.00  0.00     0.016 C 
HETATM   42  C   UNL     1      34.963  52.470  46.041  1.00  0.00     0.012 C 
HETATM   43  C   UNL     1      33.205  52.375  44.252  1.00  0.00     0.012 C 
ENDBRANCH  18  41
BRANCH  15  44
HETATM   44  C   UNL     1      34.545  49.585  50.363  1.00  0.00     0.010 C 
HETATM   45  C   UNL     1      35.939  49.869  50.916  1.00  0.00     0.012 C 
HETATM   46  C   UNL     1      33.673  48.913  51.418  1.00  0.00     0.012 C 
ENDBRANCH  15  44
TORSDOF 7
ENDMDL
MODEL 16
REMARK VINA RESULT:    -5.403      1.738      2.234
REMARK INTER + INTRA:          -5.803
REMARK INTER:                  -7.139
REMARK INTRA:                   1.335
REMARK UNBOUND:                 1.811
REMARK  7 active torsions:
REMARK  status: ('A' for Active; 'I' for Inactive)
REMARK    1  A    between atoms: C_13  and  C_14 
REMARK    2  A    between atoms: C_14  and  C_19 
REMARK    3  A    between atoms: C_15  and  C_20 
REMARK    4  A    between atoms: C_16  and  C_21 
REMARK    5  A    between atoms: C_17  and  C_23 
REMARK    6  A    between atoms: C_18  and  C_26 
REMARK    7  A    between atoms: C_22  and  C_28 
ROOT
HETATM    1  O   UNL     1      33.549  48.455  45.856  1.00  0.00    -0.304 OA
HETATM    2  O   UNL     1      28.986  46.319  47.237  1.00  0.00    -0.304 OA
HETATM    3  O   UNL     1      28.970  49.366  43.624  1.00  0.00    -0.304 OA
HETATM    4  O   UNL     1      31.446  47.879  48.548  1.00  0.00    -0.270 OA
HETATM    5  O   UNL     1      32.475  46.725  44.774  1.00  0.00    -0.263 OA
HETATM    6  O   UNL     1      31.374  49.791  46.308  1.00  0.00    -0.270 OA
HETATM    7  O   UNL     1      26.220  48.124  44.807  1.00  0.00    -0.270 OA
HETATM    8  O   UNL     1      27.522  44.686  47.922  1.00  0.00    -0.263 OA
HETATM    9  O   UNL     1      27.541  50.777  44.750  1.00  0.00    -0.263 OA
HETATM   10  N   UNL     1      31.965  45.903  47.446  1.00  0.00    -0.340 N 
HETATM   11  N   UNL     1      31.147  50.722  44.203  1.00  0.00    -0.340 N 
HETATM   12  N   UNL     1      27.934  46.552  44.782  1.00  0.00    -0.340 N 
HETATM   13  C   UNL     1      33.284  46.439  47.051  1.00  0.00     0.190 C 
HETATM   14  C   UNL     1      29.876  51.363  44.603  1.00  0.00     0.190 C 
HETATM   15  C   UNL     1      27.236  45.656  45.727  1.00  0.00     0.190 C 
HETATM   16  C   UNL     1      29.704  46.240  48.484  1.00  0.00     0.227 C 
HETATM   17  C   UNL     1      33.197  49.388  44.812  1.00  0.00     0.227 C 
HETATM   18  C   UNL     1      27.941  48.470  43.169  1.00  0.00     0.227 C 
HETATM   19  C   UNL     1      31.108  46.751  48.171  1.00  0.00     0.250 C 
HETATM   20  C   UNL     1      33.053  47.187  45.749  1.00  0.00     0.283 C 
HETATM   21  C   UNL     1      31.831  49.977  45.175  1.00  0.00     0.250 C 
HETATM   22  C   UNL     1      27.283  47.713  44.332  1.00  0.00     0.250 C 
HETATM   23  C   UNL     1      27.925  45.479  47.077  1.00  0.00     0.283 C 
HETATM   24  C   UNL     1      28.661  50.471  44.355  1.00  0.00     0.283 C 
HETATM   25  C   UNL     1      31.625  44.540  47.025  1.00  0.00     0.153 C 
HETATM   26  C   UNL     1      31.586  50.878  42.814  1.00  0.00     0.153 C 
HETATM   27  C   UNL     1      29.204  46.087  44.221  1.00  0.00     0.153 C 
ENDROOT
BRANCH  17  28
HETATM   28  C   UNL     1      34.265  50.472  44.811  1.00  0.00     0.016 C 
HETATM   29  C   UNL     1      35.061  50.446  46.116  1.00  0.00     0.012 C 
HETATM   30  C   UNL     1      35.199  50.309  43.612  1.00  0.00     0.012 C 
ENDBRANCH  17  28
BRANCH  13  31
HETATM   31  C   UNL     1      34.397  45.412  46.878  1.00  0.00     0.014 C 
HETATM   32  C   UNL     1      35.359  45.869  45.780  1.00  0.00     0.012 C 
BRANCH  31  33
HETATM   33  C   UNL     1      35.112  45.181  48.221  1.00  0.00     0.002 C 
HETATM   34  C   UNL     1      34.634  43.942  48.964  1.00  0.00     0.005 C 
ENDBRANCH  31  33
ENDBRANCH  13  31
BRANCH  14  35
HETATM   35  C   UNL     1      29.649  52.732  43.963  1.00  0.00     0.010 C 
HETATM   36  C   UNL     1      28.435  52.701  43.037  1.00  0.00     0.012 C 
HETATM   37  C   UNL     1      29.476  53.808  45.035  1.00  0.00     0.012 C 
ENDBRANCH  14  35
BRANCH  16  38
HETATM   38  C   UNL     1      28.999  47.122  49.512  1.00  0.00     0.016 C 
HETATM   39  C   UNL     1      28.285  46.267  50.557  1.00  0.00     0.012 C 
HETATM   40  C   UNL     1      28.012  48.065  48.826  1.00  0.00     0.012 C 
ENDBRANCH  16  38
BRANCH  18  41
HETATM   41  C   UNL     1      26.924  49.179  42.276  1.00  0.00     0.016 C 
HETATM   42  C   UNL     1      25.865  48.196  41.782  1.00  0.00     0.012 C 
HETATM   43  C   UNL     1      27.622  49.852  41.096  1.00  0.00     0.012 C 
ENDBRANCH  18  41
BRANCH  15  44
HETATM   44  C   UNL     1      26.946  44.295  45.092  1.00  0.00     0.010 C 
HETATM   45  C   UNL     1      27.889  44.041  43.919  1.00  0.00     0.012 C 
HETATM   46  C   UNL     1      25.491  44.216  44.641  1.00  0.00     0.012 C 
ENDBRANCH  15  44
TORSDOF 7
ENDMDL
MODEL 17
REMARK VINA RESULT:    -5.254      9.775     14.628
REMARK INTER + INTRA:          -5.593
REMARK INTER:                  -6.318
REMARK INTRA:                   0.725
REMARK UNBOUND:                 1.811
REMARK  7 active torsions:
REMARK  status: ('A' for Active; 'I' for Inactive)
REMARK    1  A    between atoms: C_13  and  C_14 
REMARK    2  A    between atoms: C_14  and  C_19 
REMARK    3  A    between atoms: C_15  and  C_20 
REMARK    4  A    between atoms: C_16  and  C_21 
REMARK    5  A    between atoms: C_17  and  C_23 
REMARK    6  A    between atoms: C_18  and  C_26 
REMARK    7  A    between atoms: C_22  and  C_28 
ROOT
HETATM    1  O   UNL     1      43.873  46.436  40.965  1.00  0.00    -0.304 OA
HETATM    2  O   UNL     1      40.097  47.100  44.513  1.00  0.00    -0.304 OA
HETATM    3  O   UNL     1      42.588  43.087  44.694  1.00  0.00    -0.304 OA
HETATM    4  O   UNL     1      40.523  47.227  41.350  1.00  0.00    -0.270 OA
HETATM    5  O   UNL     1      44.171  47.055  43.166  1.00  0.00    -0.263 OA
HETATM    6  O   UNL     1      42.025  44.697  41.491  1.00  0.00    -0.270 OA
HETATM    7  O   UNL     1      40.040  43.591  46.633  1.00  0.00    -0.270 OA
HETATM    8  O   UNL     1      38.785  48.206  46.041  1.00  0.00    -0.263 OA
HETATM    9  O   UNL     1      40.692  41.832  44.338  1.00  0.00    -0.263 OA
HETATM   10  N   UNL     1      41.871  48.631  42.615  1.00  0.00    -0.340 N 
HETATM   11  N   UNL     1      43.412  42.986  42.199  1.00  0.00    -0.340 N 
HETATM   12  N   UNL     1      41.289  45.530  46.331  1.00  0.00    -0.340 N 
HETATM   13  C   UNL     1      42.966  48.509  41.631  1.00  0.00     0.190 C 
HETATM   14  C   UNL     1      42.240  42.142  42.515  1.00  0.00     0.190 C 
HETATM   15  C   UNL     1      40.199  46.404  46.813  1.00  0.00     0.190 C 
HETATM   16  C   UNL     1      39.607  47.933  43.444  1.00  0.00     0.227 C 
HETATM   17  C   UNL     1      44.368  45.104  41.224  1.00  0.00     0.227 C 
HETATM   18  C   UNL     1      42.361  43.276  46.102  1.00  0.00     0.227 C 
HETATM   19  C   UNL     1      40.696  47.896  42.375  1.00  0.00     0.250 C 
HETATM   20  C   UNL     1      43.751  47.273  42.037  1.00  0.00     0.283 C 
HETATM   21  C   UNL     1      43.168  44.254  41.651  1.00  0.00     0.250 C 
HETATM   22  C   UNL     1      41.117  44.136  46.372  1.00  0.00     0.250 C 
HETATM   23  C   UNL     1      39.619  47.349  45.763  1.00  0.00     0.283 C 
HETATM   24  C   UNL     1      41.735  42.341  43.942  1.00  0.00     0.283 C 
HETATM   25  C   UNL     1      42.097  49.479  43.789  1.00  0.00     0.153 C 
HETATM   26  C   UNL     1      44.742  42.458  42.514  1.00  0.00     0.153 C 
HETATM   27  C   UNL     1      42.567  46.162  46.002  1.00  0.00     0.153 C 
ENDROOT
BRANCH  17  28
HETATM   28  C   UNL     1      44.954  44.589  39.917  1.00  0.00     0.016 C 
HETATM   29  C   UNL     1      44.746  45.606  38.796  1.00  0.00     0.012 C 
HETATM   30  C   UNL     1      46.439  44.268  40.080  1.00  0.00     0.012 C 
ENDBRANCH  17  28
BRANCH  13  31
HETATM   31  C   UNL     1      43.898  49.710  41.516  1.00  0.00     0.014 C 
HETATM   32  C   UNL     1      45.230  49.277  40.901  1.00  0.00     0.012 C 
BRANCH  31  33
HETATM   33  C   UNL     1      43.217  50.828  40.707  1.00  0.00     0.002 C 
HETATM   34  C   UNL     1      44.185  51.661  39.878  1.00  0.00     0.005 C 
ENDBRANCH  31  33
ENDBRANCH  13  31
BRANCH  14  35
HETATM   35  C   UNL     1      42.466  40.653  42.252  1.00  0.00     0.010 C 
HETATM   36  C   UNL     1      42.574  39.883  43.567  1.00  0.00     0.012 C 
HETATM   37  C   UNL     1      41.343  40.080  41.388  1.00  0.00     0.012 C 
ENDBRANCH  14  35
BRANCH  16  38
HETATM   38  C   UNL     1      38.293  47.347  42.931  1.00  0.00     0.016 C 
HETATM   39  C   UNL     1      37.121  48.260  43.287  1.00  0.00     0.012 C 
HETATM   40  C   UNL     1      38.071  45.946  43.497  1.00  0.00     0.012 C 
ENDBRANCH  16  38
BRANCH  18  41
HETATM   41  C   UNL     1      42.335  41.948  46.857  1.00  0.00     0.016 C 
HETATM   42  C   UNL     1      42.048  42.178  48.339  1.00  0.00     0.012 C 
HETATM   43  C   UNL     1      43.655  41.202  46.675  1.00  0.00     0.012 C 
ENDBRANCH  18  41
BRANCH  15  44
HETATM   44  C   UNL     1      40.620  47.182  48.060  1.00  0.00     0.010 C 
HETATM   45  C   UNL     1      39.528  47.120  49.124  1.00  0.00     0.012 C 
HETATM   46  C   UNL     1      40.942  48.630  47.702  1.00  0.00     0.012 C 
ENDBRANCH  15  44
TORSDOF 7
ENDMDL
MODEL 18
REMARK VINA RESULT:    -5.127     11.680     15.672
REMARK INTER + INTRA:          -5.414
REMARK INTER:                  -6.222
REMARK INTRA:                   0.807
REMARK UNBOUND:                 1.811
REMARK  7 active torsions:
REMARK  status: ('A' for Active; 'I' for Inactive)
REMARK    1  A    between atoms: C_13  and  C_14 
REMARK    2  A    between atoms: C_14  and  C_19 
REMARK    3  A    between atoms: C_15  and  C_20 
REMARK    4  A    between atoms: C_16  and  C_21 
REMARK    5  A    between atoms: C_17  and  C_23 
REMARK    6  A    between atoms: C_18  and  C_26 
REMARK    7  A    between atoms: C_22  and  C_28 
ROOT
HETATM    1  O   UNL     1      44.952  45.882  47.916  1.00  0.00    -0.304 OA
HETATM    2  O   UNL     1      43.151  41.102  49.008  1.00  0.00    -0.304 OA
HETATM    3  O   UNL     1      42.495  42.738  44.622  1.00  0.00    -0.304 OA
HETATM    4  O   UNL     1      43.007  44.083  50.146  1.00  0.00    -0.270 OA
HETATM    5  O   UNL     1      45.950  43.888  47.329  1.00  0.00    -0.263 OA
HETATM    6  O   UNL     1      42.547  45.064  47.407  1.00  0.00    -0.270 OA
HETATM    7  O   UNL     1      41.236  39.910  45.584  1.00  0.00    -0.270 OA
HETATM    8  O   UNL     1      43.132  38.992  49.918  1.00  0.00    -0.263 OA
HETATM    9  O   UNL     1      40.209  42.592  44.853  1.00  0.00    -0.263 OA
HETATM   10  N   UNL     1      45.132  43.169  49.955  1.00  0.00    -0.340 N 
HETATM   11  N   UNL     1      42.619  45.319  45.109  1.00  0.00    -0.340 N 
HETATM   12  N   UNL     1      43.358  40.254  46.473  1.00  0.00    -0.340 N 
HETATM   13  C   UNL     1      45.707  44.500  49.672  1.00  0.00     0.190 C 
HETATM   14  C   UNL     1      41.255  44.762  44.985  1.00  0.00     0.190 C 
HETATM   15  C   UNL     1      43.179  39.219  47.512  1.00  0.00     0.190 C 
HETATM   16  C   UNL     1      43.129  41.700  50.319  1.00  0.00     0.227 C 
HETATM   17  C   UNL     1      44.519  46.119  46.559  1.00  0.00     0.227 C 
HETATM   18  C   UNL     1      42.687  41.345  44.318  1.00  0.00     0.227 C 
HETATM   19  C   UNL     1      43.739  43.087  50.137  1.00  0.00     0.250 C 
HETATM   20  C   UNL     1      45.578  44.696  48.170  1.00  0.00     0.283 C 
HETATM   21  C   UNL     1      43.150  45.452  46.401  1.00  0.00     0.250 C 
HETATM   22  C   UNL     1      42.347  40.444  45.515  1.00  0.00     0.250 C 
HETATM   23  C   UNL     1      43.165  39.742  48.947  1.00  0.00     0.283 C 
HETATM   24  C   UNL     1      41.249  43.242  44.830  1.00  0.00     0.283 C 
HETATM   25  C   UNL     1      46.044  42.022  49.989  1.00  0.00     0.153 C 
HETATM   26  C   UNL     1      43.336  45.657  43.877  1.00  0.00     0.153 C 
HETATM   27  C   UNL     1      44.664  40.909  46.387  1.00  0.00     0.153 C 
ENDROOT
BRANCH  17  28
HETATM   28  C   UNL     1      44.406  47.627  46.388  1.00  0.00     0.016 C 
HETATM   29  C   UNL     1      44.344  48.320  47.749  1.00  0.00     0.012 C 
HETATM   30  C   UNL     1      45.575  48.166  45.566  1.00  0.00     0.012 C 
ENDBRANCH  17  28
BRANCH  13  31
HETATM   31  C   UNL     1      47.153  44.709  50.108  1.00  0.00     0.014 C 
HETATM   32  C   UNL     1      47.803  45.796  49.250  1.00  0.00     0.012 C 
BRANCH  31  33
HETATM   33  C   UNL     1      47.205  45.043  51.610  1.00  0.00     0.002 C 
HETATM   34  C   UNL     1      46.060  45.929  52.081  1.00  0.00     0.005 C 
ENDBRANCH  31  33
ENDBRANCH  13  31
BRANCH  14  35
HETATM   35  C   UNL     1      40.431  45.397  43.866  1.00  0.00     0.010 C 
HETATM   36  C   UNL     1      40.447  44.517  42.617  1.00  0.00     0.012 C 
HETATM   37  C   UNL     1      38.994  45.644  44.327  1.00  0.00     0.012 C 
ENDBRANCH  14  35
BRANCH  16  38
HETATM   38  C   UNL     1      41.681  41.779  50.797  1.00  0.00     0.016 C 
HETATM   39  C   UNL     1      41.449  40.835  51.975  1.00  0.00     0.012 C 
HETATM   40  C   UNL     1      40.718  41.457  49.655  1.00  0.00     0.012 C 
ENDBRANCH  16  38
BRANCH  18  41
HETATM   41  C   UNL     1      41.951  40.935  43.043  1.00  0.00     0.016 C 
HETATM   42  C   UNL     1      41.939  39.415  42.895  1.00  0.00     0.012 C 
HETATM   43  C   UNL     1      42.590  41.589  41.821  1.00  0.00     0.012 C 
ENDBRANCH  18  41
BRANCH  15  44
HETATM   44  C   UNL     1      44.207  38.097  47.361  1.00  0.00     0.010 C 
HETATM   45  C   UNL     1      45.569  38.545  47.882  1.00  0.00     0.012 C 
HETATM   46  C   UNL     1      44.305  37.656  45.904  1.00  0.00     0.012 C 
ENDBRANCH  15  44
TORSDOF 7
ENDMDL
MODEL 19
REMARK VINA RESULT:    -5.119     10.430     14.601
REMARK INTER + INTRA:          -5.403
REMARK INTER:                  -5.966
REMARK INTRA:                   0.562
REMARK UNBOUND:                 1.811
REMARK  7 active torsions:
REMARK  status: ('A' for Active; 'I' for Inactive)
REMARK    1  A    between atoms: C_13  and  C_14 
REMARK    2  A    between atoms: C_14  and  C_19 
REMARK    3  A    between atoms: C_15  and  C_20 
REMARK    4  A    between atoms: C_16  and  C_21 
REMARK    5  A    between atoms: C_17  and  C_23 
REMARK    6  A    between atoms: C_18  and  C_26 
REMARK    7  A    between atoms: C_22  and  C_28 
ROOT
HETATM    1  O   UNL     1      43.081  41.280  46.315  1.00  0.00    -0.304 OA
HETATM    2  O   UNL     1      41.927  41.823  51.380  1.00  0.00    -0.304 OA
HETATM    3  O   UNL     1      39.032  43.858  48.246  1.00  0.00    -0.304 OA
HETATM    4  O   UNL     1      44.384  42.229  49.380  1.00  0.00    -0.270 OA
HETATM    5  O   UNL     1      41.468  40.109  47.473  1.00  0.00    -0.263 OA
HETATM    6  O   UNL     1      42.563  43.540  47.473  1.00  0.00    -0.270 OA
HETATM    7  O   UNL     1      38.647  44.283  51.437  1.00  0.00    -0.270 OA
HETATM    8  O   UNL     1      41.682  41.217  53.583  1.00  0.00    -0.263 OA
HETATM    9  O   UNL     1      39.465  45.943  49.121  1.00  0.00    -0.263 OA
HETATM   10  N   UNL     1      43.489  40.089  49.471  1.00  0.00    -0.340 N 
HETATM   11  N   UNL     1      40.697  44.099  46.225  1.00  0.00    -0.340 N 
HETATM   12  N   UNL     1      39.299  42.108  50.930  1.00  0.00    -0.340 N 
HETATM   13  C   UNL     1      43.819  39.862  48.049  1.00  0.00     0.190 C 
HETATM   14  C   UNL     1      40.499  45.321  47.033  1.00  0.00     0.190 C 
HETATM   15  C   UNL     1      39.713  41.822  52.320  1.00  0.00     0.190 C 
HETATM   16  C   UNL     1      43.352  41.625  51.452  1.00  0.00     0.227 C 
HETATM   17  C   UNL     1      42.084  42.078  45.640  1.00  0.00     0.227 C 
HETATM   18  C   UNL     1      38.063  43.493  49.246  1.00  0.00     0.227 C 
HETATM   19  C   UNL     1      43.792  41.349  50.017  1.00  0.00     0.250 C 
HETATM   20  C   UNL     1      42.637  40.400  47.260  1.00  0.00     0.283 C 
HETATM   21  C   UNL     1      41.805  43.294  46.528  1.00  0.00     0.250 C 
HETATM   22  C   UNL     1      38.700  43.345  50.635  1.00  0.00     0.250 C 
HETATM   23  C   UNL     1      41.207  41.571  52.509  1.00  0.00     0.283 C 
HETATM   24  C   UNL     1      39.624  45.083  48.262  1.00  0.00     0.283 C 
HETATM   25  C   UNL     1      42.837  39.000  50.205  1.00  0.00     0.153 C 
HETATM   26  C   UNL     1      39.704  43.793  45.192  1.00  0.00     0.153 C 
HETATM   27  C   UNL     1      39.371  41.012  49.964  1.00  0.00     0.153 C 
ENDROOT
BRANCH  17  28
HETATM   28  C   UNL     1      42.690  42.510  44.312  1.00  0.00     0.016 C 
HETATM   29  C   UNL     1      44.202  42.293  44.314  1.00  0.00     0.012 C 
HETATM   30  C   UNL     1      42.042  41.754  43.153  1.00  0.00     0.012 C 
ENDBRANCH  17  28
BRANCH  13  31
HETATM   31  C   UNL     1      44.105  38.418  47.652  1.00  0.00     0.014 C 
HETATM   32  C   UNL     1      43.982  38.263  46.135  1.00  0.00     0.012 C 
BRANCH  31  33
HETATM   33  C   UNL     1      45.490  37.995  48.171  1.00  0.00     0.002 C 
HETATM   34  C   UNL     1      46.571  39.046  47.961  1.00  0.00     0.005 C 
ENDBRANCH  31  33
ENDBRANCH  13  31
BRANCH  14  35
HETATM   35  C   UNL     1      39.954  46.505  46.235  1.00  0.00     0.010 C 
HETATM   36  C   UNL     1      38.520  46.824  46.652  1.00  0.00     0.012 C 
HETATM   37  C   UNL     1      40.848  47.733  46.412  1.00  0.00     0.012 C 
ENDBRANCH  14  35
BRANCH  16  38
HETATM   38  C   UNL     1      43.996  42.893  52.006  1.00  0.00     0.016 C 
HETATM   39  C   UNL     1      44.573  42.642  53.398  1.00  0.00     0.012 C 
HETATM   40  C   UNL     1      42.984  44.038  52.045  1.00  0.00     0.012 C 
ENDBRANCH  16  38
BRANCH  18  41
HETATM   41  C   UNL     1      36.862  44.437  49.244  1.00  0.00     0.016 C 
HETATM   42  C   UNL     1      35.830  43.994  50.279  1.00  0.00     0.012 C 
HETATM   43  C   UNL     1      36.234  44.504  47.854  1.00  0.00     0.012 C 
ENDBRANCH  18  41
BRANCH  15  44
HETATM   44  C   UNL     1      38.897  40.676  52.918  1.00  0.00     0.010 C 
HETATM   45  C   UNL     1      38.479  41.006  54.348  1.00  0.00     0.012 C 
HETATM   46  C   UNL     1      39.694  39.375  52.876  1.00  0.00     0.012 C 
ENDBRANCH  15  44
TORSDOF 7
ENDMDL
MODEL 20
REMARK VINA RESULT:    -5.017      7.972     12.149
REMARK INTER + INTRA:          -5.259
REMARK INTER:                  -5.837
REMARK INTRA:                   0.578
REMARK UNBOUND:                 1.811
REMARK  7 active torsions:
REMARK  status: ('A' for Active; 'I' for Inactive)
REMARK    1  A    between atoms: C_13  and  C_14 
REMARK    2  A    between atoms: C_14  and  C_19 
REMARK    3  A    between atoms: C_15  and  C_20 
REMARK    4  A    between atoms: C_16  and  C_21 
REMARK    5  A    between atoms: C_17  and  C_23 
REMARK    6  A    between atoms: C_18  and  C_26 
REMARK    7  A    between atoms: C_22  and  C_28 
ROOT
HETATM    1  O   UNL     1      24.669  43.689  55.431  1.00  0.00    -0.304 OA
HETATM    2  O   UNL     1      28.394  45.888  52.502  1.00  0.00    -0.304 OA
HETATM    3  O   UNL     1      24.930  48.682  54.095  1.00  0.00    -0.304 OA
HETATM    4  O   UNL     1      26.372  43.416  52.427  1.00  0.00    -0.270 OA
HETATM    5  O   UNL     1      26.434  44.956  56.203  1.00  0.00    -0.263 OA
HETATM    6  O   UNL     1      24.224  45.197  53.370  1.00  0.00    -0.270 OA
HETATM    7  O   UNL     1      27.196  49.784  52.056  1.00  0.00    -0.270 OA
HETATM    8  O   UNL     1      30.512  46.304  51.714  1.00  0.00    -0.263 OA
HETATM    9  O   UNL     1      24.291  49.205  51.947  1.00  0.00    -0.263 OA
HETATM   10  N   UNL     1      27.839  43.476  54.225  1.00  0.00    -0.340 N 
HETATM   11  N   UNL     1      23.060  46.870  54.465  1.00  0.00    -0.340 N 
HETATM   12  N   UNL     1      28.087  48.307  53.617  1.00  0.00    -0.340 N 
HETATM   13  C   UNL     1      26.839  42.827  55.096  1.00  0.00     0.190 C 
HETATM   14  C   UNL     1      22.954  47.644  53.209  1.00  0.00     0.190 C 
HETATM   15  C   UNL     1      29.316  48.085  52.826  1.00  0.00     0.190 C 
HETATM   16  C   UNL     1      28.453  44.528  52.029  1.00  0.00     0.227 C 
HETATM   17  C   UNL     1      23.733  44.762  55.671  1.00  0.00     0.227 C 
HETATM   18  C   UNL     1      26.019  49.621  54.143  1.00  0.00     0.227 C 
HETATM   19  C   UNL     1      27.463  43.758  52.899  1.00  0.00     0.250 C 
HETATM   20  C   UNL     1      25.989  43.953  55.661  1.00  0.00     0.283 C 
HETATM   21  C   UNL     1      23.700  45.624  54.405  1.00  0.00     0.250 C 
HETATM   22  C   UNL     1      27.144  49.246  53.167  1.00  0.00     0.250 C 
HETATM   23  C   UNL     1      29.493  46.666  52.294  1.00  0.00     0.283 C 
HETATM   24  C   UNL     1      24.136  48.587  52.995  1.00  0.00     0.283 C 
HETATM   25  C   UNL     1      29.140  43.816  54.810  1.00  0.00     0.153 C 
HETATM   26  C   UNL     1      22.524  47.472  55.688  1.00  0.00     0.153 C 
HETATM   27  C   UNL     1      28.002  47.664  54.929  1.00  0.00     0.153 C 
ENDROOT
BRANCH  17  28
HETATM   28  C   UNL     1      22.376  44.117  55.917  1.00  0.00     0.016 C 
HETATM   29  C   UNL     1      22.405  42.639  55.532  1.00  0.00     0.012 C 
HETATM   30  C   UNL     1      21.957  44.282  57.377  1.00  0.00     0.012 C 
ENDBRANCH  17  28
BRANCH  13  31
HETATM   31  C   UNL     1      27.395  41.969  56.228  1.00  0.00     0.014 C 
HETATM   32  C   UNL     1      26.343  41.814  57.327  1.00  0.00     0.012 C 
BRANCH  31  33
HETATM   33  C   UNL     1      27.865  40.612  55.675  1.00  0.00     0.002 C 
HETATM   34  C   UNL     1      26.996  40.076  54.546  1.00  0.00     0.005 C 
ENDBRANCH  31  33
ENDBRANCH  13  31
BRANCH  14  35
HETATM   35  C   UNL     1      21.645  48.421  53.074  1.00  0.00     0.010 C 
HETATM   36  C   UNL     1      21.898  49.924  53.157  1.00  0.00     0.012 C 
HETATM   37  C   UNL     1      20.942  48.069  51.763  1.00  0.00     0.012 C 
ENDBRANCH  14  35
BRANCH  16  38
HETATM   38  C   UNL     1      28.049  44.503  50.557  1.00  0.00     0.016 C 
HETATM   39  C   UNL     1      29.264  44.241  49.669  1.00  0.00     0.012 C 
HETATM   40  C   UNL     1      27.370  45.814  50.163  1.00  0.00     0.012 C 
ENDBRANCH  16  38
BRANCH  18  41
HETATM   41  C   UNL     1      25.536  51.060  53.963  1.00  0.00     0.016 C 
HETATM   42  C   UNL     1      26.714  52.030  54.002  1.00  0.00     0.012 C 
HETATM   43  C   UNL     1      24.509  51.419  55.034  1.00  0.00     0.012 C 
ENDBRANCH  18  41
BRANCH  15  44
HETATM   44  C   UNL     1      30.560  48.528  53.597  1.00  0.00     0.010 C 
HETATM   45  C   UNL     1      31.475  49.360  52.703  1.00  0.00     0.012 C 
HETATM   46  C   UNL     1      31.304  47.316  54.151  1.00  0.00     0.012 C 
ENDBRANCH  15  44
TORSDOF 7
ENDMDL
