MODEL 1
REMARK VINA RESULT:    -3.973      0.000      0.000
REMARK INTER + INTRA:          -2.744
REMARK INTER:                  -7.031
REMARK INTRA:                   4.287
REMARK UNBOUND:                 2.855
REMARK  7 active torsions:
REMARK  status: ('A' for Active; 'I' for Inactive)
REMARK    1  A    between atoms: C_13  and  C_14 
REMARK    2  A    between atoms: C_14  and  C_19 
REMARK    3  A    between atoms: C_15  and  C_20 
REMARK    4  A    between atoms: C_16  and  C_21 
REMARK    5  A    between atoms: C_17  and  C_23 
REMARK    6  A    between atoms: C_18  and  C_26 
REMARK    7  A    between atoms: C_22  and  C_28 
ROOT
HETATM    1  O   UNL     1       6.148  25.335  15.918  1.00  0.00    -0.304 OA
HETATM    2  O   UNL     1       6.802  21.042  13.015  1.00  0.00    -0.304 OA
HETATM    3  O   UNL     1       5.110  20.485  17.393  1.00  0.00    -0.304 OA
HETATM    4  O   UNL     1       8.437  23.614  13.969  1.00  0.00    -0.270 OA
HETATM    5  O   UNL     1       4.487  24.171  14.822  1.00  0.00    -0.263 OA
HETATM    6  O   UNL     1       7.406  23.207  16.698  1.00  0.00    -0.270 OA
HETATM    7  O   UNL     1       5.831  17.942  15.517  1.00  0.00    -0.270 OA
HETATM    8  O   UNL     1       6.768  19.718  11.137  1.00  0.00    -0.263 OA
HETATM    9  O   UNL     1       6.914  19.182  17.982  1.00  0.00    -0.263 OA
HETATM   10  N   UNL     1       6.477  24.032  12.797  1.00  0.00    -0.340 N 
HETATM   11  N   UNL     1       6.039  22.687  18.490  1.00  0.00    -0.340 N 
HETATM   12  N   UNL     1       4.880  19.675  14.290  1.00  0.00    -0.340 N 
HETATM   13  C   UNL     1       6.253  25.275  13.563  1.00  0.00     0.190 C 
HETATM   14  C   UNL     1       6.825  21.463  18.759  1.00  0.00     0.190 C 
HETATM   15  C   UNL     1       5.347  19.126  13.000  1.00  0.00     0.190 C 
HETATM   16  C   UNL     1       7.777  21.918  12.417  1.00  0.00     0.227 C 
HETATM   17  C   UNL     1       5.720  24.829  17.202  1.00  0.00     0.227 C 
HETATM   18  C   UNL     1       4.390  19.426  16.736  1.00  0.00     0.227 C 
HETATM   19  C   UNL     1       7.603  23.257  13.129  1.00  0.00     0.250 C 
HETATM   20  C   UNL     1       5.499  24.859  14.815  1.00  0.00     0.283 C 
HETATM   21  C   UNL     1       6.459  23.508  17.434  1.00  0.00     0.250 C 
HETATM   22  C   UNL     1       5.110  18.944  15.468  1.00  0.00     0.250 C 
HETATM   23  C   UNL     1       6.370  19.990  12.266  1.00  0.00     0.283 C 
HETATM   24  C   UNL     1       6.307  20.248  17.993  1.00  0.00     0.283 C 
HETATM   25  C   UNL     1       5.493  23.672  11.771  1.00  0.00     0.153 C 
HETATM   26  C   UNL     1       4.857  22.937  19.319  1.00  0.00     0.153 C 
HETATM   27  C   UNL     1       4.038  20.871  14.252  1.00  0.00     0.153 C 
ENDROOT
BRANCH  17  28
HETATM   28  C   UNL     1       6.128  25.862  18.242  1.00  0.00     0.016 C 
HETATM   29  C   UNL     1       6.789  27.067  17.574  1.00  0.00     0.012 C 
HETATM   30  C   UNL     1       4.920  26.304  19.066  1.00  0.00     0.012 C 
ENDBRANCH  17  28
BRANCH  13  31
HETATM   31  C   UNL     1       5.496  26.380  12.835  1.00  0.00     0.014 C 
HETATM   32  C   UNL     1       4.260  26.781  13.642  1.00  0.00     0.012 C 
BRANCH  31  33
HETATM   33  C   UNL     1       6.433  27.573  12.572  1.00  0.00     0.002 C 
HETATM   34  C   UNL     1       6.224  28.738  13.528  1.00  0.00     0.005 C 
ENDBRANCH  31  33
ENDBRANCH  13  31
BRANCH  14  35
HETATM   35  C   UNL     1       6.945  21.123  20.244  1.00  0.00     0.010 C 
HETATM   36  C   UNL     1       6.752  19.625  20.473  1.00  0.00     0.012 C 
HETATM   37  C   UNL     1       8.296  21.578  20.795  1.00  0.00     0.012 C 
ENDBRANCH  14  35
BRANCH  16  38
HETATM   38  C   UNL     1       9.168  21.332  12.648  1.00  0.00     0.016 C 
HETATM   39  C   UNL     1       9.664  20.612  11.396  1.00  0.00     0.012 C 
HETATM   40  C   UNL     1       9.161  20.382  13.845  1.00  0.00     0.012 C 
ENDBRANCH  16  38
BRANCH  18  41
HETATM   41  C   UNL     1       4.055  18.285  17.696  1.00  0.00     0.016 C 
HETATM   42  C   UNL     1       4.062  18.780  19.140  1.00  0.00     0.012 C 
HETATM   43  C   UNL     1       5.038  17.130  17.519  1.00  0.00     0.012 C 
ENDBRANCH  18  41
BRANCH  15  44
HETATM   44  C   UNL     1       4.173  18.789  12.082  1.00  0.00     0.010 C 
HETATM   45  C   UNL     1       4.287  17.355  11.572  1.00  0.00     0.012 C 
HETATM   46  C   UNL     1       4.107  19.771  10.916  1.00  0.00     0.012 C 
ENDBRANCH  15  44
TORSDOF 7
ENDMDL
MODEL 2
REMARK VINA RESULT:    -1.183      1.923      5.773
REMARK INTER + INTRA:           1.187
REMARK INTER:                  -3.236
REMARK INTRA:                   4.423
REMARK UNBOUND:                 2.855
REMARK  7 active torsions:
REMARK  status: ('A' for Active; 'I' for Inactive)
REMARK    1  A    between atoms: C_13  and  C_14 
REMARK    2  A    between atoms: C_14  and  C_19 
REMARK    3  A    between atoms: C_15  and  C_20 
REMARK    4  A    between atoms: C_16  and  C_21 
REMARK    5  A    between atoms: C_17  and  C_23 
REMARK    6  A    between atoms: C_18  and  C_26 
REMARK    7  A    between atoms: C_22  and  C_28 
ROOT
HETATM    1  O   UNL     1       5.688  24.502  12.381  1.00  0.00    -0.304 OA
HETATM    2  O   UNL     1       6.853  21.293  16.334  1.00  0.00    -0.304 OA
HETATM    3  O   UNL     1       4.936  25.478  17.407  1.00  0.00    -0.304 OA
HETATM    4  O   UNL     1       8.221  22.577  13.749  1.00  0.00    -0.270 OA
HETATM    5  O   UNL     1       4.194  23.196  13.556  1.00  0.00    -0.263 OA
HETATM    6  O   UNL     1       7.054  25.182  14.475  1.00  0.00    -0.270 OA
HETATM    7  O   UNL     1       5.968  23.445  19.711  1.00  0.00    -0.270 OA
HETATM    8  O   UNL     1       7.040  19.310  17.480  1.00  0.00    -0.263 OA
HETATM    9  O   UNL     1       6.794  26.077  18.626  1.00  0.00    -0.263 OA
HETATM   10  N   UNL     1       6.313  21.311  13.368  1.00  0.00    -0.340 N 
HETATM   11  N   UNL     1       5.621  26.823  15.253  1.00  0.00    -0.340 N 
HETATM   12  N   UNL     1       4.966  22.309  17.945  1.00  0.00    -0.340 N 
HETATM   13  C   UNL     1       5.946  22.164  12.218  1.00  0.00     0.190 C 
HETATM   14  C   UNL     1       6.481  27.039  16.437  1.00  0.00     0.190 C 
HETATM   15  C   UNL     1       5.555  21.012  18.339  1.00  0.00     0.190 C 
HETATM   16  C   UNL     1       7.794  20.842  15.340  1.00  0.00     0.227 C 
HETATM   17  C   UNL     1       5.220  25.704  13.031  1.00  0.00     0.227 C 
HETATM   18  C   UNL     1       4.343  24.684  18.450  1.00  0.00     0.227 C 
HETATM   19  C   UNL     1       7.472  21.652  14.087  1.00  0.00     0.250 C 
HETATM   20  C   UNL     1       5.148  23.320  12.799  1.00  0.00     0.283 C 
HETATM   21  C   UNL     1       6.043  25.873  14.311  1.00  0.00     0.250 C 
HETATM   22  C   UNL     1       5.177  23.433  18.762  1.00  0.00     0.250 C 
HETATM   23  C   UNL     1       6.552  20.427  17.342  1.00  0.00     0.283 C 
HETATM   24  C   UNL     1       6.108  26.137  17.611  1.00  0.00     0.283 C 
HETATM   25  C   UNL     1       5.426  20.192  13.702  1.00  0.00     0.153 C 
HETATM   26  C   UNL     1       4.374  27.585  15.164  1.00  0.00     0.153 C 
HETATM   27  C   UNL     1       4.038  22.315  16.814  1.00  0.00     0.153 C 
ENDROOT
BRANCH  17  28
HETATM   28  C   UNL     1       5.480  26.855  12.070  1.00  0.00     0.016 C 
HETATM   29  C   UNL     1       4.222  27.704  11.892  1.00  0.00     0.012 C 
HETATM   30  C   UNL     1       6.642  27.717  12.562  1.00  0.00     0.012 C 
ENDBRANCH  17  28
BRANCH  13  31
HETATM   31  C   UNL     1       5.153  21.483  11.108  1.00  0.00     0.014 C 
HETATM   32  C   UNL     1       4.222  22.495  10.439  1.00  0.00     0.012 C 
BRANCH  31  33
HETATM   33  C   UNL     1       6.115  20.822  10.105  1.00  0.00     0.002 C 
HETATM   34  C   UNL     1       7.546  21.333  10.202  1.00  0.00     0.005 C 
ENDBRANCH  31  33
ENDBRANCH  13  31
BRANCH  14  35
HETATM   35  C   UNL     1       6.533  28.495  16.901  1.00  0.00     0.010 C 
HETATM   36  C   UNL     1       7.471  28.646  18.097  1.00  0.00     0.012 C 
HETATM   37  C   UNL     1       6.970  29.411  15.759  1.00  0.00     0.012 C 
ENDBRANCH  14  35
BRANCH  16  38
HETATM   38  C   UNL     1       9.208  21.118  15.843  1.00  0.00     0.016 C 
HETATM   39  C   UNL     1       9.920  19.813  16.195  1.00  0.00     0.012 C 
HETATM   40  C   UNL     1       9.177  22.053  17.051  1.00  0.00     0.012 C 
ENDBRANCH  16  38
BRANCH  18  41
HETATM   41  C   UNL     1       4.038  25.516  19.694  1.00  0.00     0.016 C 
HETATM   42  C   UNL     1       4.038  27.005  19.357  1.00  0.00     0.012 C 
HETATM   43  C   UNL     1       5.046  25.216  20.801  1.00  0.00     0.012 C 
ENDBRANCH  18  41
BRANCH  15  44
HETATM   44  C   UNL     1       4.470  19.988  18.675  1.00  0.00     0.010 C 
HETATM   45  C   UNL     1       4.664  19.447  20.089  1.00  0.00     0.012 C 
HETATM   46  C   UNL     1       4.476  18.851  17.657  1.00  0.00     0.012 C 
ENDBRANCH  15  44
TORSDOF 7
ENDMDL
