MODEL 1
REMARK VINA RESULT:    -3.309      0.000      0.000
REMARK INTER + INTRA:          -0.591
REMARK INTER:                  -3.116
REMARK INTRA:                   2.525
REMARK UNBOUND:                 4.458
REMARK  9 active torsions:
REMARK  status: ('A' for Active; 'I' for Inactive)
REMARK    1  A    between atoms: C_13  and  C_16 
REMARK    2  A    between atoms: C_14  and  C_17 
REMARK    3  A    between atoms: C_15  and  C_18 
REMARK    4  A    between atoms: C_16  and  C_22 
REMARK    5  A    between atoms: C_17  and  C_23 
REMARK    6  A    between atoms: C_18  and  C_24 
REMARK    7  A    between atoms: C_19  and  C_25 
REMARK    8  A    between atoms: C_20  and  C_26 
REMARK    9  A    between atoms: C_21  and  C_27 
ROOT
HETATM    1  O   UNL     1       5.669  25.025  18.331  1.00  0.00    -0.304 OA
HETATM    2  O   UNL     1       4.742  24.792  13.345  1.00  0.00    -0.304 OA
HETATM    3  O   UNL     1       7.017  21.752  16.352  1.00  0.00    -0.304 OA
HETATM    4  O   UNL     1       4.040  26.032  16.583  1.00  0.00    -0.270 OA
HETATM    5  O   UNL     1       9.116  20.754  18.898  1.00  0.00    -0.270 OA
HETATM    6  O   UNL     1       4.316  23.017  15.245  1.00  0.00    -0.270 OA
HETATM    7  O   UNL     1       7.553  24.832  19.646  1.00  0.00    -0.263 OA
HETATM    8  O   UNL     1       6.933  25.205  13.946  1.00  0.00    -0.263 OA
HETATM    9  O   UNL     1       6.893  19.567  17.064  1.00  0.00    -0.263 OA
HETATM   10  N   UNL     1       5.788  27.181  15.581  1.00  0.00    -0.340 N 
HETATM   11  N   UNL     1       7.307  22.063  19.523  1.00  0.00    -0.340 N 
HETATM   12  N   UNL     1       5.481  21.278  14.243  1.00  0.00    -0.340 N 
HETATM   13  C   UNL     1       5.231  26.925  14.238  1.00  0.00     0.190 C 
HETATM   14  C   UNL     1       6.136  22.897  19.179  1.00  0.00     0.190 C 
HETATM   15  C   UNL     1       5.302  20.398  15.421  1.00  0.00     0.190 C 
HETATM   16  C   UNL     1       5.973  26.382  17.942  1.00  0.00     0.227 C 
HETATM   17  C   UNL     1       5.055  23.427  13.004  1.00  0.00     0.227 C 
HETATM   18  C   UNL     1       8.159  22.092  17.143  1.00  0.00     0.227 C 
HETATM   19  C   UNL     1       5.166  26.536  16.660  1.00  0.00     0.250 C 
HETATM   20  C   UNL     1       8.230  21.561  18.592  1.00  0.00     0.250 C 
HETATM   21  C   UNL     1       4.919  22.564  14.264  1.00  0.00     0.250 C 
HETATM   22  C   UNL     1       6.566  24.353  19.108  1.00  0.00     0.283 C 
HETATM   23  C   UNL     1       5.765  25.557  13.833  1.00  0.00     0.283 C 
HETATM   24  C   UNL     1       6.516  20.485  16.347  1.00  0.00     0.283 C 
HETATM   25  C   UNL     1       7.022  27.961  15.700  1.00  0.00     0.153 C 
HETATM   26  C   UNL     1       7.517  21.739  20.934  1.00  0.00     0.153 C 
HETATM   27  C   UNL     1       6.311  20.752  13.154  1.00  0.00     0.153 C 
ENDROOT
BRANCH  16  28
HETATM   28  C   UNL     1       5.488  27.353  19.003  1.00  0.00     0.016 C 
HETATM   29  C   UNL     1       4.288  28.150  18.496  1.00  0.00     0.012 C 
HETATM   30  C   UNL     1       6.615  28.294  19.427  1.00  0.00     0.012 C 
ENDBRANCH  16  28
BRANCH  14  31
HETATM   31  C   UNL     1       4.940  22.750  20.119  1.00  0.00     0.014 C 
HETATM   32  C   UNL     1       4.089  24.021  20.075  1.00  0.00     0.012 C 
BRANCH  31  33
HETATM   33  C   UNL     1       4.071  21.528  19.773  1.00  0.00     0.002 C 
HETATM   34  C   UNL     1       4.075  20.454  20.851  1.00  0.00     0.005 C 
ENDBRANCH  31  33
ENDBRANCH  14  31
BRANCH  13  35
HETATM   35  C   UNL     1       5.560  27.946  13.158  1.00  0.00     0.014 C 
HETATM   36  C   UNL     1       6.793  27.492  12.372  1.00  0.00     0.012 C 
BRANCH  35  37
HETATM   37  C   UNL     1       4.385  28.181  12.192  1.00  0.00     0.002 C 
HETATM   38  C   UNL     1       4.823  28.536  10.777  1.00  0.00     0.005 C 
ENDBRANCH  35  37
ENDBRANCH  13  35
BRANCH  18  39
HETATM   39  C   UNL     1       9.405  21.705  16.344  1.00  0.00     0.016 C 
HETATM   40  C   UNL     1       9.364  22.327  14.951  1.00  0.00     0.012 C 
HETATM   41  C   UNL     1      10.671  22.132  17.085  1.00  0.00     0.012 C 
ENDBRANCH  18  39
BRANCH  17  42
HETATM   42  C   UNL     1       4.043  22.986  11.956  1.00  0.00     0.016 C 
HETATM   43  C   UNL     1       4.338  21.562  11.485  1.00  0.00     0.012 C 
HETATM   44  C   UNL     1       4.038  23.951  10.771  1.00  0.00     0.012 C 
ENDBRANCH  17  42
BRANCH  15  45
HETATM   45  C   UNL     1       4.982  18.950  15.054  1.00  0.00     0.014 C 
HETATM   46  C   UNL     1       4.297  18.250  16.233  1.00  0.00     0.012 C 
BRANCH  45  47
HETATM   47  C   UNL     1       4.093  18.841  13.800  1.00  0.00     0.002 C 
HETATM   48  C   UNL     1       4.038  17.437  13.217  1.00  0.00     0.005 C 
ENDBRANCH  45  47
ENDBRANCH  15  45
TORSDOF 9
ENDMDL
MODEL 2
REMARK VINA RESULT:    -2.407      1.966      4.840
REMARK INTER + INTRA:           0.785
REMARK INTER:                  -4.167
REMARK INTRA:                   4.952
REMARK UNBOUND:                 4.458
REMARK  9 active torsions:
REMARK  status: ('A' for Active; 'I' for Inactive)
REMARK    1  A    between atoms: C_13  and  C_16 
REMARK    2  A    between atoms: C_14  and  C_17 
REMARK    3  A    between atoms: C_15  and  C_18 
REMARK    4  A    between atoms: C_16  and  C_22 
REMARK    5  A    between atoms: C_17  and  C_23 
REMARK    6  A    between atoms: C_18  and  C_24 
REMARK    7  A    between atoms: C_19  and  C_25 
REMARK    8  A    between atoms: C_20  and  C_26 
REMARK    9  A    between atoms: C_21  and  C_27 
ROOT
HETATM    1  O   UNL     1       5.656  25.073  16.153  1.00  0.00    -0.304 OA
HETATM    2  O   UNL     1       5.455  20.406  14.166  1.00  0.00    -0.304 OA
HETATM    3  O   UNL     1       6.616  21.982  18.597  1.00  0.00    -0.304 OA
HETATM    4  O   UNL     1       4.535  23.821  14.178  1.00  0.00    -0.270 OA
HETATM    5  O   UNL     1       8.075  23.987  20.992  1.00  0.00    -0.270 OA
HETATM    6  O   UNL     1       4.411  21.361  16.389  1.00  0.00    -0.270 OA
HETATM    7  O   UNL     1       7.249  26.288  17.295  1.00  0.00    -0.263 OA
HETATM    8  O   UNL     1       7.569  21.243  14.563  1.00  0.00    -0.263 OA
HETATM    9  O   UNL     1       5.961  21.707  20.785  1.00  0.00    -0.263 OA
HETATM   10  N   UNL     1       6.604  23.489  13.183  1.00  0.00    -0.340 N 
HETATM   11  N   UNL     1       6.485  25.003  19.643  1.00  0.00    -0.340 N 
HETATM   12  N   UNL     1       5.348  19.789  17.814  1.00  0.00    -0.340 N 
HETATM   13  C   UNL     1       6.213  22.134  12.745  1.00  0.00     0.190 C 
HETATM   14  C   UNL     1       5.565  24.977  18.487  1.00  0.00     0.190 C 
HETATM   15  C   UNL     1       4.827  20.478  19.017  1.00  0.00     0.190 C 
HETATM   16  C   UNL     1       6.275  25.306  14.869  1.00  0.00     0.227 C 
HETATM   17  C   UNL     1       5.541  19.542  15.317  1.00  0.00     0.227 C 
HETATM   18  C   UNL     1       7.672  22.905  18.882  1.00  0.00     0.227 C 
HETATM   19  C   UNL     1       5.714  24.164  14.031  1.00  0.00     0.250 C 
HETATM   20  C   UNL     1       7.420  23.999  19.942  1.00  0.00     0.250 C 
HETATM   21  C   UNL     1       5.053  20.316  16.548  1.00  0.00     0.250 C 
HETATM   22  C   UNL     1       6.278  25.545  17.270  1.00  0.00     0.283 C 
HETATM   23  C   UNL     1       6.524  21.224  13.927  1.00  0.00     0.283 C 
HETATM   24  C   UNL     1       5.882  21.421  19.597  1.00  0.00     0.283 C 
HETATM   25  C   UNL     1       7.935  23.992  12.835  1.00  0.00     0.153 C 
HETATM   26  C   UNL     1       6.415  26.158  20.538  1.00  0.00     0.153 C 
HETATM   27  C   UNL     1       6.212  18.627  18.050  1.00  0.00     0.153 C 
ENDROOT
BRANCH  16  28
HETATM   28  C   UNL     1       5.838  26.647  14.310  1.00  0.00     0.016 C 
HETATM   29  C   UNL     1       4.666  26.474  13.346  1.00  0.00     0.012 C 
HETATM   30  C   UNL     1       7.004  27.347  13.614  1.00  0.00     0.012 C 
ENDBRANCH  16  28
BRANCH  14  31
HETATM   31  C   UNL     1       4.237  25.702  18.701  1.00  0.00     0.014 C 
HETATM   32  C   UNL     1       4.038  25.985  20.192  1.00  0.00     0.012 C 
BRANCH  31  33
HETATM   33  C   UNL     1       4.152  27.015  17.904  1.00  0.00     0.002 C 
HETATM   34  C   UNL     1       4.206  28.261  18.775  1.00  0.00     0.005 C 
ENDBRANCH  31  33
ENDBRANCH  14  31
BRANCH  13  35
HETATM   35  C   UNL     1       6.894  21.601  11.492  1.00  0.00     0.014 C 
HETATM   36  C   UNL     1       7.832  20.449  11.861  1.00  0.00     0.012 C 
BRANCH  35  37
HETATM   37  C   UNL     1       5.885  21.131  10.430  1.00  0.00     0.002 C 
HETATM   38  C   UNL     1       5.223  19.801  10.766  1.00  0.00     0.005 C 
ENDBRANCH  35  37
ENDBRANCH  13  35
BRANCH  18  39
HETATM   39  C   UNL     1       8.923  22.087  19.208  1.00  0.00     0.016 C 
HETATM   40  C   UNL     1       8.652  21.132  20.368  1.00  0.00     0.012 C 
HETATM   41  C   UNL     1       9.396  21.316  17.977  1.00  0.00     0.012 C 
ENDBRANCH  18  39
BRANCH  17  42
HETATM   42  C   UNL     1       4.630  18.352  15.051  1.00  0.00     0.016 C 
HETATM   43  C   UNL     1       5.379  17.038  15.271  1.00  0.00     0.012 C 
HETATM   44  C   UNL     1       4.062  18.413  13.634  1.00  0.00     0.012 C 
ENDBRANCH  17  42
BRANCH  15  45
HETATM   45  C   UNL     1       4.287  19.521  20.079  1.00  0.00     0.014 C 
HETATM   46  C   UNL     1       4.068  18.132  19.470  1.00  0.00     0.012 C 
BRANCH  45  47
HETATM   47  C   UNL     1       5.217  19.409  21.303  1.00  0.00     0.002 C 
HETATM   48  C   UNL     1       4.908  18.214  22.191  1.00  0.00     0.005 C 
ENDBRANCH  45  47
ENDBRANCH  15  45
TORSDOF 9
ENDMDL
MODEL 3
REMARK VINA RESULT:    -1.419      2.279      4.941
REMARK INTER + INTRA:           2.292
REMARK INTER:                  -5.289
REMARK INTRA:                   7.581
REMARK UNBOUND:                 4.458
REMARK  9 active torsions:
REMARK  status: ('A' for Active; 'I' for Inactive)
REMARK    1  A    between atoms: C_13  and  C_16 
REMARK    2  A    between atoms: C_14  and  C_17 
REMARK    3  A    between atoms: C_15  and  C_18 
REMARK    4  A    between atoms: C_16  and  C_22 
REMARK    5  A    between atoms: C_17  and  C_23 
REMARK    6  A    between atoms: C_18  and  C_24 
REMARK    7  A    between atoms: C_19  and  C_25 
REMARK    8  A    between atoms: C_20  and  C_26 
REMARK    9  A    between atoms: C_21  and  C_27 
ROOT
HETATM    1  O   UNL     1       5.564  24.313  14.310  1.00  0.00    -0.304 OA
HETATM    2  O   UNL     1       5.393  19.824  11.946  1.00  0.00    -0.304 OA
HETATM    3  O   UNL     1       6.630  21.048  16.467  1.00  0.00    -0.304 OA
HETATM    4  O   UNL     1       4.418  23.210  12.263  1.00  0.00    -0.270 OA
HETATM    5  O   UNL     1       8.111  22.873  18.989  1.00  0.00    -0.270 OA
HETATM    6  O   UNL     1       4.385  20.572  14.262  1.00  0.00    -0.270 OA
HETATM    7  O   UNL     1       7.163  25.457  15.516  1.00  0.00    -0.263 OA
HETATM    8  O   UNL     1       7.502  20.663  12.366  1.00  0.00    -0.263 OA
HETATM    9  O   UNL     1       6.030  20.579  18.638  1.00  0.00    -0.263 OA
HETATM   10  N   UNL     1       6.470  22.999  11.200  1.00  0.00    -0.340 N 
HETATM   11  N   UNL     1       6.474  23.968  17.764  1.00  0.00    -0.340 N 
HETATM   12  N   UNL     1       5.380  18.904  15.531  1.00  0.00    -0.340 N 
HETATM   13  C   UNL     1       6.091  21.678  10.659  1.00  0.00     0.190 C 
HETATM   14  C   UNL     1       5.528  24.022  16.630  1.00  0.00     0.190 C 
HETATM   15  C   UNL     1       4.876  19.481  16.799  1.00  0.00     0.190 C 
HETATM   16  C   UNL     1       6.149  24.663  13.038  1.00  0.00     0.227 C 
HETATM   17  C   UNL     1       5.520  18.869  13.019  1.00  0.00     0.227 C 
HETATM   18  C   UNL     1       7.677  21.962  16.805  1.00  0.00     0.227 C 
HETATM   19  C   UNL     1       5.588  23.584  12.120  1.00  0.00     0.250 C 
HETATM   20  C   UNL     1       7.432  22.960  17.959  1.00  0.00     0.250 C 
HETATM   21  C   UNL     1       5.047  19.529  14.320  1.00  0.00     0.250 C 
HETATM   22  C   UNL     1       6.204  24.702  15.450  1.00  0.00     0.283 C 
HETATM   23  C   UNL     1       6.443  20.679  11.753  1.00  0.00     0.283 C 
HETATM   24  C   UNL     1       5.928  20.391  17.433  1.00  0.00     0.283 C 
HETATM   25  C   UNL     1       7.784  23.552  10.866  1.00  0.00     0.153 C 
HETATM   26  C   UNL     1       6.406  25.043  18.754  1.00  0.00     0.153 C 
HETATM   27  C   UNL     1       6.267  17.742  15.651  1.00  0.00     0.153 C 
ENDROOT
BRANCH  16  28
HETATM   28  C   UNL     1       5.678  26.038  12.603  1.00  0.00     0.016 C 
HETATM   29  C   UNL     1       6.686  27.109  13.015  1.00  0.00     0.012 C 
HETATM   30  C   UNL     1       4.301  26.346  13.188  1.00  0.00     0.012 C 
ENDBRANCH  16  28
BRANCH  14  31
HETATM   31  C   UNL     1       4.194  24.702  16.933  1.00  0.00     0.014 C 
HETATM   32  C   UNL     1       4.038  24.885  18.444  1.00  0.00     0.012 C 
BRANCH  31  33
HETATM   33  C   UNL     1       4.057  26.061  16.225  1.00  0.00     0.002 C 
HETATM   34  C   UNL     1       4.387  27.249  17.118  1.00  0.00     0.005 C 
ENDBRANCH  31  33
ENDBRANCH  14  31
BRANCH  13  35
HETATM   35  C   UNL     1       6.751  21.264   9.351  1.00  0.00     0.014 C 
HETATM   36  C   UNL     1       6.966  22.494   8.466  1.00  0.00     0.012 C 
BRANCH  35  37
HETATM   37  C   UNL     1       8.091  20.541   9.571  1.00  0.00     0.002 C 
HETATM   38  C   UNL     1       8.138  19.146   8.960  1.00  0.00     0.005 C 
ENDBRANCH  35  37
ENDBRANCH  13  35
BRANCH  18  39
HETATM   39  C   UNL     1       8.948  21.142  17.035  1.00  0.00     0.016 C 
HETATM   40  C   UNL     1       9.016  19.972  16.057  1.00  0.00     0.012 C 
HETATM   41  C   UNL     1      10.187  22.026  16.903  1.00  0.00     0.012 C 
ENDBRANCH  18  39
BRANCH  17  42
HETATM   42  C   UNL     1       4.622  17.689  12.674  1.00  0.00     0.016 C 
HETATM   43  C   UNL     1       4.346  16.839  13.914  1.00  0.00     0.012 C 
HETATM   44  C   UNL     1       5.249  16.838  11.571  1.00  0.00     0.012 C 
ENDBRANCH  17  42
BRANCH  15  45
HETATM   45  C   UNL     1       4.376  18.430  17.788  1.00  0.00     0.014 C 
HETATM   46  C   UNL     1       5.049  17.082  17.505  1.00  0.00     0.012 C 
BRANCH  45  47
HETATM   47  C   UNL     1       4.622  18.834  19.255  1.00  0.00     0.002 C 
HETATM   48  C   UNL     1       5.308  17.751  20.074  1.00  0.00     0.005 C 
ENDBRANCH  45  47
ENDBRANCH  15  45
TORSDOF 9
ENDMDL
MODEL 4
REMARK VINA RESULT:    -0.912      1.042      1.486
REMARK INTER + INTRA:           3.067
REMARK INTER:                  -0.923
REMARK INTRA:                   3.990
REMARK UNBOUND:                 4.458
REMARK  9 active torsions:
REMARK  status: ('A' for Active; 'I' for Inactive)
REMARK    1  A    between atoms: C_13  and  C_16 
REMARK    2  A    between atoms: C_14  and  C_17 
REMARK    3  A    between atoms: C_15  and  C_18 
REMARK    4  A    between atoms: C_16  and  C_22 
REMARK    5  A    between atoms: C_17  and  C_23 
REMARK    6  A    between atoms: C_18  and  C_24 
REMARK    7  A    between atoms: C_19  and  C_25 
REMARK    8  A    between atoms: C_20  and  C_26 
REMARK    9  A    between atoms: C_21  and  C_27 
ROOT
HETATM    1  O   UNL     1       5.414  24.921  17.662  1.00  0.00    -0.304 OA
HETATM    2  O   UNL     1       5.449  24.794  12.587  1.00  0.00    -0.304 OA
HETATM    3  O   UNL     1       7.322  21.804  15.905  1.00  0.00    -0.304 OA
HETATM    4  O   UNL     1       4.075  25.882  15.660  1.00  0.00    -0.270 OA
HETATM    5  O   UNL     1       8.972  20.854  18.780  1.00  0.00    -0.270 OA
HETATM    6  O   UNL     1       4.796  22.936  14.336  1.00  0.00    -0.270 OA
HETATM    7  O   UNL     1       7.029  24.802  19.304  1.00  0.00    -0.263 OA
HETATM    8  O   UNL     1       7.457  25.322  13.597  1.00  0.00    -0.263 OA
HETATM    9  O   UNL     1       7.213  19.594  16.537  1.00  0.00    -0.263 OA
HETATM   10  N   UNL     1       5.899  27.169  15.028  1.00  0.00    -0.340 N 
HETATM   11  N   UNL     1       6.995  22.028  19.080  1.00  0.00    -0.340 N 
HETATM   12  N   UNL     1       6.240  21.305  13.536  1.00  0.00    -0.340 N 
HETATM   13  C   UNL     1       5.620  26.923  13.599  1.00  0.00     0.190 C 
HETATM   14  C   UNL     1       5.855  22.799  18.540  1.00  0.00     0.190 C 
HETATM   15  C   UNL     1       5.904  20.378  14.641  1.00  0.00     0.190 C 
HETATM   16  C   UNL     1       5.694  26.306  17.366  1.00  0.00     0.227 C 
HETATM   17  C   UNL     1       5.910  23.463  12.283  1.00  0.00     0.227 C 
HETATM   18  C   UNL     1       8.271  22.187  16.904  1.00  0.00     0.227 C 
HETATM   19  C   UNL     1       5.132  26.452  15.958  1.00  0.00     0.250 C 
HETATM   20  C   UNL     1       8.107  21.614  18.329  1.00  0.00     0.250 C 
HETATM   21  C   UNL     1       5.600  22.553  13.478  1.00  0.00     0.250 C 
HETATM   22  C   UNL     1       6.194  24.281  18.580  1.00  0.00     0.283 C 
HETATM   23  C   UNL     1       6.310  25.604  13.275  1.00  0.00     0.283 C 
HETATM   24  C   UNL     1       6.915  20.509  15.780  1.00  0.00     0.283 C 
HETATM   25  C   UNL     1       7.034  28.019  15.393  1.00  0.00     0.153 C 
HETATM   26  C   UNL     1       6.960  21.672  20.498  1.00  0.00     0.153 C 
HETATM   27  C   UNL     1       7.291  20.867  12.612  1.00  0.00     0.153 C 
ENDROOT
BRANCH  16  28
HETATM   28  C   UNL     1       4.957  27.211  18.336  1.00  0.00     0.016 C 
HETATM   29  C   UNL     1       5.944  28.027  19.167  1.00  0.00     0.012 C 
HETATM   30  C   UNL     1       4.039  26.394  19.244  1.00  0.00     0.012 C 
ENDBRANCH  16  28
BRANCH  14  31
HETATM   31  C   UNL     1       4.518  22.549  19.234  1.00  0.00     0.014 C 
HETATM   32  C   UNL     1       4.105  21.087  19.049  1.00  0.00     0.012 C 
BRANCH  31  33
HETATM   33  C   UNL     1       4.564  22.892  20.734  1.00  0.00     0.002 C 
HETATM   34  C   UNL     1       4.050  24.288  21.054  1.00  0.00     0.005 C 
ENDBRANCH  31  33
ENDBRANCH  14  31
BRANCH  13  35
HETATM   35  C   UNL     1       6.075  27.997  12.622  1.00  0.00     0.014 C 
HETATM   36  C   UNL     1       5.118  28.052  11.428  1.00  0.00     0.012 C 
BRANCH  35  37
HETATM   37  C   UNL     1       6.170  29.386  13.277  1.00  0.00     0.002 C 
HETATM   38  C   UNL     1       7.361  30.206  12.796  1.00  0.00     0.005 C 
ENDBRANCH  35  37
ENDBRANCH  13  35
BRANCH  18  39
HETATM   39  C   UNL     1       9.667  21.904  16.346  1.00  0.00     0.016 C 
HETATM   40  C   UNL     1       9.755  22.326  14.881  1.00  0.00     0.012 C 
HETATM   41  C   UNL     1      10.732  22.621  17.175  1.00  0.00     0.012 C 
ENDBRANCH  18  39
BRANCH  17  42
HETATM   42  C   UNL     1       5.142  22.995  11.055  1.00  0.00     0.016 C 
HETATM   43  C   UNL     1       4.176  21.868  11.418  1.00  0.00     0.012 C 
HETATM   44  C   UNL     1       6.104  22.540   9.958  1.00  0.00     0.012 C 
ENDBRANCH  17  42
BRANCH  15  45
HETATM   45  C   UNL     1       5.755  18.926  14.191  1.00  0.00     0.014 C 
HETATM   46  C   UNL     1       7.041  18.149  14.491  1.00  0.00     0.012 C 
BRANCH  45  47
HETATM   47  C   UNL     1       4.557  18.220  14.855  1.00  0.00     0.002 C 
HETATM   48  C   UNL     1       4.041  17.028  14.064  1.00  0.00     0.005 C 
ENDBRANCH  45  47
ENDBRANCH  15  45
TORSDOF 9
ENDMDL
MODEL 5
REMARK VINA RESULT:    -0.749      1.589      2.322
REMARK INTER + INTRA:           3.315
REMARK INTER:                  -2.684
REMARK INTRA:                   5.998
REMARK UNBOUND:                 4.458
REMARK  9 active torsions:
REMARK  status: ('A' for Active; 'I' for Inactive)
REMARK    1  A    between atoms: C_13  and  C_16 
REMARK    2  A    between atoms: C_14  and  C_17 
REMARK    3  A    between atoms: C_15  and  C_18 
REMARK    4  A    between atoms: C_16  and  C_22 
REMARK    5  A    between atoms: C_17  and  C_23 
REMARK    6  A    between atoms: C_18  and  C_24 
REMARK    7  A    between atoms: C_19  and  C_25 
REMARK    8  A    between atoms: C_20  and  C_26 
REMARK    9  A    between atoms: C_21  and  C_27 
ROOT
HETATM    1  O   UNL     1       5.483  24.057  18.668  1.00  0.00    -0.304 OA
HETATM    2  O   UNL     1       4.870  26.383  14.198  1.00  0.00    -0.304 OA
HETATM    3  O   UNL     1       6.529  21.980  15.346  1.00  0.00    -0.304 OA
HETATM    4  O   UNL     1       4.118  26.003  17.633  1.00  0.00    -0.270 OA
HETATM    5  O   UNL     1       8.307  19.589  17.081  1.00  0.00    -0.270 OA
HETATM    6  O   UNL     1       4.093  23.997  15.001  1.00  0.00    -0.270 OA
HETATM    7  O   UNL     1       7.235  22.986  19.718  1.00  0.00    -0.263 OA
HETATM    8  O   UNL     1       7.050  26.135  14.915  1.00  0.00    -0.263 OA
HETATM    9  O   UNL     1       6.077  19.766  14.911  1.00  0.00    -0.263 OA
HETATM   10  N   UNL     1       6.063  27.225  17.307  1.00  0.00    -0.340 N 
HETATM   11  N   UNL     1       6.643  20.685  18.269  1.00  0.00    -0.340 N 
HETATM   12  N   UNL     1       5.089  22.805  13.277  1.00  0.00    -0.340 N 
HETATM   13  C   UNL     1       5.568  27.729  16.010  1.00  0.00     0.190 C 
HETATM   14  C   UNL     1       5.615  21.741  18.377  1.00  0.00     0.190 C 
HETATM   15  C   UNL     1       4.720  21.504  13.882  1.00  0.00     0.190 C 
HETATM   16  C   UNL     1       5.985  25.373  18.984  1.00  0.00     0.227 C 
HETATM   17  C   UNL     1       5.026  25.320  13.236  1.00  0.00     0.227 C 
HETATM   18  C   UNL     1       7.650  21.728  16.198  1.00  0.00     0.227 C 
HETATM   19  C   UNL     1       5.292  26.240  17.941  1.00  0.00     0.250 C 
HETATM   20  C   UNL     1       7.554  20.563  17.208  1.00  0.00     0.250 C 
HETATM   21  C   UNL     1       4.697  23.988  13.921  1.00  0.00     0.250 C 
HETATM   22  C   UNL     1       6.233  22.973  19.019  1.00  0.00     0.283 C 
HETATM   23  C   UNL     1       5.948  26.662  14.991  1.00  0.00     0.283 C 
HETATM   24  C   UNL     1       5.870  20.959  14.730  1.00  0.00     0.283 C 
HETATM   25  C   UNL     1       7.376  27.664  17.784  1.00  0.00     0.153 C 
HETATM   26  C   UNL     1       6.715  19.697  19.346  1.00  0.00     0.153 C 
HETATM   27  C   UNL     1       5.915  22.751  12.067  1.00  0.00     0.153 C 
ENDROOT
BRANCH  16  28
HETATM   28  C   UNL     1       5.560  25.775  20.385  1.00  0.00     0.016 C 
HETATM   29  C   UNL     1       4.432  26.804  20.331  1.00  0.00     0.012 C 
HETATM   30  C   UNL     1       6.748  26.324  21.173  1.00  0.00     0.012 C 
ENDBRANCH  16  28
BRANCH  14  31
HETATM   31  C   UNL     1       4.350  21.336  19.132  1.00  0.00     0.014 C 
HETATM   32  C   UNL     1       4.038  19.862  18.866  1.00  0.00     0.012 C 
BRANCH  31  33
HETATM   33  C   UNL     1       4.470  21.579  20.647  1.00  0.00     0.002 C 
HETATM   34  C   UNL     1       4.435  20.302  21.473  1.00  0.00     0.005 C 
ENDBRANCH  31  33
ENDBRANCH  14  31
BRANCH  13  35
HETATM   35  C   UNL     1       6.097  29.083  15.559  1.00  0.00     0.014 C 
HETATM   36  C   UNL     1       6.716  29.821  16.750  1.00  0.00     0.012 C 
BRANCH  35  37
HETATM   37  C   UNL     1       7.132  28.964  14.427  1.00  0.00     0.002 C 
HETATM   38  C   UNL     1       6.660  29.556  13.106  1.00  0.00     0.005 C 
ENDBRANCH  35  37
ENDBRANCH  13  35
BRANCH  18  39
HETATM   39  C   UNL     1       8.886  21.597  15.307  1.00  0.00     0.016 C 
HETATM   40  C   UNL     1       8.786  22.537  14.109  1.00  0.00     0.012 C 
HETATM   41  C   UNL     1      10.156  21.880  16.108  1.00  0.00     0.012 C 
ENDBRANCH  18  39
BRANCH  17  42
HETATM   42  C   UNL     1       4.038  25.588  12.110  1.00  0.00     0.016 C 
HETATM   43  C   UNL     1       4.345  24.706  10.901  1.00  0.00     0.012 C 
HETATM   44  C   UNL     1       4.059  27.064  11.713  1.00  0.00     0.012 C 
ENDBRANCH  17  42
BRANCH  15  45
HETATM   45  C   UNL     1       4.241  20.474  12.860  1.00  0.00     0.014 C 
HETATM   46  C   UNL     1       4.038  21.143  11.497  1.00  0.00     0.012 C 
BRANCH  45  47
HETATM   47  C   UNL     1       5.214  19.288  12.714  1.00  0.00     0.002 C 
HETATM   48  C   UNL     1       5.396  18.826  11.277  1.00  0.00     0.005 C 
ENDBRANCH  45  47
ENDBRANCH  15  45
TORSDOF 9
ENDMDL
