MODEL 1
REMARK VINA RESULT:    -6.301      0.000      0.000
REMARK INTER + INTRA:          -8.764
REMARK INTER:                  -8.045
REMARK INTRA:                  -0.719
REMARK UNBOUND:                -0.805
REMARK  5 active torsions:
REMARK  status: ('A' for Active; 'I' for Inactive)
REMARK    1  A    between atoms: C_1  and  C_6 
REMARK    2  A    between atoms: C_1  and  O_14 
REMARK    3  A    between atoms: C_2  and  C_3 
REMARK    4  A    between atoms: C_2  and  C_11 
REMARK    5  A    between atoms: C_6  and  C_8 
ROOT
HETATM    1  C   UNL     1       7.303   3.007 -14.612  1.00  0.00    -0.044 A 
HETATM    2  C   UNL     1       7.157   4.077 -13.749  1.00  0.00     0.008 A 
HETATM    3  C   UNL     1       8.174   4.400 -12.872  1.00  0.00     0.007 A 
HETATM    4  C   UNL     1       9.337   3.654 -12.858  1.00  0.00    -0.058 A 
HETATM    5  C   UNL     1       9.485   2.588 -13.724  1.00  0.00     0.007 A 
HETATM    6  C   UNL     1       8.465   2.262 -14.598  1.00  0.00     0.008 A 
ENDROOT
BRANCH   1   7
HETATM    7  C   UNL     1       6.193   2.653 -15.568  1.00  0.00     0.112 C 
HETATM    8  C   UNL     1       5.476   1.396 -15.075  1.00  0.00     0.026 C 
BRANCH   7   9
HETATM    9  C   UNL     1       6.770   2.399 -16.936  1.00  0.00     0.148 C 
HETATM   10  O   UNL     1       7.295   3.299 -17.547  1.00  0.00    -0.649 OA
BRANCH   9  11
HETATM   11  O   UNL     1       6.699   1.173 -17.477  1.00  0.00    -0.776 OA
HETATM   12  H   UNL     1       6.041   0.540 -17.157  1.00  0.00     0.167 HD
ENDBRANCH   9  11
ENDBRANCH   7   9
ENDBRANCH   1   7
BRANCH   4  13
HETATM   13  C   UNL     1      10.447   4.007 -11.901  1.00  0.00     0.042 C 
BRANCH  13  14
HETATM   14  C   UNL     1      11.721   3.261 -12.299  1.00  0.00    -0.019 C 
HETATM   15  C   UNL     1      12.831   4.271 -12.600  1.00  0.00     0.010 C 
HETATM   16  C   UNL     1      12.158   2.349 -11.153  1.00  0.00     0.010 C 
ENDBRANCH  13  14
ENDBRANCH   4  13
TORSDOF 5
ENDMDL
MODEL 2
REMARK VINA RESULT:    -6.297      0.019      1.236
REMARK INTER + INTRA:          -8.759
REMARK INTER:                  -8.048
REMARK INTRA:                  -0.711
REMARK UNBOUND:                -0.805
REMARK  5 active torsions:
REMARK  status: ('A' for Active; 'I' for Inactive)
REMARK    1  A    between atoms: C_1  and  C_6 
REMARK    2  A    between atoms: C_1  and  O_14 
REMARK    3  A    between atoms: C_2  and  C_3 
REMARK    4  A    between atoms: C_2  and  C_11 
REMARK    5  A    between atoms: C_6  and  C_8 
ROOT
HETATM    1  C   UNL     1       7.292   3.015 -14.614  1.00  0.00    -0.044 A 
HETATM    2  C   UNL     1       8.465   2.283 -14.615  1.00  0.00     0.008 A 
HETATM    3  C   UNL     1       9.484   2.610 -13.741  1.00  0.00     0.007 A 
HETATM    4  C   UNL     1       9.331   3.669 -12.867  1.00  0.00    -0.058 A 
HETATM    5  C   UNL     1       8.157   4.398 -12.862  1.00  0.00     0.007 A 
HETATM    6  C   UNL     1       7.140   4.074 -13.739  1.00  0.00     0.008 A 
ENDROOT
BRANCH   1   7
HETATM    7  C   UNL     1       6.181   2.660 -15.568  1.00  0.00     0.112 C 
HETATM    8  C   UNL     1       5.466   1.403 -15.073  1.00  0.00     0.026 C 
BRANCH   7   9
HETATM    9  C   UNL     1       6.757   2.405 -16.936  1.00  0.00     0.148 C 
HETATM   10  O   UNL     1       7.268   3.308 -17.555  1.00  0.00    -0.649 OA
BRANCH   9  11
HETATM   11  O   UNL     1       6.700   1.175 -17.470  1.00  0.00    -0.776 OA
HETATM   12  H   UNL     1       7.094   1.005 -18.337  1.00  0.00     0.167 HD
ENDBRANCH   9  11
ENDBRANCH   7   9
ENDBRANCH   1   7
BRANCH   4  13
HETATM   13  C   UNL     1      10.443   4.026 -11.914  1.00  0.00     0.042 C 
BRANCH  13  14
HETATM   14  C   UNL     1      11.712   3.268 -12.305  1.00  0.00    -0.019 C 
HETATM   15  C   UNL     1      12.834   4.267 -12.598  1.00  0.00     0.010 C 
HETATM   16  C   UNL     1      12.134   2.351 -11.156  1.00  0.00     0.010 C 
ENDBRANCH  13  14
ENDBRANCH   4  13
TORSDOF 5
ENDMDL
MODEL 3
REMARK VINA RESULT:    -6.215      1.567      1.804
REMARK INTER + INTRA:          -8.655
REMARK INTER:                  -7.888
REMARK INTRA:                  -0.767
REMARK UNBOUND:                -0.805
REMARK  5 active torsions:
REMARK  status: ('A' for Active; 'I' for Inactive)
REMARK    1  A    between atoms: C_1  and  C_6 
REMARK    2  A    between atoms: C_1  and  O_14 
REMARK    3  A    between atoms: C_2  and  C_3 
REMARK    4  A    between atoms: C_2  and  C_11 
REMARK    5  A    between atoms: C_6  and  C_8 
ROOT
HETATM    1  C   UNL     1       7.598   2.990 -14.400  1.00  0.00    -0.044 A 
HETATM    2  C   UNL     1       7.470   4.074 -13.551  1.00  0.00     0.008 A 
HETATM    3  C   UNL     1       8.492   4.391 -12.678  1.00  0.00     0.007 A 
HETATM    4  C   UNL     1       9.641   3.625 -12.652  1.00  0.00    -0.058 A 
HETATM    5  C   UNL     1       9.772   2.546 -13.504  1.00  0.00     0.007 A 
HETATM    6  C   UNL     1       8.748   2.225 -14.374  1.00  0.00     0.008 A 
ENDROOT
BRANCH   1   7
HETATM    7  C   UNL     1       6.483   2.642 -15.352  1.00  0.00     0.112 C 
HETATM    8  C   UNL     1       6.029   3.903 -16.089  1.00  0.00     0.026 C 
BRANCH   7   9
HETATM    9  C   UNL     1       5.325   2.067 -14.580  1.00  0.00     0.148 C 
HETATM   10  O   UNL     1       4.407   2.779 -14.248  1.00  0.00    -0.649 OA
BRANCH   9  11
HETATM   11  O   UNL     1       5.312   0.763 -14.260  1.00  0.00    -0.776 OA
HETATM   12  H   UNL     1       5.535   0.484 -13.361  1.00  0.00     0.167 HD
ENDBRANCH   9  11
ENDBRANCH   7   9
ENDBRANCH   1   7
BRANCH   4  13
HETATM   13  C   UNL     1      10.756   3.972 -11.698  1.00  0.00     0.042 C 
BRANCH  13  14
HETATM   14  C   UNL     1      12.046   3.288 -12.152  1.00  0.00    -0.019 C 
HETATM   15  C   UNL     1      13.065   4.350 -12.574  1.00  0.00     0.010 C 
HETATM   16  C   UNL     1      12.619   2.463 -10.999  1.00  0.00     0.010 C 
ENDBRANCH  13  14
ENDBRANCH   4  13
TORSDOF 5
ENDMDL
MODEL 4
REMARK VINA RESULT:    -6.079      3.429      6.130
REMARK INTER + INTRA:          -8.483
REMARK INTER:                  -7.782
REMARK INTRA:                  -0.701
REMARK UNBOUND:                -0.805
REMARK  5 active torsions:
REMARK  status: ('A' for Active; 'I' for Inactive)
REMARK    1  A    between atoms: C_1  and  C_6 
REMARK    2  A    between atoms: C_1  and  O_14 
REMARK    3  A    between atoms: C_2  and  C_3 
REMARK    4  A    between atoms: C_2  and  C_11 
REMARK    5  A    between atoms: C_6  and  C_8 
ROOT
HETATM    1  C   UNL     1      11.017   3.250 -12.662  1.00  0.00    -0.044 A 
HETATM    2  C   UNL     1      10.337   4.289 -12.054  1.00  0.00     0.008 A 
HETATM    3  C   UNL     1       9.044   4.585 -12.438  1.00  0.00     0.007 A 
HETATM    4  C   UNL     1       8.430   3.844 -13.430  1.00  0.00    -0.058 A 
HETATM    5  C   UNL     1       9.108   2.802 -14.034  1.00  0.00     0.007 A 
HETATM    6  C   UNL     1      10.404   2.509 -13.653  1.00  0.00     0.008 A 
ENDROOT
BRANCH   1   7
HETATM    7  C   UNL     1      12.429   2.927 -12.245  1.00  0.00     0.112 C 
HETATM    8  C   UNL     1      13.069   2.002 -13.281  1.00  0.00     0.026 C 
BRANCH   7   9
HETATM    9  C   UNL     1      12.412   2.243 -10.903  1.00  0.00     0.148 C 
HETATM   10  O   UNL     1      11.519   1.479 -10.626  1.00  0.00    -0.649 OA
BRANCH   9  11
HETATM   11  O   UNL     1      13.389   2.484 -10.014  1.00  0.00    -0.776 OA
HETATM   12  H   UNL     1      14.107   3.092 -10.238  1.00  0.00     0.167 HD
ENDBRANCH   9  11
ENDBRANCH   7   9
ENDBRANCH   1   7
BRANCH   4  13
HETATM   13  C   UNL     1       7.019   4.168 -13.849  1.00  0.00     0.042 C 
BRANCH  13  14
HETATM   14  C   UNL     1       6.522   3.106 -14.830  1.00  0.00    -0.019 C 
HETATM   15  C   UNL     1       5.254   2.452 -14.276  1.00  0.00     0.010 C 
HETATM   16  C   UNL     1       6.211   3.761 -16.176  1.00  0.00     0.010 C 
ENDBRANCH  13  14
ENDBRANCH   4  13
TORSDOF 5
ENDMDL
MODEL 5
REMARK VINA RESULT:    -6.059      1.074      2.082
REMARK INTER + INTRA:          -8.458
REMARK INTER:                  -7.820
REMARK INTRA:                  -0.638
REMARK UNBOUND:                -0.805
REMARK  5 active torsions:
REMARK  status: ('A' for Active; 'I' for Inactive)
REMARK    1  A    between atoms: C_1  and  C_6 
REMARK    2  A    between atoms: C_1  and  O_14 
REMARK    3  A    between atoms: C_2  and  C_3 
REMARK    4  A    between atoms: C_2  and  C_11 
REMARK    5  A    between atoms: C_6  and  C_8 
ROOT
HETATM    1  C   UNL     1       7.414   3.052 -14.280  1.00  0.00    -0.044 A 
HETATM    2  C   UNL     1       8.110   2.026 -14.890  1.00  0.00     0.008 A 
HETATM    3  C   UNL     1       9.414   1.759 -14.517  1.00  0.00     0.007 A 
HETATM    4  C   UNL     1      10.021   2.519 -13.536  1.00  0.00    -0.058 A 
HETATM    5  C   UNL     1       9.323   3.542 -12.922  1.00  0.00     0.007 A 
HETATM    6  C   UNL     1       8.021   3.811 -13.299  1.00  0.00     0.008 A 
ENDROOT
BRANCH   1   7
HETATM    7  C   UNL     1       5.992   3.344 -14.687  1.00  0.00     0.112 C 
HETATM    8  C   UNL     1       5.075   2.234 -14.173  1.00  0.00     0.026 C 
BRANCH   7   9
HETATM    9  C   UNL     1       5.904   3.413 -16.189  1.00  0.00     0.148 C 
HETATM   10  O   UNL     1       5.131   2.699 -16.782  1.00  0.00    -0.649 OA
BRANCH   9  11
HETATM   11  O   UNL     1       6.686   4.267 -16.869  1.00  0.00    -0.776 OA
HETATM   12  H   UNL     1       6.292   5.024 -17.326  1.00  0.00     0.167 HD
ENDBRANCH   9  11
ENDBRANCH   7   9
ENDBRANCH   1   7
BRANCH   4  13
HETATM   13  C   UNL     1      11.443   2.228 -13.129  1.00  0.00     0.042 C 
BRANCH  13  14
HETATM   14  C   UNL     1      11.845   3.156 -11.983  1.00  0.00    -0.019 C 
HETATM   15  C   UNL     1      12.544   2.343 -10.890  1.00  0.00     0.010 C 
HETATM   16  C   UNL     1      12.799   4.230 -12.506  1.00  0.00     0.010 C 
ENDBRANCH  13  14
ENDBRANCH   4  13
TORSDOF 5
ENDMDL
MODEL 6
REMARK VINA RESULT:    -5.982      3.062      6.059
REMARK INTER + INTRA:          -8.361
REMARK INTER:                  -7.628
REMARK INTRA:                  -0.733
REMARK UNBOUND:                -0.805
REMARK  5 active torsions:
REMARK  status: ('A' for Active; 'I' for Inactive)
REMARK    1  A    between atoms: C_1  and  C_6 
REMARK    2  A    between atoms: C_1  and  O_14 
REMARK    3  A    between atoms: C_2  and  C_3 
REMARK    4  A    between atoms: C_2  and  C_11 
REMARK    5  A    between atoms: C_6  and  C_8 
ROOT
HETATM    1  C   UNL     1      10.146   3.546 -12.613  1.00  0.00    -0.044 A 
HETATM    2  C   UNL     1      10.095   2.787 -13.767  1.00  0.00     0.008 A 
HETATM    3  C   UNL     1       8.938   2.755 -14.522  1.00  0.00     0.007 A 
HETATM    4  C   UNL     1       7.833   3.482 -14.123  1.00  0.00    -0.058 A 
HETATM    5  C   UNL     1       7.885   4.245 -12.973  1.00  0.00     0.007 A 
HETATM    6  C   UNL     1       9.040   4.273 -12.215  1.00  0.00     0.008 A 
ENDROOT
BRANCH   1   7
HETATM    7  C   UNL     1      11.406   3.580 -11.788  1.00  0.00     0.112 C 
HETATM    8  C   UNL     1      12.553   4.139 -12.630  1.00  0.00     0.026 C 
BRANCH   7   9
HETATM    9  C   UNL     1      11.748   2.185 -11.336  1.00  0.00     0.148 C 
HETATM   10  O   UNL     1      12.904   1.852 -11.224  1.00  0.00    -0.649 OA
BRANCH   9  11
HETATM   11  O   UNL     1      10.769   1.309 -11.059  1.00  0.00    -0.776 OA
HETATM   12  H   UNL     1      10.807   0.411 -11.418  1.00  0.00     0.167 HD
ENDBRANCH   9  11
ENDBRANCH   7   9
ENDBRANCH   1   7
BRANCH   4  13
HETATM   13  C   UNL     1       6.571   3.447 -14.948  1.00  0.00     0.042 C 
BRANCH  13  14
HETATM   14  C   UNL     1       6.043   2.014 -15.010  1.00  0.00    -0.019 C 
HETATM   15  C   UNL     1       4.820   1.881 -14.100  1.00  0.00     0.010 C 
HETATM   16  C   UNL     1       5.646   1.678 -16.448  1.00  0.00     0.010 C 
ENDBRANCH  13  14
ENDBRANCH   4  13
TORSDOF 5
ENDMDL
MODEL 7
REMARK VINA RESULT:    -5.940      1.101      1.948
REMARK INTER + INTRA:          -8.308
REMARK INTER:                  -7.465
REMARK INTRA:                  -0.843
REMARK UNBOUND:                -0.805
REMARK  5 active torsions:
REMARK  status: ('A' for Active; 'I' for Inactive)
REMARK    1  A    between atoms: C_1  and  C_6 
REMARK    2  A    between atoms: C_1  and  O_14 
REMARK    3  A    between atoms: C_2  and  C_3 
REMARK    4  A    between atoms: C_2  and  C_11 
REMARK    5  A    between atoms: C_6  and  C_8 
ROOT
HETATM    1  C   UNL     1       7.983   2.828 -14.947  1.00  0.00    -0.044 A 
HETATM    2  C   UNL     1       9.082   2.011 -14.759  1.00  0.00     0.008 A 
HETATM    3  C   UNL     1       9.956   2.258 -13.718  1.00  0.00     0.007 A 
HETATM    4  C   UNL     1       9.731   3.322 -12.865  1.00  0.00    -0.058 A 
HETATM    5  C   UNL     1       8.630   4.135 -13.050  1.00  0.00     0.007 A 
HETATM    6  C   UNL     1       7.759   3.891 -14.094  1.00  0.00     0.008 A 
ENDROOT
BRANCH   1   7
HETATM    7  C   UNL     1       7.031   2.561 -16.084  1.00  0.00     0.112 C 
HETATM    8  C   UNL     1       6.078   3.747 -16.242  1.00  0.00     0.026 C 
BRANCH   7   9
HETATM    9  C   UNL     1       6.237   1.315 -15.791  1.00  0.00     0.148 C 
HETATM   10  O   UNL     1       6.191   0.423 -16.605  1.00  0.00    -0.649 OA
BRANCH   9  11
HETATM   11  O   UNL     1       5.579   1.195 -14.627  1.00  0.00    -0.776 OA
HETATM   12  H   UNL     1       6.032   0.841 -13.849  1.00  0.00     0.167 HD
ENDBRANCH   9  11
ENDBRANCH   7   9
ENDBRANCH   1   7
BRANCH   4  13
HETATM   13  C   UNL     1      10.685   3.590 -11.729  1.00  0.00     0.042 C 
BRANCH  13  14
HETATM   14  C   UNL     1      12.082   3.099 -12.109  1.00  0.00    -0.019 C 
HETATM   15  C   UNL     1      12.955   4.295 -12.499  1.00  0.00     0.010 C 
HETATM   16  C   UNL     1      12.711   2.376 -10.918  1.00  0.00     0.010 C 
ENDBRANCH  13  14
ENDBRANCH   4  13
TORSDOF 5
ENDMDL
MODEL 8
REMARK VINA RESULT:    -5.720      3.087      5.948
REMARK INTER + INTRA:          -8.030
REMARK INTER:                  -7.735
REMARK INTRA:                  -0.295
REMARK UNBOUND:                -0.805
REMARK  5 active torsions:
REMARK  status: ('A' for Active; 'I' for Inactive)
REMARK    1  A    between atoms: C_1  and  C_6 
REMARK    2  A    between atoms: C_1  and  O_14 
REMARK    3  A    between atoms: C_2  and  C_3 
REMARK    4  A    between atoms: C_2  and  C_11 
REMARK    5  A    between atoms: C_6  and  C_8 
ROOT
HETATM    1  C   UNL     1      10.370   2.913 -13.118  1.00  0.00    -0.044 A 
HETATM    2  C   UNL     1       9.491   3.853 -12.614  1.00  0.00     0.008 A 
HETATM    3  C   UNL     1       8.207   3.936 -13.117  1.00  0.00     0.007 A 
HETATM    4  C   UNL     1       7.802   3.080 -14.124  1.00  0.00    -0.058 A 
HETATM    5  C   UNL     1       8.680   2.137 -14.624  1.00  0.00     0.007 A 
HETATM    6  C   UNL     1       9.966   2.058 -14.124  1.00  0.00     0.008 A 
ENDROOT
BRANCH   1   7
HETATM    7  C   UNL     1      11.772   2.823 -12.571  1.00  0.00     0.112 C 
HETATM    8  C   UNL     1      11.765   2.000 -11.282  1.00  0.00     0.026 C 
BRANCH   7   9
HETATM    9  C   UNL     1      12.287   4.208 -12.281  1.00  0.00     0.148 C 
HETATM   10  O   UNL     1      11.837   4.838 -11.353  1.00  0.00    -0.649 OA
BRANCH   9  11
HETATM   11  O   UNL     1      13.246   4.743 -13.053  1.00  0.00    -0.776 OA
HETATM   12  H   UNL     1      13.230   5.689 -13.258  1.00  0.00     0.167 HD
ENDBRANCH   9  11
ENDBRANCH   7   9
ENDBRANCH   1   7
BRANCH   4  13
HETATM   13  C   UNL     1       6.401   3.171 -14.672  1.00  0.00     0.042 C 
BRANCH  13  14
HETATM   14  C   UNL     1       5.813   1.766 -14.803  1.00  0.00    -0.019 C 
HETATM   15  C   UNL     1       4.570   1.648 -13.917  1.00  0.00     0.010 C 
HETATM   16  C   UNL     1       5.425   1.508 -16.260  1.00  0.00     0.010 C 
ENDBRANCH  13  14
ENDBRANCH   4  13
TORSDOF 5
ENDMDL
MODEL 9
REMARK VINA RESULT:    -5.695      2.815      6.069
REMARK INTER + INTRA:          -7.998
REMARK INTER:                  -7.210
REMARK INTRA:                  -0.788
REMARK UNBOUND:                -0.805
REMARK  5 active torsions:
REMARK  status: ('A' for Active; 'I' for Inactive)
REMARK    1  A    between atoms: C_1  and  C_6 
REMARK    2  A    between atoms: C_1  and  O_14 
REMARK    3  A    between atoms: C_2  and  C_3 
REMARK    4  A    between atoms: C_2  and  C_11 
REMARK    5  A    between atoms: C_6  and  C_8 
ROOT
HETATM    1  C   UNL     1      10.061   3.249 -13.881  1.00  0.00    -0.044 A 
HETATM    2  C   UNL     1      10.075   1.892 -14.142  1.00  0.00     0.008 A 
HETATM    3  C   UNL     1       9.219   1.361 -15.087  1.00  0.00     0.007 A 
HETATM    4  C   UNL     1       8.348   2.188 -15.771  1.00  0.00    -0.058 A 
HETATM    5  C   UNL     1       8.337   3.545 -15.515  1.00  0.00     0.007 A 
HETATM    6  C   UNL     1       9.190   4.075 -14.566  1.00  0.00     0.008 A 
ENDROOT
BRANCH   1   7
HETATM    7  C   UNL     1      10.993   3.828 -12.849  1.00  0.00     0.112 C 
HETATM    8  C   UNL     1      12.023   2.774 -12.442  1.00  0.00     0.026 C 
BRANCH   7   9
HETATM    9  C   UNL     1      10.203   4.252 -11.639  1.00  0.00     0.148 C 
HETATM   10  O   UNL     1       9.220   3.630 -11.311  1.00  0.00    -0.649 OA
BRANCH   9  11
HETATM   11  O   UNL     1      10.589   5.321 -10.924  1.00  0.00    -0.776 OA
HETATM   12  H   UNL     1      10.621   5.271  -9.959  1.00  0.00     0.167 HD
ENDBRANCH   9  11
ENDBRANCH   7   9
ENDBRANCH   1   7
BRANCH   4  13
HETATM   13  C   UNL     1       7.414   1.608 -16.803  1.00  0.00     0.042 C 
BRANCH  13  14
HETATM   14  C   UNL     1       5.986   2.073 -16.516  1.00  0.00    -0.019 C 
HETATM   15  C   UNL     1       5.243   2.288 -17.837  1.00  0.00     0.010 C 
HETATM   16  C   UNL     1       5.259   1.010 -15.691  1.00  0.00     0.010 C 
ENDBRANCH  13  14
ENDBRANCH   4  13
TORSDOF 5
ENDMDL
MODEL 10
REMARK VINA RESULT:    -5.625      3.082      5.928
REMARK INTER + INTRA:          -7.910
REMARK INTER:                  -7.116
REMARK INTRA:                  -0.794
REMARK UNBOUND:                -0.805
REMARK  5 active torsions:
REMARK  status: ('A' for Active; 'I' for Inactive)
REMARK    1  A    between atoms: C_1  and  C_6 
REMARK    2  A    between atoms: C_1  and  O_14 
REMARK    3  A    between atoms: C_2  and  C_3 
REMARK    4  A    between atoms: C_2  and  C_11 
REMARK    5  A    between atoms: C_6  and  C_8 
ROOT
HETATM    1  C   UNL     1      10.343   2.883 -13.370  1.00  0.00    -0.044 A 
HETATM    2  C   UNL     1       9.532   3.865 -13.908  1.00  0.00     0.008 A 
HETATM    3  C   UNL     1       8.705   3.571 -14.974  1.00  0.00     0.007 A 
HETATM    4  C   UNL     1       8.687   2.294 -15.503  1.00  0.00    -0.058 A 
HETATM    5  C   UNL     1       9.493   1.311 -14.962  1.00  0.00     0.007 A 
HETATM    6  C   UNL     1      10.325   1.607 -13.899  1.00  0.00     0.008 A 
ENDROOT
BRANCH   1   7
HETATM    7  C   UNL     1      11.247   3.204 -12.209  1.00  0.00     0.112 C 
HETATM    8  C   UNL     1      10.791   4.506 -11.551  1.00  0.00     0.026 C 
BRANCH   7   9
HETATM    9  C   UNL     1      12.662   3.359 -12.702  1.00  0.00     0.148 C 
HETATM   10  O   UNL     1      13.132   4.462 -12.851  1.00  0.00    -0.649 OA
BRANCH   9  11
HETATM   11  O   UNL     1      13.401   2.272 -12.976  1.00  0.00    -0.776 OA
HETATM   12  H   UNL     1      13.000   1.392 -12.935  1.00  0.00     0.167 HD
ENDBRANCH   9  11
ENDBRANCH   7   9
ENDBRANCH   1   7
BRANCH   4  13
HETATM   13  C   UNL     1       7.784   1.974 -16.666  1.00  0.00     0.042 C 
BRANCH  13  14
HETATM   14  C   UNL     1       6.355   2.409 -16.337  1.00  0.00    -0.019 C 
HETATM   15  C   UNL     1       5.634   2.809 -17.626  1.00  0.00     0.010 C 
HETATM   16  C   UNL     1       5.609   1.251 -15.675  1.00  0.00     0.010 C 
ENDBRANCH  13  14
ENDBRANCH   4  13
TORSDOF 5
ENDMDL
MODEL 11
REMARK VINA RESULT:    -5.616      1.473      2.544
REMARK INTER + INTRA:          -7.898
REMARK INTER:                  -7.392
REMARK INTRA:                  -0.506
REMARK UNBOUND:                -0.805
REMARK  5 active torsions:
REMARK  status: ('A' for Active; 'I' for Inactive)
REMARK    1  A    between atoms: C_1  and  C_6 
REMARK    2  A    between atoms: C_1  and  O_14 
REMARK    3  A    between atoms: C_2  and  C_3 
REMARK    4  A    between atoms: C_2  and  C_11 
REMARK    5  A    between atoms: C_6  and  C_8 
ROOT
HETATM    1  C   UNL     1       7.494   2.452 -16.511  1.00  0.00    -0.044 A 
HETATM    2  C   UNL     1       8.513   1.680 -15.984  1.00  0.00     0.008 A 
HETATM    3  C   UNL     1       9.092   2.030 -14.779  1.00  0.00     0.007 A 
HETATM    4  C   UNL     1       8.654   3.152 -14.102  1.00  0.00    -0.058 A 
HETATM    5  C   UNL     1       7.632   3.921 -14.626  1.00  0.00     0.007 A 
HETATM    6  C   UNL     1       7.056   3.573 -15.833  1.00  0.00     0.008 A 
ENDROOT
BRANCH   1   7
HETATM    7  C   UNL     1       6.863   2.072 -17.825  1.00  0.00     0.112 C 
HETATM    8  C   UNL     1       7.753   2.547 -18.975  1.00  0.00     0.026 C 
BRANCH   7   9
HETATM    9  C   UNL     1       5.509   2.721 -17.938  1.00  0.00     0.148 C 
HETATM   10  O   UNL     1       4.556   2.230 -17.381  1.00  0.00    -0.649 OA
BRANCH   9  11
HETATM   11  O   UNL     1       5.359   3.843 -18.659  1.00  0.00    -0.776 OA
HETATM   12  H   UNL     1       5.667   3.874 -19.576  1.00  0.00     0.167 HD
ENDBRANCH   9  11
ENDBRANCH   7   9
ENDBRANCH   1   7
BRANCH   4  13
HETATM   13  C   UNL     1       9.286   3.533 -12.788  1.00  0.00     0.042 C 
BRANCH  13  14
HETATM   14  C   UNL     1      10.681   2.915 -12.695  1.00  0.00    -0.019 C 
HETATM   15  C   UNL     1      11.704   4.008 -12.380  1.00  0.00     0.010 C 
HETATM   16  C   UNL     1      10.700   1.864 -11.584  1.00  0.00     0.010 C 
ENDBRANCH  13  14
ENDBRANCH   4  13
TORSDOF 5
ENDMDL
MODEL 12
REMARK VINA RESULT:    -5.420      1.367      1.936
REMARK INTER + INTRA:          -7.651
REMARK INTER:                  -6.956
REMARK INTRA:                  -0.695
REMARK UNBOUND:                -0.805
REMARK  5 active torsions:
REMARK  status: ('A' for Active; 'I' for Inactive)
REMARK    1  A    between atoms: C_1  and  C_6 
REMARK    2  A    between atoms: C_1  and  O_14 
REMARK    3  A    between atoms: C_2  and  C_3 
REMARK    4  A    between atoms: C_2  and  C_11 
REMARK    5  A    between atoms: C_6  and  C_8 
ROOT
HETATM    1  C   UNL     1       6.555   2.599 -15.577  1.00  0.00    -0.044 A 
HETATM    2  C   UNL     1       6.588   3.665 -14.697  1.00  0.00     0.008 A 
HETATM    3  C   UNL     1       7.776   4.020 -14.089  1.00  0.00     0.007 A 
HETATM    4  C   UNL     1       8.930   3.311 -14.359  1.00  0.00    -0.058 A 
HETATM    5  C   UNL     1       8.898   2.250 -15.243  1.00  0.00     0.007 A 
HETATM    6  C   UNL     1       7.709   1.890 -15.848  1.00  0.00     0.008 A 
ENDROOT
BRANCH   1   7
HETATM    7  C   UNL     1       5.259   2.209 -16.240  1.00  0.00     0.112 C 
HETATM    8  C   UNL     1       4.910   0.767 -15.871  1.00  0.00     0.026 C 
BRANCH   7   9
HETATM    9  C   UNL     1       5.405   2.323 -17.735  1.00  0.00     0.148 C 
HETATM   10  O   UNL     1       5.867   1.403 -18.369  1.00  0.00    -0.649 OA
BRANCH   9  11
HETATM   11  O   UNL     1       5.024   3.446 -18.364  1.00  0.00    -0.776 OA
HETATM   12  H   UNL     1       5.651   3.923 -18.925  1.00  0.00     0.167 HD
ENDBRANCH   9  11
ENDBRANCH   7   9
ENDBRANCH   1   7
BRANCH   4  13
HETATM   13  C   UNL     1      10.226   3.700 -13.694  1.00  0.00     0.042 C 
BRANCH  13  14
HETATM   14  C   UNL     1      10.082   3.566 -12.178  1.00  0.00    -0.019 C 
HETATM   15  C   UNL     1      10.461   2.145 -11.753  1.00  0.00     0.010 C 
HETATM   16  C   UNL     1      11.007   4.568 -11.487  1.00  0.00     0.010 C 
ENDBRANCH  13  14
ENDBRANCH   4  13
TORSDOF 5
ENDMDL
MODEL 13
REMARK VINA RESULT:    -4.964      2.903      6.501
REMARK INTER + INTRA:          -7.075
REMARK INTER:                  -6.336
REMARK INTRA:                  -0.739
REMARK UNBOUND:                -0.805
REMARK  5 active torsions:
REMARK  status: ('A' for Active; 'I' for Inactive)
REMARK    1  A    between atoms: C_1  and  C_6 
REMARK    2  A    between atoms: C_1  and  O_14 
REMARK    3  A    between atoms: C_2  and  C_3 
REMARK    4  A    between atoms: C_2  and  C_11 
REMARK    5  A    between atoms: C_6  and  C_8 
ROOT
HETATM    1  C   UNL     1       7.405   3.090 -15.992  1.00  0.00    -0.044 A 
HETATM    2  C   UNL     1       6.252   3.677 -16.478  1.00  0.00     0.008 A 
HETATM    3  C   UNL     1       5.822   3.396 -17.761  1.00  0.00     0.007 A 
HETATM    4  C   UNL     1       6.546   2.529 -18.557  1.00  0.00    -0.058 A 
HETATM    5  C   UNL     1       7.695   1.939 -18.070  1.00  0.00     0.007 A 
HETATM    6  C   UNL     1       8.128   2.224 -16.789  1.00  0.00     0.008 A 
ENDROOT
BRANCH   1   7
HETATM    7  C   UNL     1       7.876   3.398 -14.594  1.00  0.00     0.112 C 
HETATM    8  C   UNL     1       6.798   4.194 -13.856  1.00  0.00     0.026 C 
BRANCH   7   9
HETATM    9  C   UNL     1       9.144   4.209 -14.658  1.00  0.00     0.148 C 
HETATM   10  O   UNL     1       9.949   4.142 -13.760  1.00  0.00    -0.649 OA
BRANCH   9  11
HETATM   11  O   UNL     1       9.379   5.007 -15.711  1.00  0.00    -0.776 OA
HETATM   12  H   UNL     1       9.167   4.703 -16.605  1.00  0.00     0.167 HD
ENDBRANCH   9  11
ENDBRANCH   7   9
ENDBRANCH   1   7
BRANCH   4  13
HETATM   13  C   UNL     1       6.076   2.222 -19.957  1.00  0.00     0.042 C 
BRANCH  13  14
HETATM   14  C   UNL     1       7.279   2.171 -20.898  1.00  0.00    -0.019 C 
HETATM   15  C   UNL     1       7.236   0.876 -21.712  1.00  0.00     0.010 C 
HETATM   16  C   UNL     1       7.237   3.370 -21.847  1.00  0.00     0.010 C 
ENDBRANCH  13  14
ENDBRANCH   4  13
TORSDOF 5
ENDMDL
MODEL 14
REMARK VINA RESULT:    -4.917      3.871      5.838
REMARK INTER + INTRA:          -7.016
REMARK INTER:                  -6.150
REMARK INTRA:                  -0.866
REMARK UNBOUND:                -0.805
REMARK  5 active torsions:
REMARK  status: ('A' for Active; 'I' for Inactive)
REMARK    1  A    between atoms: C_1  and  C_6 
REMARK    2  A    between atoms: C_1  and  O_14 
REMARK    3  A    between atoms: C_2  and  C_3 
REMARK    4  A    between atoms: C_2  and  C_11 
REMARK    5  A    between atoms: C_6  and  C_8 
ROOT
HETATM    1  C   UNL     1       6.909   2.514 -19.637  1.00  0.00    -0.044 A 
HETATM    2  C   UNL     1       8.063   2.353 -18.892  1.00  0.00     0.008 A 
HETATM    3  C   UNL     1       7.980   2.101 -17.537  1.00  0.00     0.007 A 
HETATM    4  C   UNL     1       6.745   2.011 -16.925  1.00  0.00    -0.058 A 
HETATM    5  C   UNL     1       5.592   2.166 -17.669  1.00  0.00     0.007 A 
HETATM    6  C   UNL     1       5.674   2.424 -19.024  1.00  0.00     0.008 A 
ENDROOT
BRANCH   1   7
HETATM    7  C   UNL     1       6.999   2.791 -21.115  1.00  0.00     0.112 C 
HETATM    8  C   UNL     1       5.626   3.214 -21.639  1.00  0.00     0.026 C 
BRANCH   7   9
HETATM    9  C   UNL     1       7.448   1.546 -21.833  1.00  0.00     0.148 C 
HETATM   10  O   UNL     1       8.543   1.504 -22.342  1.00  0.00    -0.649 OA
BRANCH   9  11
HETATM   11  O   UNL     1       6.633   0.482 -21.908  1.00  0.00    -0.776 OA
HETATM   12  H   UNL     1       6.355   0.145 -22.772  1.00  0.00     0.167 HD
ENDBRANCH   9  11
ENDBRANCH   7   9
ENDBRANCH   1   7
BRANCH   4  13
HETATM   13  C   UNL     1       6.655   1.735 -15.445  1.00  0.00     0.042 C 
BRANCH  13  14
HETATM   14  C   UNL     1       5.629   2.676 -14.813  1.00  0.00    -0.019 C 
HETATM   15  C   UNL     1       4.706   1.877 -13.889  1.00  0.00     0.010 C 
HETATM   16  C   UNL     1       6.353   3.752 -14.003  1.00  0.00     0.010 C 
ENDBRANCH  13  14
ENDBRANCH   4  13
TORSDOF 5
ENDMDL
MODEL 15
REMARK VINA RESULT:    -4.642      3.327      6.215
REMARK INTER + INTRA:          -6.669
REMARK INTER:                  -5.847
REMARK INTRA:                  -0.821
REMARK UNBOUND:                -0.805
REMARK  5 active torsions:
REMARK  status: ('A' for Active; 'I' for Inactive)
REMARK    1  A    between atoms: C_1  and  C_6 
REMARK    2  A    between atoms: C_1  and  O_14 
REMARK    3  A    between atoms: C_2  and  C_3 
REMARK    4  A    between atoms: C_2  and  C_11 
REMARK    5  A    between atoms: C_6  and  C_8 
ROOT
HETATM    1  C   UNL     1       6.395   3.047 -16.329  1.00  0.00    -0.044 A 
HETATM    2  C   UNL     1       7.701   2.631 -16.506  1.00  0.00     0.008 A 
HETATM    3  C   UNL     1       8.150   2.282 -17.766  1.00  0.00     0.007 A 
HETATM    4  C   UNL     1       7.293   2.349 -18.848  1.00  0.00    -0.058 A 
HETATM    5  C   UNL     1       5.989   2.771 -18.671  1.00  0.00     0.007 A 
HETATM    6  C   UNL     1       5.539   3.114 -17.411  1.00  0.00     0.008 A 
ENDROOT
BRANCH   1   7
HETATM    7  C   UNL     1       5.904   3.425 -14.956  1.00  0.00     0.112 C 
HETATM    8  C   UNL     1       7.100   3.731 -14.053  1.00  0.00     0.026 C 
BRANCH   7   9
HETATM    9  C   UNL     1       5.114   2.283 -14.372  1.00  0.00     0.148 C 
HETATM   10  O   UNL     1       3.997   2.474 -13.954  1.00  0.00    -0.649 OA
BRANCH   9  11
HETATM   11  O   UNL     1       5.651   1.054 -14.316  1.00  0.00    -0.776 OA
HETATM   12  H   UNL     1       6.564   0.938 -14.017  1.00  0.00     0.167 HD
ENDBRANCH   9  11
ENDBRANCH   7   9
ENDBRANCH   1   7
BRANCH   4  13
HETATM   13  C   UNL     1       7.783   1.969 -20.221  1.00  0.00     0.042 C 
BRANCH  13  14
HETATM   14  C   UNL     1       8.567   3.136 -20.824  1.00  0.00    -0.019 C 
HETATM   15  C   UNL     1       9.998   2.686 -21.129  1.00  0.00     0.010 C 
HETATM   16  C   UNL     1       7.890   3.592 -22.117  1.00  0.00     0.010 C 
ENDBRANCH  13  14
ENDBRANCH   4  13
TORSDOF 5
ENDMDL
MODEL 16
REMARK VINA RESULT:    -4.535     11.739     12.598
REMARK INTER + INTRA:          -6.534
REMARK INTER:                  -5.679
REMARK INTRA:                  -0.855
REMARK UNBOUND:                -0.805
REMARK  5 active torsions:
REMARK  status: ('A' for Active; 'I' for Inactive)
REMARK    1  A    between atoms: C_1  and  C_6 
REMARK    2  A    between atoms: C_1  and  O_14 
REMARK    3  A    between atoms: C_2  and  C_3 
REMARK    4  A    between atoms: C_2  and  C_11 
REMARK    5  A    between atoms: C_6  and  C_8 
ROOT
HETATM    1  C   UNL     1       8.387  12.315 -22.107  1.00  0.00    -0.044 A 
HETATM    2  C   UNL     1       7.613  13.416 -21.793  1.00  0.00     0.008 A 
HETATM    3  C   UNL     1       8.216  14.590 -21.383  1.00  0.00     0.007 A 
HETATM    4  C   UNL     1       9.593  14.662 -21.287  1.00  0.00    -0.058 A 
HETATM    5  C   UNL     1      10.367  13.563 -21.607  1.00  0.00     0.007 A 
HETATM    6  C   UNL     1       9.763  12.388 -22.012  1.00  0.00     0.008 A 
ENDROOT
BRANCH   1   7
HETATM    7  C   UNL     1       7.730  11.034 -22.553  1.00  0.00     0.112 C 
HETATM    8  C   UNL     1       6.211  11.179 -22.453  1.00  0.00     0.026 C 
BRANCH   7   9
HETATM    9  C   UNL     1       8.186   9.902 -21.670  1.00  0.00     0.148 C 
HETATM   10  O   UNL     1       8.901   9.038 -22.118  1.00  0.00    -0.649 OA
BRANCH   9  11
HETATM   11  O   UNL     1       7.797   9.853 -20.386  1.00  0.00    -0.776 OA
HETATM   12  H   UNL     1       7.954  10.609 -19.804  1.00  0.00     0.167 HD
ENDBRANCH   9  11
ENDBRANCH   7   9
ENDBRANCH   1   7
BRANCH   4  13
HETATM   13  C   UNL     1      10.251  15.943 -20.840  1.00  0.00     0.042 C 
BRANCH  13  14
HETATM   14  C   UNL     1      10.862  15.744 -19.453  1.00  0.00    -0.019 C 
HETATM   15  C   UNL     1      12.296  16.280 -19.446  1.00  0.00     0.010 C 
HETATM   16  C   UNL     1      10.031  16.500 -18.416  1.00  0.00     0.010 C 
ENDBRANCH  13  14
ENDBRANCH   4  13
TORSDOF 5
ENDMDL
MODEL 17
REMARK VINA RESULT:    -4.371      4.185      6.630
REMARK INTER + INTRA:          -6.326
REMARK INTER:                  -5.485
REMARK INTRA:                  -0.841
REMARK UNBOUND:                -0.805
REMARK  5 active torsions:
REMARK  status: ('A' for Active; 'I' for Inactive)
REMARK    1  A    between atoms: C_1  and  C_6 
REMARK    2  A    between atoms: C_1  and  O_14 
REMARK    3  A    between atoms: C_2  and  C_3 
REMARK    4  A    between atoms: C_2  and  C_11 
REMARK    5  A    between atoms: C_6  and  C_8 
ROOT
HETATM    1  C   UNL     1       6.258   1.773 -16.388  1.00  0.00    -0.044 A 
HETATM    2  C   UNL     1       7.620   1.816 -16.619  1.00  0.00     0.008 A 
HETATM    3  C   UNL     1       8.098   2.133 -17.876  1.00  0.00     0.007 A 
HETATM    4  C   UNL     1       7.214   2.405 -18.902  1.00  0.00    -0.058 A 
HETATM    5  C   UNL     1       5.852   2.367 -18.671  1.00  0.00     0.007 A 
HETATM    6  C   UNL     1       5.375   2.046 -17.415  1.00  0.00     0.008 A 
ENDROOT
BRANCH   1   7
HETATM    7  C   UNL     1       5.736   1.425 -15.018  1.00  0.00     0.112 C 
HETATM    8  C   UNL     1       4.470   0.578 -15.153  1.00  0.00     0.026 C 
BRANCH   7   9
HETATM    9  C   UNL     1       5.415   2.691 -14.267  1.00  0.00     0.148 C 
HETATM   10  O   UNL     1       6.309   3.396 -13.862  1.00  0.00    -0.649 OA
BRANCH   9  11
HETATM   11  O   UNL     1       4.137   3.035 -14.046  1.00  0.00    -0.776 OA
HETATM   12  H   UNL     1       3.832   3.928 -14.262  1.00  0.00     0.167 HD
ENDBRANCH   9  11
ENDBRANCH   7   9
ENDBRANCH   1   7
BRANCH   4  13
HETATM   13  C   UNL     1       7.736   2.751 -20.274  1.00  0.00     0.042 C 
BRANCH  13  14
HETATM   14  C   UNL     1       6.815   2.149 -21.336  1.00  0.00    -0.019 C 
HETATM   15  C   UNL     1       6.625   3.154 -22.475  1.00  0.00     0.010 C 
HETATM   16  C   UNL     1       7.441   0.867 -21.886  1.00  0.00     0.010 C 
ENDBRANCH  13  14
ENDBRANCH   4  13
TORSDOF 5
ENDMDL
MODEL 18
REMARK VINA RESULT:    -4.368      4.634      7.078
REMARK INTER + INTRA:          -6.322
REMARK INTER:                  -5.777
REMARK INTRA:                  -0.546
REMARK UNBOUND:                -0.805
REMARK  5 active torsions:
REMARK  status: ('A' for Active; 'I' for Inactive)
REMARK    1  A    between atoms: C_1  and  C_6 
REMARK    2  A    between atoms: C_1  and  O_14 
REMARK    3  A    between atoms: C_2  and  C_3 
REMARK    4  A    between atoms: C_2  and  C_11 
REMARK    5  A    between atoms: C_6  and  C_8 
ROOT
HETATM    1  C   UNL     1       6.673   2.841 -21.585  1.00  0.00    -0.044 A 
HETATM    2  C   UNL     1       5.660   2.658 -20.662  1.00  0.00     0.008 A 
HETATM    3  C   UNL     1       5.968   2.459 -19.331  1.00  0.00     0.007 A 
HETATM    4  C   UNL     1       7.287   2.442 -18.921  1.00  0.00    -0.058 A 
HETATM    5  C   UNL     1       8.299   2.631 -19.842  1.00  0.00     0.007 A 
HETATM    6  C   UNL     1       7.992   2.825 -21.175  1.00  0.00     0.008 A 
ENDROOT
BRANCH   1   7
HETATM    7  C   UNL     1       6.338   3.057 -23.039  1.00  0.00     0.112 C 
HETATM    8  C   UNL     1       7.106   4.270 -23.565  1.00  0.00     0.026 C 
BRANCH   7   9
HETATM    9  C   UNL     1       4.859   3.297 -23.183  1.00  0.00     0.148 C 
HETATM   10  O   UNL     1       4.422   4.423 -23.140  1.00  0.00    -0.649 OA
BRANCH   9  11
HETATM   11  O   UNL     1       4.024   2.260 -23.359  1.00  0.00    -0.776 OA
HETATM   12  H   UNL     1       4.378   1.367 -23.466  1.00  0.00     0.167 HD
ENDBRANCH   9  11
ENDBRANCH   7   9
ENDBRANCH   1   7
BRANCH   4  13
HETATM   13  C   UNL     1       7.622   2.225 -17.467  1.00  0.00     0.042 C 
BRANCH  13  14
HETATM   14  C   UNL     1       6.362   2.406 -16.621  1.00  0.00    -0.019 C 
HETATM   15  C   UNL     1       6.206   1.213 -15.675  1.00  0.00     0.010 C 
HETATM   16  C   UNL     1       6.476   3.693 -15.804  1.00  0.00     0.010 C 
ENDBRANCH  13  14
ENDBRANCH   4  13
TORSDOF 5
ENDMDL
MODEL 19
REMARK VINA RESULT:    -4.363      2.991      5.630
REMARK INTER + INTRA:          -6.316
REMARK INTER:                  -7.119
REMARK INTRA:                   0.803
REMARK UNBOUND:                -0.805
REMARK  5 active torsions:
REMARK  status: ('A' for Active; 'I' for Inactive)
REMARK    1  A    between atoms: C_1  and  C_6 
REMARK    2  A    between atoms: C_1  and  O_14 
REMARK    3  A    between atoms: C_2  and  C_3 
REMARK    4  A    between atoms: C_2  and  C_11 
REMARK    5  A    between atoms: C_6  and  C_8 
ROOT
HETATM    1  C   UNL     1      10.368   2.609 -12.920  1.00  0.00    -0.044 A 
HETATM    2  C   UNL     1       9.930   2.448 -14.221  1.00  0.00     0.008 A 
HETATM    3  C   UNL     1       8.778   3.081 -14.646  1.00  0.00     0.007 A 
HETATM    4  C   UNL     1       8.063   3.875 -13.769  1.00  0.00    -0.058 A 
HETATM    5  C   UNL     1       8.504   4.041 -12.471  1.00  0.00     0.007 A 
HETATM    6  C   UNL     1       9.653   3.404 -12.045  1.00  0.00     0.008 A 
ENDROOT
BRANCH   1   7
HETATM    7  C   UNL     1      11.624   1.918 -12.456  1.00  0.00     0.112 C 
HETATM    8  C   UNL     1      11.690   1.951 -10.929  1.00  0.00     0.026 C 
BRANCH   7   9
HETATM    9  C   UNL     1      12.826   2.623 -13.027  1.00  0.00     0.148 C 
HETATM   10  O   UNL     1      12.949   3.817 -12.886  1.00  0.00    -0.649 OA
BRANCH   9  11
HETATM   11  O   UNL     1      13.760   1.927 -13.693  1.00  0.00    -0.776 OA
HETATM   12  H   UNL     1      14.013   1.044 -13.390  1.00  0.00     0.167 HD
ENDBRANCH   9  11
ENDBRANCH   7   9
ENDBRANCH   1   7
BRANCH   4  13
HETATM   13  C   UNL     1       6.806   4.566 -14.233  1.00  0.00     0.042 C 
BRANCH  13  14
HETATM   14  C   UNL     1       5.912   3.562 -14.962  1.00  0.00    -0.019 C 
HETATM   15  C   UNL     1       6.427   3.362 -16.389  1.00  0.00     0.010 C 
HETATM   16  C   UNL     1       5.935   2.225 -14.220  1.00  0.00     0.010 C 
ENDBRANCH  13  14
ENDBRANCH   4  13
TORSDOF 5
ENDMDL
MODEL 20
REMARK VINA RESULT:    -4.255     12.556     14.153
REMARK INTER + INTRA:          -6.179
REMARK INTER:                  -5.374
REMARK INTRA:                  -0.805
REMARK UNBOUND:                -0.805
REMARK  5 active torsions:
REMARK  status: ('A' for Active; 'I' for Inactive)
REMARK    1  A    between atoms: C_1  and  C_6 
REMARK    2  A    between atoms: C_1  and  O_14 
REMARK    3  A    between atoms: C_2  and  C_3 
REMARK    4  A    between atoms: C_2  and  C_11 
REMARK    5  A    between atoms: C_6  and  C_8 
ROOT
HETATM    1  C   UNL     1      10.088  15.197 -20.881  1.00  0.00    -0.044 A 
HETATM    2  C   UNL     1       8.711  15.237 -21.001  1.00  0.00     0.008 A 
HETATM    3  C   UNL     1       8.049  14.236 -21.684  1.00  0.00     0.007 A 
HETATM    4  C   UNL     1       8.762  13.195 -22.248  1.00  0.00    -0.058 A 
HETATM    5  C   UNL     1      10.137  13.152 -22.124  1.00  0.00     0.007 A 
HETATM    6  C   UNL     1      10.800  14.156 -21.445  1.00  0.00     0.008 A 
ENDROOT
BRANCH   1   7
HETATM    7  C   UNL     1      10.812  16.289 -20.137  1.00  0.00     0.112 C 
HETATM    8  C   UNL     1      12.194  16.500 -20.757  1.00  0.00     0.026 C 
BRANCH   7   9
HETATM    9  C   UNL     1      10.964  15.897 -18.691  1.00  0.00     0.148 C 
HETATM   10  O   UNL     1      12.065  15.796 -18.205  1.00  0.00    -0.649 OA
BRANCH   9  11
HETATM   11  O   UNL     1       9.876  15.658 -17.942  1.00  0.00    -0.776 OA
HETATM   12  H   UNL     1       8.997  15.879 -18.281  1.00  0.00     0.167 HD
ENDBRANCH   9  11
ENDBRANCH   7   9
ENDBRANCH   1   7
BRANCH   4  13
HETATM   13  C   UNL     1       8.038  12.103 -22.994  1.00  0.00     0.042 C 
BRANCH  13  14
HETATM   14  C   UNL     1       7.046  11.416 -22.054  1.00  0.00    -0.019 C 
HETATM   15  C   UNL     1       5.826  10.950 -22.852  1.00  0.00     0.010 C 
HETATM   16  C   UNL     1       7.717  10.208 -21.399  1.00  0.00     0.010 C 
ENDBRANCH  13  14
ENDBRANCH   4  13
TORSDOF 5
ENDMDL
