MODEL 1
REMARK VINA RESULT:    -3.368      0.000      0.000
REMARK INTER + INTRA:           1.298
REMARK INTER:                  -2.298
REMARK INTRA:                   3.596
REMARK UNBOUND:                 5.847
REMARK  6 active torsions:
REMARK  status: ('A' for Active; 'I' for Inactive)
REMARK    1  A    between atoms: C_13  and  C_16 
REMARK    2  A    between atoms: C_14  and  C_17 
REMARK    3  A    between atoms: C_15  and  C_18 
REMARK    4  A    between atoms: C_19  and  C_22 
REMARK    5  A    between atoms: C_20  and  C_23 
REMARK    6  A    between atoms: C_21  and  C_24 
ROOT
HETATM    1  O   UNL     1       5.781  18.297  17.141  1.00  0.00    -0.304 OA
HETATM    2  O   UNL     1       6.218  22.554  14.232  1.00  0.00    -0.304 OA
HETATM    3  O   UNL     1       6.462  23.164  18.914  1.00  0.00    -0.304 OA
HETATM    4  O   UNL     1       7.616  19.926  16.307  1.00  0.00    -0.270 OA
HETATM    5  O   UNL     1       7.733  20.252  19.231  1.00  0.00    -0.270 OA
HETATM    6  O   UNL     1       6.892  25.446  15.533  1.00  0.00    -0.270 OA
HETATM    7  O   UNL     1       4.156  19.926  17.301  1.00  0.00    -0.263 OA
HETATM    8  O   UNL     1       8.344  23.396  13.958  1.00  0.00    -0.263 OA
HETATM    9  O   UNL     1       6.175  24.991  20.277  1.00  0.00    -0.263 OA
HETATM   10  N   UNL     1       6.945  20.030  14.096  1.00  0.00    -0.340 N 
HETATM   11  N   UNL     1       5.482  20.442  19.761  1.00  0.00    -0.340 N 
HETATM   12  N   UNL     1       5.299  24.292  16.776  1.00  0.00    -0.340 N 
HETATM   13  C   UNL     1       8.008  21.013  13.799  1.00  0.00     0.190 C 
HETATM   14  C   UNL     1       5.230  19.060  19.305  1.00  0.00     0.190 C 
HETATM   15  C   UNL     1       5.488  25.149  17.965  1.00  0.00     0.190 C 
HETATM   16  C   UNL     1       5.844  18.435  15.705  1.00  0.00     0.227 C 
HETATM   17  C   UNL     1       5.577  23.838  14.328  1.00  0.00     0.227 C 
HETATM   18  C   UNL     1       7.028  22.405  19.999  1.00  0.00     0.227 C 
HETATM   19  C   UNL     1       6.873  19.527  15.402  1.00  0.00     0.250 C 
HETATM   20  C   UNL     1       6.790  20.942  19.632  1.00  0.00     0.250 C 
HETATM   21  C   UNL     1       5.997  24.597  15.595  1.00  0.00     0.250 C 
HETATM   22  C   UNL     1       4.961  19.159  17.813  1.00  0.00     0.283 C 
HETATM   23  C   UNL     1       7.559  22.456  14.020  1.00  0.00     0.283 C 
HETATM   24  C   UNL     1       6.063  24.437  19.188  1.00  0.00     0.283 C 
HETATM   25  C   UNL     1       6.018  19.678  13.017  1.00  0.00     0.153 C 
HETATM   26  C   UNL     1       4.346  21.209  20.282  1.00  0.00     0.153 C 
HETATM   27  C   UNL     1       4.253  23.270  16.838  1.00  0.00     0.153 C 
ENDROOT
BRANCH  16  28
HETATM   28  C   UNL     1       6.305  17.094  15.154  1.00  0.00     0.016 C 
HETATM   29  C   UNL     1       5.734  16.860  13.756  1.00  0.00     0.012 C 
HETATM   30  C   UNL     1       7.831  17.016  15.127  1.00  0.00     0.012 C 
ENDBRANCH  16  28
BRANCH  14  31
HETATM   31  C   UNL     1       4.090  18.325  19.998  1.00  0.00     0.010 C 
HETATM   32  C   UNL     1       4.038  16.867  19.547  1.00  0.00     0.012 C 
HETATM   33  C   UNL     1       4.239  18.411  21.516  1.00  0.00     0.012 C 
ENDBRANCH  14  31
BRANCH  13  34
HETATM   34  C   UNL     1       8.608  20.869  12.401  1.00  0.00     0.010 C 
HETATM   35  C   UNL     1       7.724  21.557  11.361  1.00  0.00     0.012 C 
HETATM   36  C   UNL     1       8.805  19.397  12.046  1.00  0.00     0.012 C 
ENDBRANCH  13  34
BRANCH  18  37
HETATM   37  C   UNL     1       8.517  22.727  20.096  1.00  0.00     0.016 C 
HETATM   38  C   UNL     1       9.131  22.070  21.333  1.00  0.00     0.012 C 
HETATM   39  C   UNL     1       9.250  22.280  18.833  1.00  0.00     0.012 C 
ENDBRANCH  18  37
BRANCH  17  40
HETATM   40  C   UNL     1       5.767  24.664  13.055  1.00  0.00     0.016 C 
HETATM   41  C   UNL     1       5.247  26.086  13.254  1.00  0.00     0.012 C 
HETATM   42  C   UNL     1       5.067  23.996  11.873  1.00  0.00     0.012 C 
ENDBRANCH  17  40
BRANCH  15  43
HETATM   43  C   UNL     1       4.198  25.885  18.331  1.00  0.00     0.010 C 
HETATM   44  C   UNL     1       4.049  25.979  19.847  1.00  0.00     0.012 C 
HETATM   45  C   UNL     1       4.179  27.274  17.701  1.00  0.00     0.012 C 
ENDBRANCH  15  43
TORSDOF 6
ENDMDL
MODEL 2
REMARK VINA RESULT:    -3.090      2.066      7.234
REMARK INTER + INTRA:           1.673
REMARK INTER:                  -2.930
REMARK INTRA:                   4.603
REMARK UNBOUND:                 5.847
REMARK  6 active torsions:
REMARK  status: ('A' for Active; 'I' for Inactive)
REMARK    1  A    between atoms: C_13  and  C_16 
REMARK    2  A    between atoms: C_14  and  C_17 
REMARK    3  A    between atoms: C_15  and  C_18 
REMARK    4  A    between atoms: C_19  and  C_22 
REMARK    5  A    between atoms: C_20  and  C_23 
REMARK    6  A    between atoms: C_21  and  C_24 
ROOT
HETATM    1  O   UNL     1       5.725  24.820  12.439  1.00  0.00    -0.304 OA
HETATM    2  O   UNL     1       4.949  25.488  17.512  1.00  0.00    -0.304 OA
HETATM    3  O   UNL     1       6.850  21.364  16.194  1.00  0.00    -0.304 OA
HETATM    4  O   UNL     1       7.083  25.360  14.580  1.00  0.00    -0.270 OA
HETATM    5  O   UNL     1       8.239  22.798  13.702  1.00  0.00    -0.270 OA
HETATM    6  O   UNL     1       5.958  23.311  19.692  1.00  0.00    -0.270 OA
HETATM    7  O   UNL     1       4.218  23.452  13.525  1.00  0.00    -0.263 OA
HETATM    8  O   UNL     1       6.805  26.000  18.776  1.00  0.00    -0.263 OA
HETATM    9  O   UNL     1       7.019  19.315  17.217  1.00  0.00    -0.263 OA
HETATM   10  N   UNL     1       5.656  26.958  15.449  1.00  0.00    -0.340 N 
HETATM   11  N   UNL     1       6.327  21.569  13.232  1.00  0.00    -0.340 N 
HETATM   12  N   UNL     1       4.958  22.291  17.855  1.00  0.00    -0.340 N 
HETATM   13  C   UNL     1       6.509  27.097  16.648  1.00  0.00     0.190 C 
HETATM   14  C   UNL     1       5.971  22.493  12.135  1.00  0.00     0.190 C 
HETATM   15  C   UNL     1       5.538  20.969  18.171  1.00  0.00     0.190 C 
HETATM   16  C   UNL     1       5.261  25.982  13.160  1.00  0.00     0.227 C 
HETATM   17  C   UNL     1       4.347  24.634  18.500  1.00  0.00     0.227 C 
HETATM   18  C   UNL     1       7.794  20.970  15.179  1.00  0.00     0.227 C 
HETATM   19  C   UNL     1       6.077  26.066  14.453  1.00  0.00     0.250 C 
HETATM   20  C   UNL     1       7.484  21.860  13.977  1.00  0.00     0.250 C 
HETATM   21  C   UNL     1       5.172  23.362  18.741  1.00  0.00     0.250 C 
HETATM   22  C   UNL     1       5.177  23.616  12.782  1.00  0.00     0.283 C 
HETATM   23  C   UNL     1       6.125  26.126  17.763  1.00  0.00     0.283 C 
HETATM   24  C   UNL     1       6.537  20.441  17.145  1.00  0.00     0.283 C 
HETATM   25  C   UNL     1       4.412  27.733  15.400  1.00  0.00     0.153 C 
HETATM   26  C   UNL     1       5.433  20.437  13.491  1.00  0.00     0.153 C 
HETATM   27  C   UNL     1       4.038  22.372  16.719  1.00  0.00     0.153 C 
ENDROOT
BRANCH  16  28
HETATM   28  C   UNL     1       5.533  27.188  12.274  1.00  0.00     0.016 C 
HETATM   29  C   UNL     1       4.292  28.073  12.172  1.00  0.00     0.012 C 
HETATM   30  C   UNL     1       6.720  27.991  12.802  1.00  0.00     0.012 C 
ENDBRANCH  16  28
BRANCH  14  31
HETATM   31  C   UNL     1       5.182  21.887  10.982  1.00  0.00     0.010 C 
HETATM   32  C   UNL     1       4.038  22.811  10.569  1.00  0.00     0.012 C 
HETATM   33  C   UNL     1       6.098  21.605   9.793  1.00  0.00     0.012 C 
ENDBRANCH  14  31
BRANCH  13  34
HETATM   34  C   UNL     1       6.567  28.520  17.202  1.00  0.00     0.010 C 
HETATM   35  C   UNL     1       6.883  29.519  16.090  1.00  0.00     0.012 C 
HETATM   36  C   UNL     1       7.599  28.623  18.323  1.00  0.00     0.012 C 
ENDBRANCH  13  34
BRANCH  18  37
HETATM   37  C   UNL     1       9.206  21.207  15.707  1.00  0.00     0.016 C 
HETATM   38  C   UNL     1       9.176  22.104  16.945  1.00  0.00     0.012 C 
HETATM   39  C   UNL     1       9.894  19.881  16.024  1.00  0.00     0.012 C 
ENDBRANCH  18  37
BRANCH  17  40
HETATM   40  C   UNL     1       4.038  25.390  19.792  1.00  0.00     0.016 C 
HETATM   41  C   UNL     1       4.076  26.898  19.555  1.00  0.00     0.012 C 
HETATM   42  C   UNL     1       5.019  24.995  20.894  1.00  0.00     0.012 C 
ENDBRANCH  17  40
BRANCH  15  43
HETATM   43  C   UNL     1       4.445  19.932  18.437  1.00  0.00     0.010 C 
HETATM   44  C   UNL     1       4.335  18.961  17.265  1.00  0.00     0.012 C 
HETATM   45  C   UNL     1       4.727  19.181  19.735  1.00  0.00     0.012 C 
ENDBRANCH  15  43
TORSDOF 6
ENDMDL
MODEL 3
REMARK VINA RESULT:    -2.387      1.910      5.596
REMARK INTER + INTRA:           2.622
REMARK INTER:                  -2.672
REMARK INTRA:                   5.294
REMARK UNBOUND:                 5.847
REMARK  6 active torsions:
REMARK  status: ('A' for Active; 'I' for Inactive)
REMARK    1  A    between atoms: C_13  and  C_16 
REMARK    2  A    between atoms: C_14  and  C_17 
REMARK    3  A    between atoms: C_15  and  C_18 
REMARK    4  A    between atoms: C_19  and  C_22 
REMARK    5  A    between atoms: C_20  and  C_23 
REMARK    6  A    between atoms: C_21  and  C_24 
ROOT
HETATM    1  O   UNL     1       6.020  22.078  12.873  1.00  0.00    -0.304 OA
HETATM    2  O   UNL     1       5.049  25.497  16.635  1.00  0.00    -0.304 OA
HETATM    3  O   UNL     1       7.635  21.723  17.829  1.00  0.00    -0.304 OA
HETATM    4  O   UNL     1       7.229  23.971  14.168  1.00  0.00    -0.270 OA
HETATM    5  O   UNL     1       8.812  21.587  14.864  1.00  0.00    -0.270 OA
HETATM    6  O   UNL     1       6.365  25.207  19.583  1.00  0.00    -0.270 OA
HETATM    7  O   UNL     1       4.742  21.417  14.675  1.00  0.00    -0.263 OA
HETATM    8  O   UNL     1       6.769  26.920  17.197  1.00  0.00    -0.263 OA
HETATM    9  O   UNL     1       8.123  20.728  19.840  1.00  0.00    -0.263 OA
HETATM   10  N   UNL     1       5.539  25.545  14.051  1.00  0.00    -0.340 N 
HETATM   11  N   UNL     1       7.141  20.057  15.366  1.00  0.00    -0.340 N 
HETATM   12  N   UNL     1       5.584  23.166  18.783  1.00  0.00    -0.340 N 
HETATM   13  C   UNL     1       6.334  26.488  14.865  1.00  0.00     0.190 C 
HETATM   14  C   UNL     1       6.656  20.089  13.970  1.00  0.00     0.190 C 
HETATM   15  C   UNL     1       6.370  22.389  19.764  1.00  0.00     0.190 C 
HETATM   16  C   UNL     1       5.355  23.359  12.811  1.00  0.00     0.227 C 
HETATM   17  C   UNL     1       4.579  25.317  17.981  1.00  0.00     0.227 C 
HETATM   18  C   UNL     1       8.650  20.948  17.163  1.00  0.00     0.227 C 
HETATM   19  C   UNL     1       6.121  24.309  13.736  1.00  0.00     0.250 C 
HETATM   20  C   UNL     1       8.219  20.896  15.699  1.00  0.00     0.250 C 
HETATM   21  C   UNL     1       5.600  24.570  18.852  1.00  0.00     0.250 C 
HETATM   22  C   UNL     1       5.674  21.246  13.900  1.00  0.00     0.283 C 
HETATM   23  C   UNL     1       6.097  26.322  16.364  1.00  0.00     0.283 C 
HETATM   24  C   UNL     1       7.462  21.508  19.163  1.00  0.00     0.283 C 
HETATM   25  C   UNL     1       4.185  25.950  13.661  1.00  0.00     0.153 C 
HETATM   26  C   UNL     1       6.443  19.183  16.313  1.00  0.00     0.153 C 
HETATM   27  C   UNL     1       4.684  22.425  17.898  1.00  0.00     0.153 C 
ENDROOT
BRANCH  16  28
HETATM   28  C   UNL     1       5.439  23.830  11.367  1.00  0.00     0.016 C 
HETATM   29  C   UNL     1       6.240  22.840  10.522  1.00  0.00     0.012 C 
HETATM   30  C   UNL     1       4.041  24.024  10.780  1.00  0.00     0.012 C 
ENDBRANCH  16  28
BRANCH  14  31
HETATM   31  C   UNL     1       6.000  18.811  13.462  1.00  0.00     0.010 C 
HETATM   32  C   UNL     1       5.010  19.124  12.342  1.00  0.00     0.012 C 
HETATM   33  C   UNL     1       7.057  17.820  12.981  1.00  0.00     0.012 C 
ENDBRANCH  14  31
BRANCH  13  34
HETATM   34  C   UNL     1       6.144  27.953  14.472  1.00  0.00     0.010 C 
HETATM   35  C   UNL     1       6.679  28.208  13.064  1.00  0.00     0.012 C 
HETATM   36  C   UNL     1       6.828  28.876  15.479  1.00  0.00     0.012 C 
ENDBRANCH  13  34
BRANCH  18  37
HETATM   37  C   UNL     1       9.993  21.653  17.332  1.00  0.00     0.016 C 
HETATM   38  C   UNL     1      11.146  20.689  17.052  1.00  0.00     0.012 C 
HETATM   39  C   UNL     1      10.081  22.873  16.417  1.00  0.00     0.012 C 
ENDBRANCH  18  37
BRANCH  17  40
HETATM   40  C   UNL     1       4.124  26.636  18.605  1.00  0.00     0.016 C 
HETATM   41  C   UNL     1       4.040  27.732  17.545  1.00  0.00     0.012 C 
HETATM   42  C   UNL     1       5.067  27.050  19.733  1.00  0.00     0.012 C 
ENDBRANCH  17  40
BRANCH  15  43
HETATM   43  C   UNL     1       5.461  21.566  20.678  1.00  0.00     0.010 C 
HETATM   44  C   UNL     1       4.054  22.158  20.704  1.00  0.00     0.012 C 
HETATM   45  C   UNL     1       5.424  20.110  20.222  1.00  0.00     0.012 C 
ENDBRANCH  15  43
TORSDOF 6
ENDMDL
MODEL 4
REMARK VINA RESULT:    -2.141      2.089      4.850
REMARK INTER + INTRA:           2.955
REMARK INTER:                  -2.810
REMARK INTRA:                   5.765
REMARK UNBOUND:                 5.847
REMARK  6 active torsions:
REMARK  status: ('A' for Active; 'I' for Inactive)
REMARK    1  A    between atoms: C_13  and  C_16 
REMARK    2  A    between atoms: C_14  and  C_17 
REMARK    3  A    between atoms: C_15  and  C_18 
REMARK    4  A    between atoms: C_19  and  C_22 
REMARK    5  A    between atoms: C_20  and  C_23 
REMARK    6  A    between atoms: C_21  and  C_24 
ROOT
HETATM    1  O   UNL     1       5.701  20.722  12.596  1.00  0.00    -0.304 OA
HETATM    2  O   UNL     1       5.089  25.171  15.168  1.00  0.00    -0.304 OA
HETATM    3  O   UNL     1       7.637  21.822  17.324  1.00  0.00    -0.304 OA
HETATM    4  O   UNL     1       7.051  22.858  13.176  1.00  0.00    -0.270 OA
HETATM    5  O   UNL     1       8.606  20.728  14.485  1.00  0.00    -0.270 OA
HETATM    6  O   UNL     1       6.592  25.733  17.985  1.00  0.00    -0.270 OA
HETATM    7  O   UNL     1       4.529  20.708  14.582  1.00  0.00    -0.263 OA
HETATM    8  O   UNL     1       6.885  26.612  15.168  1.00  0.00    -0.263 OA
HETATM    9  O   UNL     1       8.230  21.467  19.513  1.00  0.00    -0.263 OA
HETATM   10  N   UNL     1       5.404  24.402  12.673  1.00  0.00    -0.340 N 
HETATM   11  N   UNL     1       6.928  19.509  15.525  1.00  0.00    -0.340 N 
HETATM   12  N   UNL     1       5.699  23.586  17.898  1.00  0.00    -0.340 N 
HETATM   13  C   UNL     1       6.280  25.509  13.111  1.00  0.00     0.190 C 
HETATM   14  C   UNL     1       6.351  19.136  14.217  1.00  0.00     0.190 C 
HETATM   15  C   UNL     1       6.526  23.109  19.026  1.00  0.00     0.190 C 
HETATM   16  C   UNL     1       5.072  21.954  12.180  1.00  0.00     0.227 C 
HETATM   17  C   UNL     1       4.706  25.435  16.529  1.00  0.00     0.227 C 
HETATM   18  C   UNL     1       8.580  20.831  16.874  1.00  0.00     0.227 C 
HETATM   19  C   UNL     1       5.927  23.103  12.723  1.00  0.00     0.250 C 
HETATM   20  C   UNL     1       8.050  20.356  15.524  1.00  0.00     0.250 C 
HETATM   21  C   UNL     1       5.761  24.942  17.529  1.00  0.00     0.250 C 
HETATM   22  C   UNL     1       5.401  20.263  13.848  1.00  0.00     0.283 C 
HETATM   23  C   UNL     1       6.140  25.822  14.599  1.00  0.00     0.283 C 
HETATM   24  C   UNL     1       7.548  22.034  18.666  1.00  0.00     0.283 C 
HETATM   25  C   UNL     1       4.039  24.734  12.253  1.00  0.00     0.153 C 
HETATM   26  C   UNL     1       6.270  19.001  16.734  1.00  0.00     0.153 C 
HETATM   27  C   UNL     1       4.719  22.655  17.335  1.00  0.00     0.153 C 
ENDROOT
BRANCH  16  28
HETATM   28  C   UNL     1       5.072  21.956  10.659  1.00  0.00     0.016 C 
HETATM   29  C   UNL     1       6.497  22.064  10.119  1.00  0.00     0.012 C 
HETATM   30  C   UNL     1       4.389  20.700  10.117  1.00  0.00     0.012 C 
ENDBRANCH  16  28
BRANCH  14  31
HETATM   31  C   UNL     1       5.624  17.797  14.165  1.00  0.00     0.010 C 
HETATM   32  C   UNL     1       4.140  18.003  13.870  1.00  0.00     0.012 C 
HETATM   33  C   UNL     1       6.257  16.883  13.118  1.00  0.00     0.012 C 
ENDBRANCH  14  31
BRANCH  13  34
HETATM   34  C   UNL     1       6.107  26.791  12.297  1.00  0.00     0.010 C 
HETATM   35  C   UNL     1       7.247  27.768  12.581  1.00  0.00     0.012 C 
HETATM   36  C   UNL     1       4.759  27.443  12.594  1.00  0.00     0.012 C 
ENDBRANCH  13  34
BRANCH  18  37
HETATM   37  C   UNL     1       9.952  21.487  16.743  1.00  0.00     0.016 C 
HETATM   38  C   UNL     1       9.816  22.926  16.245  1.00  0.00     0.012 C 
HETATM   39  C   UNL     1      10.699  21.450  18.074  1.00  0.00     0.012 C 
ENDBRANCH  18  37
BRANCH  17  40
HETATM   40  C   UNL     1       4.333  26.903  16.740  1.00  0.00     0.016 C 
HETATM   41  C   UNL     1       5.448  27.818  16.237  1.00  0.00     0.012 C 
HETATM   42  C   UNL     1       4.038  27.176  18.213  1.00  0.00     0.012 C 
ENDBRANCH  17  40
BRANCH  15  43
HETATM   43  C   UNL     1       5.656  22.650  20.197  1.00  0.00     0.010 C 
HETATM   44  C   UNL     1       4.380  23.485  20.274  1.00  0.00     0.012 C 
HETATM   45  C   UNL     1       5.323  21.167  20.066  1.00  0.00     0.012 C 
ENDBRANCH  15  43
TORSDOF 6
ENDMDL
