MODEL 1
REMARK VINA RESULT:   -12.229      0.000      0.000
REMARK INTER + INTRA:          -9.820
REMARK INTER:                 -11.368
REMARK INTRA:                   1.548
REMARK UNBOUND:                 8.843
REMARK  9 active torsions:
REMARK  status: ('A' for Active; 'I' for Inactive)
REMARK    1  A    between atoms: C_13  and  C_16 
REMARK    2  A    between atoms: C_14  and  C_17 
REMARK    3  A    between atoms: C_15  and  C_18 
REMARK    4  A    between atoms: C_16  and  C_22 
REMARK    5  A    between atoms: C_17  and  C_23 
REMARK    6  A    between atoms: C_18  and  C_24 
REMARK    7  A    between atoms: C_19  and  C_25 
REMARK    8  A    between atoms: C_20  and  C_26 
REMARK    9  A    between atoms: C_21  and  C_27 
ROOT
HETATM    1  O   UNL     1      12.321  -2.990   2.875  1.00  0.00    -0.304 OA
HETATM    2  O   UNL     1       9.087  -1.705  -0.821  1.00  0.00    -0.304 OA
HETATM    3  O   UNL     1      12.146  -5.432  -0.358  1.00  0.00    -0.304 OA
HETATM    4  O   UNL     1      10.186  -1.558   2.539  1.00  0.00    -0.270 OA
HETATM    5  O   UNL     1      15.075  -7.084   0.404  1.00  0.00    -0.270 OA
HETATM    6  O   UNL     1       9.419  -3.996   0.436  1.00  0.00    -0.270 OA
HETATM    7  O   UNL     1      14.568  -3.504   2.966  1.00  0.00    -0.263 OA
HETATM    8  O   UNL     1      11.328  -1.410  -1.293  1.00  0.00    -0.263 OA
HETATM    9  O   UNL     1      12.119  -7.733  -0.342  1.00  0.00    -0.263 OA
HETATM   10  N   UNL     1      11.359  -0.085   1.183  1.00  0.00    -0.340 N 
HETATM   11  N   UNL     1      13.962  -6.106   2.188  1.00  0.00    -0.340 N 
HETATM   12  N   UNL     1       9.740  -5.291  -1.463  1.00  0.00    -0.340 N 
HETATM   13  C   UNL     1      10.197   0.065   0.284  1.00  0.00     0.190 C 
HETATM   14  C   UNL     1      12.880  -5.255   2.727  1.00  0.00     0.190 C 
HETATM   15  C   UNL     1      10.046  -6.499  -0.663  1.00  0.00     0.190 C 
HETATM   16  C   UNL     1      12.561  -1.568   2.798  1.00  0.00     0.227 C 
HETATM   17  C   UNL     1       9.030  -2.883  -1.648  1.00  0.00     0.227 C 
HETATM   18  C   UNL     1      13.559  -5.307  -0.176  1.00  0.00     0.227 C 
HETATM   19  C   UNL     1      11.261  -1.057   2.190  1.00  0.00     0.250 C 
HETATM   20  C   UNL     1      14.255  -6.258   0.823  1.00  0.00     0.250 C 
HETATM   21  C   UNL     1       9.416  -4.099  -0.797  1.00  0.00     0.250 C 
HETATM   22  C   UNL     1      13.394  -3.832   2.875  1.00  0.00     0.283 C 
HETATM   23  C   UNL     1      10.302  -1.088  -0.706  1.00  0.00     0.283 C 
HETATM   24  C   UNL     1      11.556  -6.654  -0.479  1.00  0.00     0.283 C 
HETATM   25  C   UNL     1      12.581   0.669   0.896  1.00  0.00     0.153 C 
HETATM   26  C   UNL     1      14.785  -6.842   3.148  1.00  0.00     0.153 C 
HETATM   27  C   UNL     1       9.872  -5.420  -2.918  1.00  0.00     0.153 C 
ENDROOT
BRANCH  16  28
HETATM   28  C   UNL     1      12.768  -0.993   4.187  1.00  0.00     0.016 C 
HETATM   29  C   UNL     1      11.634  -0.035   4.548  1.00  0.00     0.012 C 
HETATM   30  C   UNL     1      14.118  -0.285   4.282  1.00  0.00     0.012 C 
ENDBRANCH  16  28
BRANCH  14  31
HETATM   31  C   UNL     1      12.277  -5.734   4.046  1.00  0.00     0.014 C 
HETATM   32  C   UNL     1      12.828  -4.895   5.201  1.00  0.00     0.012 C 
BRANCH  31  33
HETATM   33  C   UNL     1      10.739  -5.672   4.043  1.00  0.00     0.002 C 
HETATM   34  C   UNL     1      10.102  -6.428   2.886  1.00  0.00     0.005 C 
ENDBRANCH  31  33
ENDBRANCH  14  31
BRANCH  13  35
HETATM   35  C   UNL     1      10.086   1.383  -0.469  1.00  0.00     0.014 C 
HETATM   36  C   UNL     1       9.801   1.112  -1.949  1.00  0.00     0.012 C 
BRANCH  35  37
HETATM   37  C   UNL     1       8.996   2.302   0.111  1.00  0.00     0.002 C 
HETATM   38  C   UNL     1       7.589   1.944  -0.351  1.00  0.00     0.005 C 
ENDBRANCH  35  37
ENDBRANCH  13  35
BRANCH  18  39
HETATM   39  C   UNL     1      14.210  -5.377  -1.559  1.00  0.00     0.016 C 
HETATM   40  C   UNL     1      13.170  -5.716  -2.624  1.00  0.00     0.012 C 
HETATM   41  C   UNL     1      14.908  -4.059  -1.890  1.00  0.00     0.012 C 
ENDBRANCH  18  39
BRANCH  17  42
HETATM   42  C   UNL     1       7.594  -3.019  -2.134  1.00  0.00     0.016 C 
HETATM   43  C   UNL     1       6.843  -1.697  -1.975  1.00  0.00     0.012 C 
HETATM   44  C   UNL     1       6.873  -4.137  -1.383  1.00  0.00     0.012 C 
ENDBRANCH  17  42
BRANCH  15  45
HETATM   45  C   UNL     1       9.417  -7.774  -1.223  1.00  0.00     0.014 C 
HETATM   46  C   UNL     1       7.897  -7.608  -1.321  1.00  0.00     0.012 C 
BRANCH  45  47
HETATM   47  C   UNL     1       9.987  -8.158  -2.602  1.00  0.00     0.002 C 
HETATM   48  C   UNL     1      10.596  -9.551  -2.639  1.00  0.00     0.005 C 
ENDBRANCH  45  47
ENDBRANCH  15  45
TORSDOF 9
ENDMDL
MODEL 2
REMARK VINA RESULT:   -11.911      0.919      1.439
REMARK INTER + INTRA:          -9.336
REMARK INTER:                 -11.852
REMARK INTRA:                   2.516
REMARK UNBOUND:                 8.843
REMARK  9 active torsions:
REMARK  status: ('A' for Active; 'I' for Inactive)
REMARK    1  A    between atoms: C_13  and  C_16 
REMARK    2  A    between atoms: C_14  and  C_17 
REMARK    3  A    between atoms: C_15  and  C_18 
REMARK    4  A    between atoms: C_16  and  C_22 
REMARK    5  A    between atoms: C_17  and  C_23 
REMARK    6  A    between atoms: C_18  and  C_24 
REMARK    7  A    between atoms: C_19  and  C_25 
REMARK    8  A    between atoms: C_20  and  C_26 
REMARK    9  A    between atoms: C_21  and  C_27 
ROOT
HETATM    1  O   UNL     1      12.348  -3.092   2.849  1.00  0.00    -0.304 OA
HETATM    2  O   UNL     1       9.226  -0.909  -0.506  1.00  0.00    -0.304 OA
HETATM    3  O   UNL     1      11.819  -4.995  -0.693  1.00  0.00    -0.304 OA
HETATM    4  O   UNL     1      10.395  -1.386   2.798  1.00  0.00    -0.270 OA
HETATM    5  O   UNL     1      14.540  -7.072  -0.282  1.00  0.00    -0.270 OA
HETATM    6  O   UNL     1       9.301  -3.383   0.396  1.00  0.00    -0.270 OA
HETATM    7  O   UNL     1      14.517  -3.872   2.785  1.00  0.00    -0.263 OA
HETATM    8  O   UNL     1      11.477  -0.811  -1.011  1.00  0.00    -0.263 OA
HETATM    9  O   UNL     1      11.514  -7.254  -1.006  1.00  0.00    -0.263 OA
HETATM   10  N   UNL     1      11.713   0.122   1.627  1.00  0.00    -0.340 N 
HETATM   11  N   UNL     1      13.586  -6.244   1.664  1.00  0.00    -0.340 N 
HETATM   12  N   UNL     1       9.428  -4.413  -1.680  1.00  0.00    -0.340 N 
HETATM   13  C   UNL     1      10.562   0.537   0.801  1.00  0.00     0.190 C 
HETATM   14  C   UNL     1      12.626  -5.360   2.357  1.00  0.00     0.190 C 
HETATM   15  C   UNL     1       9.601  -5.753  -1.073  1.00  0.00     0.190 C 
HETATM   16  C   UNL     1      12.756  -1.712   2.968  1.00  0.00     0.227 C 
HETATM   17  C   UNL     1       9.012  -1.938  -1.492  1.00  0.00     0.227 C 
HETATM   18  C   UNL     1      13.241  -5.065  -0.546  1.00  0.00     0.227 C 
HETATM   19  C   UNL     1      11.517  -0.969   2.486  1.00  0.00     0.250 C 
HETATM   20  C   UNL     1      13.834  -6.227   0.281  1.00  0.00     0.250 C 
HETATM   21  C   UNL     1       9.263  -3.302  -0.838  1.00  0.00     0.250 C 
HETATM   22  C   UNL     1      13.311  -4.044   2.689  1.00  0.00     0.283 C 
HETATM   23  C   UNL     1      10.508  -0.462  -0.348  1.00  0.00     0.283 C 
HETATM   24  C   UNL     1      11.084  -6.109  -0.967  1.00  0.00     0.283 C 
HETATM   25  C   UNL     1      13.012   0.762   1.407  1.00  0.00     0.153 C 
HETATM   26  C   UNL     1      14.332  -7.204   2.477  1.00  0.00     0.153 C 
HETATM   27  C   UNL     1       9.518  -4.342  -3.142  1.00  0.00     0.153 C 
ENDROOT
BRANCH  16  28
HETATM   28  C   UNL     1      13.056  -1.375   4.417  1.00  0.00     0.016 C 
HETATM   29  C   UNL     1      12.117  -0.282   4.922  1.00  0.00     0.012 C 
HETATM   30  C   UNL     1      14.514  -0.947   4.580  1.00  0.00     0.012 C 
ENDBRANCH  16  28
BRANCH  14  31
HETATM   31  C   UNL     1      11.993  -5.954   3.614  1.00  0.00     0.014 C 
HETATM   32  C   UNL     1      12.594  -5.292   4.857  1.00  0.00     0.012 C 
BRANCH  31  33
HETATM   33  C   UNL     1      10.463  -5.798   3.629  1.00  0.00     0.002 C 
HETATM   34  C   UNL     1       9.780  -6.384   2.401  1.00  0.00     0.005 C 
ENDBRANCH  31  33
ENDBRANCH  14  31
BRANCH  13  35
HETATM   35  C   UNL     1      10.596   1.956   0.249  1.00  0.00     0.014 C 
HETATM   36  C   UNL     1       9.463   2.146  -0.763  1.00  0.00     0.012 C 
BRANCH  35  37
HETATM   37  C   UNL     1      10.490   3.020   1.355  1.00  0.00     0.002 C 
HETATM   38  C   UNL     1       9.639   2.583   2.540  1.00  0.00     0.005 C 
ENDBRANCH  35  37
ENDBRANCH  13  35
BRANCH  18  39
HETATM   39  C   UNL     1      13.853  -5.006  -1.946  1.00  0.00     0.016 C 
HETATM   40  C   UNL     1      15.075  -4.092  -1.960  1.00  0.00     0.012 C 
HETATM   41  C   UNL     1      14.225  -6.407  -2.428  1.00  0.00     0.012 C 
ENDBRANCH  18  39
BRANCH  17  42
HETATM   42  C   UNL     1       7.561  -1.832  -1.941  1.00  0.00     0.016 C 
HETATM   43  C   UNL     1       6.886  -0.618  -1.303  1.00  0.00     0.012 C 
HETATM   44  C   UNL     1       6.795  -3.109  -1.600  1.00  0.00     0.012 C 
ENDBRANCH  17  42
BRANCH  15  45
HETATM   45  C   UNL     1       8.812  -6.849  -1.787  1.00  0.00     0.014 C 
HETATM   46  C   UNL     1       9.767  -7.938  -2.291  1.00  0.00     0.012 C 
BRANCH  45  47
HETATM   47  C   UNL     1       7.733  -7.483  -0.889  1.00  0.00     0.002 C 
HETATM   48  C   UNL     1       6.932  -6.463  -0.093  1.00  0.00     0.005 C 
ENDBRANCH  45  47
ENDBRANCH  15  45
TORSDOF 9
ENDMDL
MODEL 3
REMARK VINA RESULT:   -11.855      2.082      8.308
REMARK INTER + INTRA:          -9.250
REMARK INTER:                  -9.497
REMARK INTRA:                   0.247
REMARK UNBOUND:                 8.843
REMARK  9 active torsions:
REMARK  status: ('A' for Active; 'I' for Inactive)
REMARK    1  A    between atoms: C_13  and  C_16 
REMARK    2  A    between atoms: C_14  and  C_17 
REMARK    3  A    between atoms: C_15  and  C_18 
REMARK    4  A    between atoms: C_16  and  C_22 
REMARK    5  A    between atoms: C_17  and  C_23 
REMARK    6  A    between atoms: C_18  and  C_24 
REMARK    7  A    between atoms: C_19  and  C_25 
REMARK    8  A    between atoms: C_20  and  C_26 
REMARK    9  A    between atoms: C_21  and  C_27 
ROOT
HETATM    1  O   UNL     1       9.880  -1.366  -0.383  1.00  0.00    -0.304 OA
HETATM    2  O   UNL     1      12.648  -4.448   2.551  1.00  0.00    -0.304 OA
HETATM    3  O   UNL     1      12.505   0.378   2.169  1.00  0.00    -0.304 OA
HETATM    4  O   UNL     1       9.809  -3.786   0.546  1.00  0.00    -0.270 OA
HETATM    5  O   UNL     1      12.367   3.456   0.622  1.00  0.00    -0.270 OA
HETATM    6  O   UNL     1      11.197  -2.341   3.180  1.00  0.00    -0.270 OA
HETATM    7  O   UNL     1      10.358   0.362  -1.834  1.00  0.00    -0.263 OA
HETATM    8  O   UNL     1      13.782  -3.404   0.833  1.00  0.00    -0.263 OA
HETATM    9  O   UNL     1      12.123   2.232   3.477  1.00  0.00    -0.263 OA
HETATM   10  N   UNL     1      11.657  -4.357  -0.736  1.00  0.00    -0.340 N 
HETATM   11  N   UNL     1      10.513   2.090   0.342  1.00  0.00    -0.340 N 
HETATM   12  N   UNL     1      12.882  -1.183   4.278  1.00  0.00    -0.340 N 
HETATM   13  C   UNL     1      12.197  -5.193   0.354  1.00  0.00     0.190 C 
HETATM   14  C   UNL     1       9.827   0.793   0.513  1.00  0.00     0.190 C 
HETATM   15  C   UNL     1      12.025   0.010   4.465  1.00  0.00     0.190 C 
HETATM   16  C   UNL     1      10.244  -2.385  -1.340  1.00  0.00     0.227 C 
HETATM   17  C   UNL     1      13.230  -3.559   3.525  1.00  0.00     0.227 C 
HETATM   18  C   UNL     1      12.757   1.107   0.964  1.00  0.00     0.227 C 
HETATM   19  C   UNL     1      10.526  -3.582  -0.442  1.00  0.00     0.250 C 
HETATM   20  C   UNL     1      11.864   2.326   0.646  1.00  0.00     0.250 C 
HETATM   21  C   UNL     1      12.346  -2.311   3.639  1.00  0.00     0.250 C 
HETATM   22  C   UNL     1      10.057  -0.058  -0.726  1.00  0.00     0.283 C 
HETATM   23  C   UNL     1      12.984  -4.237   1.243  1.00  0.00     0.283 C 
HETATM   24  C   UNL     1      12.260   1.022   3.343  1.00  0.00     0.283 C 
HETATM   25  C   UNL     1      12.396  -4.270  -1.997  1.00  0.00     0.153 C 
HETATM   26  C   UNL     1       9.727   3.208  -0.181  1.00  0.00     0.153 C 
HETATM   27  C   UNL     1      14.275  -1.063   4.721  1.00  0.00     0.153 C 
ENDROOT
BRANCH  16  28
HETATM   28  C   UNL     1       9.080  -2.673  -2.270  1.00  0.00     0.016 C 
HETATM   29  C   UNL     1       7.774  -2.775  -1.483  1.00  0.00     0.012 C 
HETATM   30  C   UNL     1       9.328  -3.954  -3.064  1.00  0.00     0.012 C 
ENDBRANCH  16  28
BRANCH  14  31
HETATM   31  C   UNL     1       8.333   0.886   0.814  1.00  0.00     0.014 C 
HETATM   32  C   UNL     1       7.529   0.543  -0.442  1.00  0.00     0.012 C 
BRANCH  31  33
HETATM   33  C   UNL     1       7.910  -0.035   1.972  1.00  0.00     0.002 C 
HETATM   34  C   UNL     1       8.687   0.208   3.258  1.00  0.00     0.005 C 
ENDBRANCH  31  33
ENDBRANCH  14  31
BRANCH  13  35
HETATM   35  C   UNL     1      13.083  -6.360  -0.058  1.00  0.00     0.014 C 
HETATM   36  C   UNL     1      13.767  -6.954   1.177  1.00  0.00     0.012 C 
BRANCH  35  37
HETATM   37  C   UNL     1      12.301  -7.460  -0.798  1.00  0.00     0.002 C 
HETATM   38  C   UNL     1      13.177  -8.604  -1.289  1.00  0.00     0.005 C 
ENDBRANCH  35  37
ENDBRANCH  13  35
BRANCH  18  39
HETATM   39  C   UNL     1      14.240   1.484   0.955  1.00  0.00     0.016 C 
HETATM   40  C   UNL     1      15.074   0.396   1.628  1.00  0.00     0.012 C 
HETATM   41  C   UNL     1      14.724   1.724  -0.474  1.00  0.00     0.012 C 
ENDBRANCH  18  39
BRANCH  17  42
HETATM   42  C   UNL     1      13.256  -4.305   4.851  1.00  0.00     0.016 C 
HETATM   43  C   UNL     1      14.686  -4.696   5.223  1.00  0.00     0.012 C 
HETATM   44  C   UNL     1      12.362  -5.543   4.792  1.00  0.00     0.012 C 
ENDBRANCH  17  42
BRANCH  15  45
HETATM   45  C   UNL     1      12.176   0.656   5.842  1.00  0.00     0.014 C 
HETATM   46  C   UNL     1      10.943   1.510   6.157  1.00  0.00     0.012 C 
BRANCH  45  47
HETATM   47  C   UNL     1      12.387  -0.381   6.962  1.00  0.00     0.002 C 
HETATM   48  C   UNL     1      12.081   0.157   8.351  1.00  0.00     0.005 C 
ENDBRANCH  45  47
ENDBRANCH  15  45
TORSDOF 9
ENDMDL
MODEL 4
REMARK VINA RESULT:   -11.814      1.878      6.276
REMARK INTER + INTRA:          -9.188
REMARK INTER:                  -9.624
REMARK INTRA:                   0.436
REMARK UNBOUND:                 8.843
REMARK  9 active torsions:
REMARK  status: ('A' for Active; 'I' for Inactive)
REMARK    1  A    between atoms: C_13  and  C_16 
REMARK    2  A    between atoms: C_14  and  C_17 
REMARK    3  A    between atoms: C_15  and  C_18 
REMARK    4  A    between atoms: C_16  and  C_22 
REMARK    5  A    between atoms: C_17  and  C_23 
REMARK    6  A    between atoms: C_18  and  C_24 
REMARK    7  A    between atoms: C_19  and  C_25 
REMARK    8  A    between atoms: C_20  and  C_26 
REMARK    9  A    between atoms: C_21  and  C_27 
ROOT
HETATM    1  O   UNL     1       9.354  -2.070  -0.245  1.00  0.00    -0.304 OA
HETATM    2  O   UNL     1      12.170  -0.982   3.836  1.00  0.00    -0.304 OA
HETATM    3  O   UNL     1      10.948  -5.197   1.786  1.00  0.00    -0.304 OA
HETATM    4  O   UNL     1      10.705  -0.089   0.743  1.00  0.00    -0.270 OA
HETATM    5  O   UNL     1       8.926  -7.546   0.276  1.00  0.00    -0.270 OA
HETATM    6  O   UNL     1      12.687  -2.532   1.770  1.00  0.00    -0.270 OA
HETATM    7  O   UNL     1       7.545  -3.440  -0.656  1.00  0.00    -0.263 OA
HETATM    8  O   UNL     1      10.093  -1.899   4.258  1.00  0.00    -0.263 OA
HETATM    9  O   UNL     1      11.946  -7.060   0.877  1.00  0.00    -0.263 OA
HETATM   10  N   UNL     1       9.196   0.095   2.496  1.00  0.00    -0.340 N 
HETATM   11  N   UNL     1       9.289  -5.593  -0.921  1.00  0.00    -0.340 N 
HETATM   12  N   UNL     1      13.185  -4.440   2.993  1.00  0.00    -0.340 N 
HETATM   13  C   UNL     1      10.287   0.391   3.447  1.00  0.00     0.190 C 
HETATM   14  C   UNL     1       9.832  -4.222  -1.023  1.00  0.00     0.190 C 
HETATM   15  C   UNL     1      13.322  -5.264   1.770  1.00  0.00     0.190 C 
HETATM   16  C   UNL     1       8.546  -1.041   0.366  1.00  0.00     0.227 C 
HETATM   17  C   UNL     1      12.823  -2.230   4.141  1.00  0.00     0.227 C 
HETATM   18  C   UNL     1       9.605  -5.647   1.587  1.00  0.00     0.227 C 
HETATM   19  C   UNL     1       9.571  -0.281   1.198  1.00  0.00     0.250 C 
HETATM   20  C   UNL     1       9.260  -6.355   0.259  1.00  0.00     0.250 C 
HETATM   21  C   UNL     1      12.887  -3.075   2.863  1.00  0.00     0.250 C 
HETATM   22  C   UNL     1       8.749  -3.228  -0.634  1.00  0.00     0.283 C 
HETATM   23  C   UNL     1      10.804  -0.967   3.902  1.00  0.00     0.283 C 
HETATM   24  C   UNL     1      12.010  -5.983   1.454  1.00  0.00     0.283 C 
HETATM   25  C   UNL     1       7.816   0.069   2.985  1.00  0.00     0.153 C 
HETATM   26  C   UNL     1       8.743  -6.197  -2.136  1.00  0.00     0.153 C 
HETATM   27  C   UNL     1      13.301  -5.148   4.273  1.00  0.00     0.153 C 
ENDROOT
BRANCH  16  28
HETATM   28  C   UNL     1       7.944  -0.143  -0.699  1.00  0.00     0.016 C 
HETATM   29  C   UNL     1       8.451   1.290  -0.544  1.00  0.00     0.012 C 
HETATM   30  C   UNL     1       6.418  -0.181  -0.637  1.00  0.00     0.012 C 
ENDBRANCH  16  28
BRANCH  14  31
HETATM   31  C   UNL     1      10.412  -3.857  -2.388  1.00  0.00     0.014 C 
HETATM   32  C   UNL     1       9.591  -2.726  -3.012  1.00  0.00     0.012 C 
BRANCH  31  33
HETATM   33  C   UNL     1      11.891  -3.443  -2.303  1.00  0.00     0.002 C 
HETATM   34  C   UNL     1      12.809  -4.559  -1.823  1.00  0.00     0.005 C 
ENDBRANCH  31  33
ENDBRANCH  14  31
BRANCH  13  35
HETATM   35  C   UNL     1       9.922   1.236   4.659  1.00  0.00     0.014 C 
HETATM   36  C   UNL     1      10.737   0.781   5.873  1.00  0.00     0.012 C 
BRANCH  35  37
HETATM   37  C   UNL     1      10.145   2.739   4.417  1.00  0.00     0.002 C 
HETATM   38  C   UNL     1      10.885   3.435   5.551  1.00  0.00     0.005 C 
ENDBRANCH  35  37
ENDBRANCH  13  35
BRANCH  18  39
HETATM   39  C   UNL     1       9.222  -6.505   2.794  1.00  0.00     0.016 C 
HETATM   40  C   UNL     1       9.933  -6.010   4.051  1.00  0.00     0.012 C 
HETATM   41  C   UNL     1       7.708  -6.501   2.997  1.00  0.00     0.012 C 
ENDBRANCH  18  39
BRANCH  17  42
HETATM   42  C   UNL     1      14.230  -1.893   4.617  1.00  0.00     0.016 C 
HETATM   43  C   UNL     1      14.345  -2.070   6.130  1.00  0.00     0.012 C 
HETATM   44  C   UNL     1      14.609  -0.468   4.214  1.00  0.00     0.012 C 
ENDBRANCH  17  42
BRANCH  15  45
HETATM   45  C   UNL     1      14.496  -6.240   1.824  1.00  0.00     0.014 C 
HETATM   46  C   UNL     1      14.062  -7.545   2.500  1.00  0.00     0.012 C 
BRANCH  45  47
HETATM   47  C   UNL     1      15.075  -6.547   0.429  1.00  0.00     0.002 C 
HETATM   48  C   UNL     1      15.075  -8.029   0.086  1.00  0.00     0.005 C 
ENDBRANCH  45  47
ENDBRANCH  15  45
TORSDOF 9
ENDMDL
MODEL 5
REMARK VINA RESULT:   -11.425      1.446      1.999
REMARK INTER + INTRA:          -8.594
REMARK INTER:                  -9.234
REMARK INTRA:                   0.641
REMARK UNBOUND:                 8.843
REMARK  9 active torsions:
REMARK  status: ('A' for Active; 'I' for Inactive)
REMARK    1  A    between atoms: C_13  and  C_16 
REMARK    2  A    between atoms: C_14  and  C_17 
REMARK    3  A    between atoms: C_15  and  C_18 
REMARK    4  A    between atoms: C_16  and  C_22 
REMARK    5  A    between atoms: C_17  and  C_23 
REMARK    6  A    between atoms: C_18  and  C_24 
REMARK    7  A    between atoms: C_19  and  C_25 
REMARK    8  A    between atoms: C_20  and  C_26 
REMARK    9  A    between atoms: C_21  and  C_27 
ROOT
HETATM    1  O   UNL     1      13.128  -3.411   2.803  1.00  0.00    -0.304 OA
HETATM    2  O   UNL     1       9.613  -0.879   0.156  1.00  0.00    -0.304 OA
HETATM    3  O   UNL     1      11.401  -5.357  -0.308  1.00  0.00    -0.304 OA
HETATM    4  O   UNL     1      11.519  -1.398   3.091  1.00  0.00    -0.270 OA
HETATM    5  O   UNL     1      13.779  -7.851  -0.408  1.00  0.00    -0.270 OA
HETATM    6  O   UNL     1       9.538  -3.285   1.228  1.00  0.00    -0.270 OA
HETATM    7  O   UNL     1      15.056  -4.557   2.267  1.00  0.00    -0.263 OA
HETATM    8  O   UNL     1      11.640  -1.196  -0.903  1.00  0.00    -0.263 OA
HETATM    9  O   UNL     1      10.679  -7.541  -0.332  1.00  0.00    -0.263 OA
HETATM   10  N   UNL     1      12.701  -0.196   1.496  1.00  0.00    -0.340 N 
HETATM   11  N   UNL     1      13.509  -6.781   1.632  1.00  0.00    -0.340 N 
HETATM   12  N   UNL     1       8.955  -4.417  -0.712  1.00  0.00    -0.340 N 
HETATM   13  C   UNL     1      11.452   0.373   0.952  1.00  0.00     0.190 C 
HETATM   14  C   UNL     1      12.913  -5.714   2.462  1.00  0.00     0.190 C 
HETATM   15  C   UNL     1       9.071  -5.737  -0.050  1.00  0.00     0.190 C 
HETATM   16  C   UNL     1      13.762  -2.119   2.692  1.00  0.00     0.227 C 
HETATM   17  C   UNL     1       8.991  -1.901  -0.648  1.00  0.00     0.227 C 
HETATM   18  C   UNL     1      12.783  -5.664  -0.516  1.00  0.00     0.227 C 
HETATM   19  C   UNL     1      12.571  -1.195   2.472  1.00  0.00     0.250 C 
HETATM   20  C   UNL     1      13.385  -6.871   0.236  1.00  0.00     0.250 C 
HETATM   21  C   UNL     1       9.191  -3.256   0.041  1.00  0.00     0.250 C 
HETATM   22  C   UNL     1      13.856  -4.522   2.493  1.00  0.00     0.283 C 
HETATM   23  C   UNL     1      10.945  -0.654  -0.053  1.00  0.00     0.283 C 
HETATM   24  C   UNL     1      10.457  -6.338  -0.288  1.00  0.00     0.283 C 
HETATM   25  C   UNL     1      13.979   0.199   0.902  1.00  0.00     0.153 C 
HETATM   26  C   UNL     1      14.284  -7.817   2.315  1.00  0.00     0.153 C 
HETATM   27  C   UNL     1       8.668  -4.430  -2.150  1.00  0.00     0.153 C 
ENDROOT
BRANCH  16  28
HETATM   28  C   UNL     1      14.480  -1.772   3.983  1.00  0.00     0.016 C 
HETATM   29  C   UNL     1      13.608  -2.108   5.191  1.00  0.00     0.012 C 
HETATM   30  C   UNL     1      14.874  -0.296   4.001  1.00  0.00     0.012 C 
ENDBRANCH  16  28
BRANCH  14  31
HETATM   31  C   UNL     1      12.548  -6.130   3.886  1.00  0.00     0.014 C 
HETATM   32  C   UNL     1      13.631  -5.655   4.857  1.00  0.00     0.012 C 
BRANCH  31  33
HETATM   33  C   UNL     1      11.178  -5.582   4.323  1.00  0.00     0.002 C 
HETATM   34  C   UNL     1      10.024  -6.064   3.456  1.00  0.00     0.005 C 
ENDBRANCH  31  33
ENDBRANCH  14  31
BRANCH  13  35
HETATM   35  C   UNL     1      11.560   1.737   0.284  1.00  0.00     0.014 C 
HETATM   36  C   UNL     1      10.251   2.066  -0.439  1.00  0.00     0.012 C 
BRANCH  35  37
HETATM   37  C   UNL     1      11.898   2.856   1.284  1.00  0.00     0.002 C 
HETATM   38  C   UNL     1      11.003   2.862   2.516  1.00  0.00     0.005 C 
ENDBRANCH  35  37
ENDBRANCH  13  35
BRANCH  18  39
HETATM   39  C   UNL     1      13.008  -5.777  -2.025  1.00  0.00     0.016 C 
HETATM   40  C   UNL     1      12.061  -4.847  -2.780  1.00  0.00     0.012 C 
HETATM   41  C   UNL     1      14.461  -5.464  -2.376  1.00  0.00     0.012 C 
ENDBRANCH  18  39
BRANCH  17  42
HETATM   42  C   UNL     1       7.508  -1.567  -0.726  1.00  0.00     0.016 C 
HETATM   43  C   UNL     1       7.018  -1.618  -2.173  1.00  0.00     0.012 C 
HETATM   44  C   UNL     1       7.232  -0.193  -0.116  1.00  0.00     0.012 C 
ENDBRANCH  17  42
BRANCH  15  45
HETATM   45  C   UNL     1       7.963  -6.712  -0.443  1.00  0.00     0.014 C 
HETATM   46  C   UNL     1       7.417  -7.414   0.805  1.00  0.00     0.012 C 
BRANCH  45  47
HETATM   47  C   UNL     1       6.809  -6.025  -1.197  1.00  0.00     0.002 C 
HETATM   48  C   UNL     1       5.539  -5.893  -0.371  1.00  0.00     0.005 C 
ENDBRANCH  45  47
ENDBRANCH  15  45
TORSDOF 9
ENDMDL
MODEL 6
REMARK VINA RESULT:   -10.812      2.017      6.140
REMARK INTER + INTRA:          -7.658
REMARK INTER:                  -8.577
REMARK INTRA:                   0.919
REMARK UNBOUND:                 8.843
REMARK  9 active torsions:
REMARK  status: ('A' for Active; 'I' for Inactive)
REMARK    1  A    between atoms: C_13  and  C_16 
REMARK    2  A    between atoms: C_14  and  C_17 
REMARK    3  A    between atoms: C_15  and  C_18 
REMARK    4  A    between atoms: C_16  and  C_22 
REMARK    5  A    between atoms: C_17  and  C_23 
REMARK    6  A    between atoms: C_18  and  C_24 
REMARK    7  A    between atoms: C_19  and  C_25 
REMARK    8  A    between atoms: C_20  and  C_26 
REMARK    9  A    between atoms: C_21  and  C_27 
ROOT
HETATM    1  O   UNL     1      12.071  -5.679   2.576  1.00  0.00    -0.304 OA
HETATM    2  O   UNL     1      11.755  -0.972   4.451  1.00  0.00    -0.304 OA
HETATM    3  O   UNL     1      11.694  -2.649  -0.093  1.00  0.00    -0.304 OA
HETATM    4  O   UNL     1      11.444  -4.480   4.788  1.00  0.00    -0.270 OA
HETATM    5  O   UNL     1      12.626  -4.569  -2.801  1.00  0.00    -0.270 OA
HETATM    6  O   UNL     1      10.231  -2.217   2.699  1.00  0.00    -0.270 OA
HETATM    7  O   UNL     1      13.395  -6.716   0.998  1.00  0.00    -0.263 OA
HETATM    8  O   UNL     1      13.741  -1.510   3.405  1.00  0.00    -0.263 OA
HETATM    9  O   UNL     1      10.345  -2.619  -1.957  1.00  0.00    -0.263 OA
HETATM   10  N   UNL     1      13.640  -3.779   5.056  1.00  0.00    -0.340 N 
HETATM   11  N   UNL     1      11.730  -5.717  -0.996  1.00  0.00    -0.340 N 
HETATM   12  N   UNL     1      10.402  -0.620   1.024  1.00  0.00    -0.340 N 
HETATM   13  C   UNL     1      13.193  -2.471   5.576  1.00  0.00     0.190 C 
HETATM   14  C   UNL     1      11.232  -5.752   0.395  1.00  0.00     0.190 C 
HETATM   15  C   UNL     1       9.646  -1.458   0.063  1.00  0.00     0.190 C 
HETATM   16  C   UNL     1      13.092  -5.731   3.595  1.00  0.00     0.227 C 
HETATM   17  C   UNL     1      11.331  -0.183   3.321  1.00  0.00     0.227 C 
HETATM   18  C   UNL     1      12.741  -3.421  -0.690  1.00  0.00     0.227 C 
HETATM   19  C   UNL     1      12.648  -4.632   4.551  1.00  0.00     0.250 C 
HETATM   20  C   UNL     1      12.348  -4.608  -1.596  1.00  0.00     0.250 C 
HETATM   21  C   UNL     1      10.611  -1.101   2.326  1.00  0.00     0.250 C 
HETATM   22  C   UNL     1      12.375  -6.126   1.324  1.00  0.00     0.283 C 
HETATM   23  C   UNL     1      12.962  -1.605   4.345  1.00  0.00     0.283 C 
HETATM   24  C   UNL     1      10.601  -2.269  -0.812  1.00  0.00     0.283 C 
HETATM   25  C   UNL     1      15.075  -4.053   4.964  1.00  0.00     0.153 C 
HETATM   26  C   UNL     1      11.569  -6.927  -1.803  1.00  0.00     0.153 C 
HETATM   27  C   UNL     1      10.946   0.638   0.505  1.00  0.00     0.153 C 
ENDROOT
BRANCH  16  28
HETATM   28  C   UNL     1      13.078  -7.083   4.284  1.00  0.00     0.016 C 
HETATM   29  C   UNL     1      14.026  -8.055   3.585  1.00  0.00     0.012 C 
HETATM   30  C   UNL     1      11.661  -7.653   4.325  1.00  0.00     0.012 C 
ENDBRANCH  16  28
BRANCH  14  31
HETATM   31  C   UNL     1      10.040  -6.678   0.631  1.00  0.00     0.014 C 
HETATM   32  C   UNL     1       9.414  -6.378   1.995  1.00  0.00     0.012 C 
BRANCH  31  33
HETATM   33  C   UNL     1       8.974  -6.554  -0.471  1.00  0.00     0.002 C 
HETATM   34  C   UNL     1       8.238  -5.222  -0.459  1.00  0.00     0.005 C 
ENDBRANCH  31  33
ENDBRANCH  14  31
BRANCH  13  35
HETATM   35  C   UNL     1      14.139  -1.761   6.535  1.00  0.00     0.014 C 
HETATM   36  C   UNL     1      13.825  -0.262   6.559  1.00  0.00     0.012 C 
BRANCH  35  37
HETATM   37  C   UNL     1      14.066  -2.330   7.963  1.00  0.00     0.002 C 
HETATM   38  C   UNL     1      12.902  -1.781   8.778  1.00  0.00     0.005 C 
ENDBRANCH  35  37
ENDBRANCH  13  35
BRANCH  18  39
HETATM   39  C   UNL     1      13.674  -2.449  -1.415  1.00  0.00     0.016 C 
HETATM   40  C   UNL     1      13.730  -1.111  -0.682  1.00  0.00     0.012 C 
HETATM   41  C   UNL     1      15.073  -3.048  -1.547  1.00  0.00     0.012 C 
ENDBRANCH  18  39
BRANCH  17  42
HETATM   42  C   UNL     1      10.371   0.873   3.849  1.00  0.00     0.016 C 
HETATM   43  C   UNL     1      10.938   2.276   3.632  1.00  0.00     0.012 C 
HETATM   44  C   UNL     1      10.073   0.640   5.330  1.00  0.00     0.012 C 
ENDBRANCH  17  42
BRANCH  15  45
HETATM   45  C   UNL     1       8.650  -0.665  -0.781  1.00  0.00     0.014 C 
HETATM   46  C   UNL     1       7.751  -1.623  -1.570  1.00  0.00     0.012 C 
BRANCH  45  47
HETATM   47  C   UNL     1       7.780   0.284   0.065  1.00  0.00     0.002 C 
HETATM   48  C   UNL     1       6.311   0.274  -0.331  1.00  0.00     0.005 C 
ENDBRANCH  45  47
ENDBRANCH  15  45
TORSDOF 9
ENDMDL
MODEL 7
REMARK VINA RESULT:   -10.773      1.975      6.976
REMARK INTER + INTRA:          -7.598
REMARK INTER:                  -9.133
REMARK INTRA:                   1.535
REMARK UNBOUND:                 8.843
REMARK  9 active torsions:
REMARK  status: ('A' for Active; 'I' for Inactive)
REMARK    1  A    between atoms: C_13  and  C_16 
REMARK    2  A    between atoms: C_14  and  C_17 
REMARK    3  A    between atoms: C_15  and  C_18 
REMARK    4  A    between atoms: C_16  and  C_22 
REMARK    5  A    between atoms: C_17  and  C_23 
REMARK    6  A    between atoms: C_18  and  C_24 
REMARK    7  A    between atoms: C_19  and  C_25 
REMARK    8  A    between atoms: C_20  and  C_26 
REMARK    9  A    between atoms: C_21  and  C_27 
ROOT
HETATM    1  O   UNL     1      11.576  -4.776   1.749  1.00  0.00    -0.304 OA
HETATM    2  O   UNL     1      11.631  -0.942   5.076  1.00  0.00    -0.304 OA
HETATM    3  O   UNL     1      10.868  -1.058   0.295  1.00  0.00    -0.304 OA
HETATM    4  O   UNL     1      11.306  -4.378   4.297  1.00  0.00    -0.270 OA
HETATM    5  O   UNL     1      11.352  -1.968  -2.995  1.00  0.00    -0.270 OA
HETATM    6  O   UNL     1       9.841  -1.598   3.257  1.00  0.00    -0.270 OA
HETATM    7  O   UNL     1      12.633  -5.207  -0.255  1.00  0.00    -0.263 OA
HETATM    8  O   UNL     1      13.430  -1.053   3.634  1.00  0.00    -0.263 OA
HETATM    9  O   UNL     1       9.259  -0.466  -1.241  1.00  0.00    -0.263 OA
HETATM   10  N   UNL     1      13.531  -3.736   4.455  1.00  0.00    -0.340 N 
HETATM   11  N   UNL     1      10.711  -3.666  -1.552  1.00  0.00    -0.340 N 
HETATM   12  N   UNL     1       9.793   0.459   2.185  1.00  0.00    -0.340 N 
HETATM   13  C   UNL     1      13.191  -2.681   5.431  1.00  0.00     0.190 C 
HETATM   14  C   UNL     1      10.423  -4.164  -0.190  1.00  0.00     0.190 C 
HETATM   15  C   UNL     1       8.888  -0.044   1.126  1.00  0.00     0.190 C 
HETATM   16  C   UNL     1      12.736  -5.125   2.535  1.00  0.00     0.227 C 
HETATM   17  C   UNL     1      11.060   0.157   4.338  1.00  0.00     0.227 C 
HETATM   18  C   UNL     1      11.799  -1.563  -0.667  1.00  0.00     0.227 C 
HETATM   19  C   UNL     1      12.459  -4.409   3.850  1.00  0.00     0.250 C 
HETATM   20  C   UNL     1      11.254  -2.404  -1.842  1.00  0.00     0.250 C 
HETATM   21  C   UNL     1      10.183  -0.410   3.215  1.00  0.00     0.250 C 
HETATM   22  C   UNL     1      11.684  -4.785   0.390  1.00  0.00     0.283 C 
HETATM   23  C   UNL     1      12.797  -1.470   4.595  1.00  0.00     0.283 C 
HETATM   24  C   UNL     1       9.688  -0.499  -0.094  1.00  0.00     0.283 C 
HETATM   25  C   UNL     1      14.931  -3.923   4.070  1.00  0.00     0.153 C 
HETATM   26  C   UNL     1      10.409  -4.553  -2.675  1.00  0.00     0.153 C 
HETATM   27  C   UNL     1      10.279   1.834   2.030  1.00  0.00     0.153 C 
ENDROOT
BRANCH  16  28
HETATM   28  C   UNL     1      12.798  -6.627   2.743  1.00  0.00     0.016 C 
HETATM   29  C   UNL     1      12.626  -6.975   4.220  1.00  0.00     0.012 C 
HETATM   30  C   UNL     1      14.113  -7.192   2.210  1.00  0.00     0.012 C 
ENDBRANCH  16  28
BRANCH  14  31
HETATM   31  C   UNL     1       9.262  -5.153  -0.096  1.00  0.00     0.014 C 
HETATM   32  C   UNL     1       8.038  -4.583  -0.818  1.00  0.00     0.012 C 
BRANCH  31  33
HETATM   33  C   UNL     1       9.618  -6.531  -0.680  1.00  0.00     0.002 C 
HETATM   34  C   UNL     1       8.425  -7.271  -1.267  1.00  0.00     0.005 C 
ENDBRANCH  31  33
ENDBRANCH  14  31
BRANCH  13  35
HETATM   35  C   UNL     1      14.282  -2.292   6.420  1.00  0.00     0.014 C 
HETATM   36  C   UNL     1      14.062  -0.853   6.895  1.00  0.00     0.012 C 
BRANCH  35  37
HETATM   37  C   UNL     1      14.341  -3.237   7.633  1.00  0.00     0.002 C 
HETATM   38  C   UNL     1      13.585  -2.715   8.848  1.00  0.00     0.005 C 
ENDBRANCH  35  37
ENDBRANCH  13  35
BRANCH  18  39
HETATM   39  C   UNL     1      12.634  -0.381  -1.165  1.00  0.00     0.016 C 
HETATM   40  C   UNL     1      12.561   0.781  -0.178  1.00  0.00     0.012 C 
HETATM   41  C   UNL     1      14.084  -0.806  -1.389  1.00  0.00     0.012 C 
ENDBRANCH  18  39
BRANCH  17  42
HETATM   42  C   UNL     1      10.209   0.956   5.315  1.00  0.00     0.016 C 
HETATM   43  C   UNL     1      11.019   2.096   5.930  1.00  0.00     0.012 C 
HETATM   44  C   UNL     1       9.648   0.049   6.410  1.00  0.00     0.012 C 
ENDBRANCH  17  42
BRANCH  15  45
HETATM   45  C   UNL     1       7.794   0.950   0.740  1.00  0.00     0.014 C 
HETATM   46  C   UNL     1       8.302   1.886  -0.362  1.00  0.00     0.012 C 
BRANCH  45  47
HETATM   47  C   UNL     1       6.501   0.255   0.273  1.00  0.00     0.002 C 
HETATM   48  C   UNL     1       5.603   1.148  -0.569  1.00  0.00     0.005 C 
ENDBRANCH  45  47
ENDBRANCH  15  45
TORSDOF 9
ENDMDL
MODEL 8
REMARK VINA RESULT:   -10.591      1.438      1.997
REMARK INTER + INTRA:          -7.321
REMARK INTER:                  -9.332
REMARK INTRA:                   2.011
REMARK UNBOUND:                 8.843
REMARK  9 active torsions:
REMARK  status: ('A' for Active; 'I' for Inactive)
REMARK    1  A    between atoms: C_13  and  C_16 
REMARK    2  A    between atoms: C_14  and  C_17 
REMARK    3  A    between atoms: C_15  and  C_18 
REMARK    4  A    between atoms: C_16  and  C_22 
REMARK    5  A    between atoms: C_17  and  C_23 
REMARK    6  A    between atoms: C_18  and  C_24 
REMARK    7  A    between atoms: C_19  and  C_25 
REMARK    8  A    between atoms: C_20  and  C_26 
REMARK    9  A    between atoms: C_21  and  C_27 
ROOT
HETATM    1  O   UNL     1      12.916  -1.915   2.937  1.00  0.00    -0.304 OA
HETATM    2  O   UNL     1       9.198  -0.636  -0.274  1.00  0.00    -0.304 OA
HETATM    3  O   UNL     1      11.888  -4.644   0.119  1.00  0.00    -0.304 OA
HETATM    4  O   UNL     1      10.915  -0.272   2.798  1.00  0.00    -0.270 OA
HETATM    5  O   UNL     1      14.722  -6.557   0.563  1.00  0.00    -0.270 OA
HETATM    6  O   UNL     1       9.521  -2.805   1.186  1.00  0.00    -0.270 OA
HETATM    7  O   UNL     1      15.075  -2.691   2.700  1.00  0.00    -0.263 OA
HETATM    8  O   UNL     1      11.328  -0.674  -1.161  1.00  0.00    -0.263 OA
HETATM    9  O   UNL     1      11.628  -6.909   0.431  1.00  0.00    -0.263 OA
HETATM   10  N   UNL     1      11.959   0.891   1.083  1.00  0.00    -0.340 N 
HETATM   11  N   UNL     1      14.069  -5.266   2.376  1.00  0.00    -0.340 N 
HETATM   12  N   UNL     1       9.345  -4.323  -0.560  1.00  0.00    -0.340 N 
HETATM   13  C   UNL     1      10.671   1.088   0.388  1.00  0.00     0.190 C 
HETATM   14  C   UNL     1      13.201  -4.235   2.982  1.00  0.00     0.190 C 
HETATM   15  C   UNL     1       9.670  -5.469   0.321  1.00  0.00     0.190 C 
HETATM   16  C   UNL     1      13.282  -0.550   2.639  1.00  0.00     0.227 C 
HETATM   17  C   UNL     1       8.866  -1.880  -0.923  1.00  0.00     0.227 C 
HETATM   18  C   UNL     1      13.316  -4.678   0.036  1.00  0.00     0.227 C 
HETATM   19  C   UNL     1      11.952   0.052   2.207  1.00  0.00     0.250 C 
HETATM   20  C   UNL     1      14.084  -5.597   1.011  1.00  0.00     0.250 C 
HETATM   21  C   UNL     1       9.277  -3.036  -0.004  1.00  0.00     0.250 C 
HETATM   22  C   UNL     1      13.877  -2.879   2.857  1.00  0.00     0.283 C 
HETATM   23  C   UNL     1      10.469  -0.167  -0.451  1.00  0.00     0.283 C 
HETATM   24  C   UNL     1      11.164  -5.789   0.259  1.00  0.00     0.283 C 
HETATM   25  C   UNL     1      13.176   1.453   0.495  1.00  0.00     0.153 C 
HETATM   26  C   UNL     1      14.978  -5.993   3.263  1.00  0.00     0.153 C 
HETATM   27  C   UNL     1       9.189  -4.621  -1.987  1.00  0.00     0.153 C 
ENDROOT
BRANCH  16  28
HETATM   28  C   UNL     1      13.804   0.139   3.887  1.00  0.00     0.016 C 
HETATM   29  C   UNL     1      13.220  -0.507   5.142  1.00  0.00     0.012 C 
HETATM   30  C   UNL     1      13.481   1.631   3.854  1.00  0.00     0.012 C 
ENDBRANCH  16  28
BRANCH  14  31
HETATM   31  C   UNL     1      12.809  -4.492   4.436  1.00  0.00     0.014 C 
HETATM   32  C   UNL     1      11.963  -5.764   4.526  1.00  0.00     0.012 C 
BRANCH  31  33
HETATM   33  C   UNL     1      14.034  -4.614   5.359  1.00  0.00     0.002 C 
HETATM   34  C   UNL     1      14.051  -3.591   6.486  1.00  0.00     0.005 C 
ENDBRANCH  31  33
ENDBRANCH  14  31
BRANCH  13  35
HETATM   35  C   UNL     1      10.557   2.323  -0.495  1.00  0.00     0.014 C 
HETATM   36  C   UNL     1       9.339   2.192  -1.414  1.00  0.00     0.012 C 
BRANCH  35  37
HETATM   37  C   UNL     1      10.455   3.623   0.321  1.00  0.00     0.002 C 
HETATM   38  C   UNL     1       9.705   3.459   1.637  1.00  0.00     0.005 C 
ENDBRANCH  35  37
ENDBRANCH  13  35
BRANCH  18  39
HETATM   39  C   UNL     1      13.686  -4.974  -1.419  1.00  0.00     0.016 C 
HETATM   40  C   UNL     1      12.435  -5.006  -2.294  1.00  0.00     0.012 C 
HETATM   41  C   UNL     1      14.680  -3.939  -1.941  1.00  0.00     0.012 C 
ENDBRANCH  18  39
BRANCH  17  42
HETATM   42  C   UNL     1       7.358  -1.886  -1.130  1.00  0.00     0.016 C 
HETATM   43  C   UNL     1       7.012  -2.257  -2.572  1.00  0.00     0.012 C 
HETATM   44  C   UNL     1       6.757  -0.528  -0.770  1.00  0.00     0.012 C 
ENDBRANCH  17  42
BRANCH  15  45
HETATM   45  C   UNL     1       8.820  -6.707   0.046  1.00  0.00     0.014 C 
HETATM   46  C   UNL     1       8.242  -7.250   1.358  1.00  0.00     0.012 C 
BRANCH  45  47
HETATM   47  C   UNL     1       7.675  -6.430  -0.948  1.00  0.00     0.002 C 
HETATM   48  C   UNL     1       6.329  -6.209  -0.275  1.00  0.00     0.005 C 
ENDBRANCH  45  47
ENDBRANCH  15  45
TORSDOF 9
ENDMDL
MODEL 9
REMARK VINA RESULT:   -10.310      2.471      6.632
REMARK INTER + INTRA:          -6.892
REMARK INTER:                  -7.934
REMARK INTRA:                   1.043
REMARK UNBOUND:                 8.843
REMARK  9 active torsions:
REMARK  status: ('A' for Active; 'I' for Inactive)
REMARK    1  A    between atoms: C_13  and  C_16 
REMARK    2  A    between atoms: C_14  and  C_17 
REMARK    3  A    between atoms: C_15  and  C_18 
REMARK    4  A    between atoms: C_16  and  C_22 
REMARK    5  A    between atoms: C_17  and  C_23 
REMARK    6  A    between atoms: C_18  and  C_24 
REMARK    7  A    between atoms: C_19  and  C_25 
REMARK    8  A    between atoms: C_20  and  C_26 
REMARK    9  A    between atoms: C_21  and  C_27 
ROOT
HETATM    1  O   UNL     1       9.728   1.122   1.385  1.00  0.00    -0.304 OA
HETATM    2  O   UNL     1       9.984  -3.841   0.349  1.00  0.00    -0.304 OA
HETATM    3  O   UNL     1      13.305  -0.702   1.953  1.00  0.00    -0.304 OA
HETATM    4  O   UNL     1       8.152  -0.925   1.157  1.00  0.00    -0.270 OA
HETATM    5  O   UNL     1      15.074   2.251   2.155  1.00  0.00    -0.270 OA
HETATM    6  O   UNL     1      10.738  -2.504   2.489  1.00  0.00    -0.270 OA
HETATM    7  O   UNL     1      10.935   2.981   0.749  1.00  0.00    -0.263 OA
HETATM    8  O   UNL     1      11.050  -2.442  -1.146  1.00  0.00    -0.263 OA
HETATM    9  O   UNL     1      14.727  -0.411   3.739  1.00  0.00    -0.263 OA
HETATM   10  N   UNL     1       8.610  -1.054  -1.114  1.00  0.00    -0.340 N 
HETATM   11  N   UNL     1      12.823   2.371   2.701  1.00  0.00    -0.340 N 
HETATM   12  N   UNL     1      12.929  -3.266   2.515  1.00  0.00    -0.340 N 
HETATM   13  C   UNL     1       8.616  -2.530  -1.063  1.00  0.00     0.190 C 
HETATM   14  C   UNL     1      11.481   1.758   2.794  1.00  0.00     0.190 C 
HETATM   15  C   UNL     1      13.292  -2.374   3.640  1.00  0.00     0.190 C 
HETATM   16  C   UNL     1       8.987   1.072   0.146  1.00  0.00     0.227 C 
HETATM   17  C   UNL     1      11.242  -4.245   0.925  1.00  0.00     0.227 C 
HETATM   18  C   UNL     1      13.702   0.487   1.264  1.00  0.00     0.227 C 
HETATM   19  C   UNL     1       8.518  -0.376   0.110  1.00  0.00     0.250 C 
HETATM   20  C   UNL     1      13.936   1.770   2.092  1.00  0.00     0.250 C 
HETATM   21  C   UNL     1      11.609  -3.258   2.040  1.00  0.00     0.250 C 
HETATM   22  C   UNL     1      10.707   2.061   1.520  1.00  0.00     0.283 C 
HETATM   23  C   UNL     1      10.033  -2.912  -0.654  1.00  0.00     0.283 C 
HETATM   24  C   UNL     1      13.903  -1.072   3.120  1.00  0.00     0.283 C 
HETATM   25  C   UNL     1       8.839  -0.387  -2.398  1.00  0.00     0.153 C 
HETATM   26  C   UNL     1      13.002   3.700   3.286  1.00  0.00     0.153 C 
HETATM   27  C   UNL     1      14.020  -4.050   1.926  1.00  0.00     0.153 C 
ENDROOT
BRANCH  16  28
HETATM   28  C   UNL     1       7.803   2.020   0.203  1.00  0.00     0.016 C 
HETATM   29  C   UNL     1       6.517   1.299  -0.197  1.00  0.00     0.012 C 
HETATM   30  C   UNL     1       8.039   3.232  -0.695  1.00  0.00     0.012 C 
ENDBRANCH  16  28
BRANCH  14  31
HETATM   31  C   UNL     1      10.663   2.175   4.015  1.00  0.00     0.014 C 
HETATM   32  C   UNL     1       9.289   2.679   3.569  1.00  0.00     0.012 C 
BRANCH  31  33
HETATM   33  C   UNL     1      10.496   1.027   5.026  1.00  0.00     0.002 C 
HETATM   34  C   UNL     1       9.910  -0.239   4.418  1.00  0.00     0.005 C 
ENDBRANCH  31  33
ENDBRANCH  14  31
BRANCH  13  35
HETATM   35  C   UNL     1       8.236  -3.257  -2.345  1.00  0.00     0.014 C 
HETATM   36  C   UNL     1       9.241  -4.378  -2.623  1.00  0.00     0.012 C 
BRANCH  35  37
HETATM   37  C   UNL     1       6.812  -3.836  -2.293  1.00  0.00     0.002 C 
HETATM   38  C   UNL     1       6.774  -5.358  -2.275  1.00  0.00     0.005 C 
ENDBRANCH  35  37
ENDBRANCH  13  35
BRANCH  18  39
HETATM   39  C   UNL     1      14.926   0.140   0.413  1.00  0.00     0.016 C 
HETATM   40  C   UNL     1      14.824  -1.289  -0.114  1.00  0.00     0.012 C 
HETATM   41  C   UNL     1      15.075   1.129  -0.741  1.00  0.00     0.012 C 
ENDBRANCH  18  39
BRANCH  17  42
HETATM   42  C   UNL     1      11.041  -5.638   1.503  1.00  0.00     0.016 C 
HETATM   43  C   UNL     1      12.014  -6.632   0.869  1.00  0.00     0.012 C 
HETATM   44  C   UNL     1       9.599  -6.102   1.306  1.00  0.00     0.012 C 
ENDBRANCH  17  42
BRANCH  15  45
HETATM   45  C   UNL     1      14.194  -3.040   4.677  1.00  0.00     0.014 C 
HETATM   46  C   UNL     1      14.054  -2.329   6.028  1.00  0.00     0.012 C 
BRANCH  45  47
HETATM   47  C   UNL     1      13.890  -4.541   4.849  1.00  0.00     0.002 C 
HETATM   48  C   UNL     1      12.410  -4.843   5.026  1.00  0.00     0.005 C 
ENDBRANCH  45  47
ENDBRANCH  15  45
TORSDOF 9
ENDMDL
MODEL 10
REMARK VINA RESULT:   -10.091      1.475      6.450
REMARK INTER + INTRA:          -6.558
REMARK INTER:                 -10.009
REMARK INTRA:                   3.451
REMARK UNBOUND:                 8.843
REMARK  9 active torsions:
REMARK  status: ('A' for Active; 'I' for Inactive)
REMARK    1  A    between atoms: C_13  and  C_16 
REMARK    2  A    between atoms: C_14  and  C_17 
REMARK    3  A    between atoms: C_15  and  C_18 
REMARK    4  A    between atoms: C_16  and  C_22 
REMARK    5  A    between atoms: C_17  and  C_23 
REMARK    6  A    between atoms: C_18  and  C_24 
REMARK    7  A    between atoms: C_19  and  C_25 
REMARK    8  A    between atoms: C_20  and  C_26 
REMARK    9  A    between atoms: C_21  and  C_27 
ROOT
HETATM    1  O   UNL     1      11.814  -6.137  -1.355  1.00  0.00    -0.304 OA
HETATM    2  O   UNL     1       9.649  -1.549  -1.545  1.00  0.00    -0.304 OA
HETATM    3  O   UNL     1      12.787  -3.511   1.579  1.00  0.00    -0.304 OA
HETATM    4  O   UNL     1      10.681  -4.565  -3.078  1.00  0.00    -0.270 OA
HETATM    5  O   UNL     1      14.175  -5.912   3.628  1.00  0.00    -0.270 OA
HETATM    6  O   UNL     1      12.178  -2.232  -1.270  1.00  0.00    -0.270 OA
HETATM    7  O   UNL     1      12.000  -7.783   0.250  1.00  0.00    -0.263 OA
HETATM    8  O   UNL     1       8.880  -2.960   0.113  1.00  0.00    -0.263 OA
HETATM    9  O   UNL     1      14.888  -3.123   2.433  1.00  0.00    -0.263 OA
HETATM   10  N   UNL     1       8.645  -4.803  -1.991  1.00  0.00    -0.340 N 
HETATM   11  N   UNL     1      14.145  -6.400   1.360  1.00  0.00    -0.340 N 
HETATM   12  N   UNL     1      12.563  -1.028   0.676  1.00  0.00    -0.340 N 
HETATM   13  C   UNL     1       8.319  -3.381  -2.220  1.00  0.00     0.190 C 
HETATM   14  C   UNL     1      13.735  -6.084  -0.024  1.00  0.00     0.190 C 
HETATM   15  C   UNL     1      13.933  -1.576   0.817  1.00  0.00     0.190 C 
HETATM   16  C   UNL     1      10.458  -6.499  -1.693  1.00  0.00     0.227 C 
HETATM   17  C   UNL     1      10.403  -0.777  -0.589  1.00  0.00     0.227 C 
HETATM   18  C   UNL     1      12.547  -4.702   2.336  1.00  0.00     0.227 C 
HETATM   19  C   UNL     1       9.937  -5.223  -2.340  1.00  0.00     0.250 C 
HETATM   20  C   UNL     1      13.705  -5.710   2.501  1.00  0.00     0.250 C 
HETATM   21  C   UNL     1      11.787  -1.415  -0.427  1.00  0.00     0.250 C 
HETATM   22  C   UNL     1      12.428  -6.796  -0.331  1.00  0.00     0.283 C 
HETATM   23  C   UNL     1       8.962  -2.629  -1.063  1.00  0.00     0.283 C 
HETATM   24  C   UNL     1      13.933  -2.793   1.742  1.00  0.00     0.283 C 
HETATM   25  C   UNL     1       7.675  -5.651  -1.295  1.00  0.00     0.153 C 
HETATM   26  C   UNL     1      15.075  -7.513   1.554  1.00  0.00     0.153 C 
HETATM   27  C   UNL     1      12.091  -0.164   1.763  1.00  0.00     0.153 C 
ENDROOT
BRANCH  16  28
HETATM   28  C   UNL     1      10.452  -7.647  -2.685  1.00  0.00     0.016 C 
HETATM   29  C   UNL     1       9.323  -8.626  -2.371  1.00  0.00     0.012 C 
HETATM   30  C   UNL     1      11.800  -8.366  -2.686  1.00  0.00     0.012 C 
ENDBRANCH  16  28
BRANCH  14  31
HETATM   31  C   UNL     1      14.774  -6.410  -1.096  1.00  0.00     0.014 C 
HETATM   32  C   UNL     1      14.515  -7.810  -1.657  1.00  0.00     0.012 C 
BRANCH  31  33
HETATM   33  C   UNL     1      14.776  -5.381  -2.240  1.00  0.00     0.002 C 
HETATM   34  C   UNL     1      15.061  -3.959  -1.780  1.00  0.00     0.005 C 
ENDBRANCH  31  33
ENDBRANCH  14  31
BRANCH  13  35
HETATM   35  C   UNL     1       6.841  -3.028  -2.307  1.00  0.00     0.014 C 
HETATM   36  C   UNL     1       6.000  -4.308  -2.312  1.00  0.00     0.012 C 
BRANCH  35  37
HETATM   37  C   UNL     1       6.386  -2.113  -1.156  1.00  0.00     0.002 C 
HETATM   38  C   UNL     1       6.185  -0.662  -1.576  1.00  0.00     0.005 C 
ENDBRANCH  35  37
ENDBRANCH  13  35
BRANCH  18  39
HETATM   39  C   UNL     1      11.975  -4.280   3.690  1.00  0.00     0.016 C 
HETATM   40  C   UNL     1      11.262  -2.934   3.576  1.00  0.00     0.012 C 
HETATM   41  C   UNL     1      11.024  -5.348   4.227  1.00  0.00     0.012 C 
ENDBRANCH  18  39
BRANCH  17  42
HETATM   42  C   UNL     1      10.537   0.629  -1.158  1.00  0.00     0.016 C 
HETATM   43  C   UNL     1       9.561   1.584  -0.472  1.00  0.00     0.012 C 
HETATM   44  C   UNL     1      10.307   0.624  -2.669  1.00  0.00     0.012 C 
ENDBRANCH  17  42
BRANCH  15  45
HETATM   45  C   UNL     1      14.959  -0.536   1.261  1.00  0.00     0.014 C 
HETATM   46  C   UNL     1      15.066   0.577   0.212  1.00  0.00     0.012 C 
BRANCH  45  47
HETATM   47  C   UNL     1      14.624   0.079   2.634  1.00  0.00     0.002 C 
HETATM   48  C   UNL     1      15.062   1.529   2.772  1.00  0.00     0.005 C 
ENDBRANCH  45  47
ENDBRANCH  15  45
TORSDOF 9
ENDMDL
MODEL 11
REMARK VINA RESULT:    -9.943      1.632      6.715
REMARK INTER + INTRA:          -6.332
REMARK INTER:                 -10.072
REMARK INTRA:                   3.740
REMARK UNBOUND:                 8.843
REMARK  9 active torsions:
REMARK  status: ('A' for Active; 'I' for Inactive)
REMARK    1  A    between atoms: C_13  and  C_16 
REMARK    2  A    between atoms: C_14  and  C_17 
REMARK    3  A    between atoms: C_15  and  C_18 
REMARK    4  A    between atoms: C_16  and  C_22 
REMARK    5  A    between atoms: C_17  and  C_23 
REMARK    6  A    between atoms: C_18  and  C_24 
REMARK    7  A    between atoms: C_19  and  C_25 
REMARK    8  A    between atoms: C_20  and  C_26 
REMARK    9  A    between atoms: C_21  and  C_27 
ROOT
HETATM    1  O   UNL     1      11.500  -6.272  -1.352  1.00  0.00    -0.304 OA
HETATM    2  O   UNL     1       7.897  -2.701  -1.558  1.00  0.00    -0.304 OA
HETATM    3  O   UNL     1      11.560  -3.418   1.529  1.00  0.00    -0.304 OA
HETATM    4  O   UNL     1       9.875  -5.212  -3.073  1.00  0.00    -0.270 OA
HETATM    5  O   UNL     1      13.712  -5.164   3.580  1.00  0.00    -0.270 OA
HETATM    6  O   UNL     1      10.512  -2.476  -1.323  1.00  0.00    -0.270 OA
HETATM    7  O   UNL     1      12.259  -7.726   0.269  1.00  0.00    -0.263 OA
HETATM    8  O   UNL     1       7.679  -4.258   0.132  1.00  0.00    -0.263 OA
HETATM    9  O   UNL     1      13.414  -2.322   2.337  1.00  0.00    -0.263 OA
HETATM   10  N   UNL     1       8.057  -6.110  -1.944  1.00  0.00    -0.340 N 
HETATM   11  N   UNL     1      13.819  -5.675   1.320  1.00  0.00    -0.340 N 
HETATM   12  N   UNL     1      10.490  -1.177   0.599  1.00  0.00    -0.340 N 
HETATM   13  C   UNL     1       7.263  -4.889  -2.184  1.00  0.00     0.190 C 
HETATM   14  C   UNL     1      13.306  -5.542  -0.060  1.00  0.00     0.190 C 
HETATM   15  C   UNL     1      11.966  -1.223   0.721  1.00  0.00     0.190 C 
HETATM   16  C   UNL     1      10.344  -7.080  -1.659  1.00  0.00     0.227 C 
HETATM   17  C   UNL     1       8.356  -1.701  -0.627  1.00  0.00     0.227 C 
HETATM   18  C   UNL     1      11.751  -4.605   2.305  1.00  0.00     0.227 C 
HETATM   19  C   UNL     1       9.410  -6.070  -2.313  1.00  0.00     0.250 C 
HETATM   20  C   UNL     1      13.186  -5.155   2.461  1.00  0.00     0.250 C 
HETATM   21  C   UNL     1       9.878  -1.826  -0.484  1.00  0.00     0.250 C 
HETATM   22  C   UNL     1      12.316  -6.663  -0.333  1.00  0.00     0.283 C 
HETATM   23  C   UNL     1       7.627  -3.941  -1.049  1.00  0.00     0.283 C 
HETATM   24  C   UNL     1      12.395  -2.350   1.660  1.00  0.00     0.283 C 
HETATM   25  C   UNL     1       7.444  -7.224  -1.218  1.00  0.00     0.153 C 
HETATM   26  C   UNL     1      15.075  -6.400   1.509  1.00  0.00     0.153 C 
HETATM   27  C   UNL     1       9.767  -0.506   1.684  1.00  0.00     0.153 C 
ENDROOT
BRANCH  16  28
HETATM   28  C   UNL     1      10.716  -8.180  -2.637  1.00  0.00     0.016 C 
HETATM   29  C   UNL     1       9.544  -9.138  -2.843  1.00  0.00     0.012 C 
HETATM   30  C   UNL     1      11.949  -8.939  -2.152  1.00  0.00     0.012 C 
ENDBRANCH  16  28
BRANCH  14  31
HETATM   31  C   UNL     1      14.378  -5.515  -1.148  1.00  0.00     0.014 C 
HETATM   32  C   UNL     1      13.791  -6.026  -2.465  1.00  0.00     0.012 C 
BRANCH  31  33
HETATM   33  C   UNL     1      14.971  -4.109  -1.350  1.00  0.00     0.002 C 
HETATM   34  C   UNL     1      13.923  -3.006  -1.385  1.00  0.00     0.005 C 
ENDBRANCH  31  33
ENDBRANCH  14  31
BRANCH  13  35
HETATM   35  C   UNL     1       5.751  -5.062  -2.247  1.00  0.00     0.014 C 
HETATM   36  C   UNL     1       5.389  -6.062  -3.348  1.00  0.00     0.012 C 
BRANCH  35  37
HETATM   37  C   UNL     1       5.157  -5.527  -0.906  1.00  0.00     0.002 C 
HETATM   38  C   UNL     1       3.639  -5.652  -0.924  1.00  0.00     0.005 C 
ENDBRANCH  35  37
ENDBRANCH  13  35
BRANCH  18  39
HETATM   39  C   UNL     1      11.088  -4.378   3.665  1.00  0.00     0.016 C 
HETATM   40  C   UNL     1      10.281  -3.083   3.659  1.00  0.00     0.012 C 
HETATM   41  C   UNL     1      10.198  -5.564   4.032  1.00  0.00     0.012 C 
ENDBRANCH  18  39
BRANCH  17  42
HETATM   42  C   UNL     1       7.995  -0.344  -1.215  1.00  0.00     0.016 C 
HETATM   43  C   UNL     1       9.252   0.409  -1.650  1.00  0.00     0.012 C 
HETATM   44  C   UNL     1       7.196   0.485  -0.211  1.00  0.00     0.012 C 
ENDBRANCH  17  42
BRANCH  15  45
HETATM   45  C   UNL     1      12.583   0.113   1.131  1.00  0.00     0.014 C 
HETATM   46  C   UNL     1      14.107   0.055   0.982  1.00  0.00     0.012 C 
BRANCH  45  47
HETATM   47  C   UNL     1      12.028   1.297   0.316  1.00  0.00     0.002 C 
HETATM   48  C   UNL     1      11.794   2.549   1.148  1.00  0.00     0.005 C 
ENDBRANCH  45  47
ENDBRANCH  15  45
TORSDOF 9
ENDMDL
MODEL 12
REMARK VINA RESULT:    -9.881      2.230      6.438
REMARK INTER + INTRA:          -6.237
REMARK INTER:                  -8.555
REMARK INTRA:                   2.318
REMARK UNBOUND:                 8.843
REMARK  9 active torsions:
REMARK  status: ('A' for Active; 'I' for Inactive)
REMARK    1  A    between atoms: C_13  and  C_16 
REMARK    2  A    between atoms: C_14  and  C_17 
REMARK    3  A    between atoms: C_15  and  C_18 
REMARK    4  A    between atoms: C_16  and  C_22 
REMARK    5  A    between atoms: C_17  and  C_23 
REMARK    6  A    between atoms: C_18  and  C_24 
REMARK    7  A    between atoms: C_19  and  C_25 
REMARK    8  A    between atoms: C_20  and  C_26 
REMARK    9  A    between atoms: C_21  and  C_27 
ROOT
HETATM    1  O   UNL     1      10.343  -4.612   1.729  1.00  0.00    -0.304 OA
HETATM    2  O   UNL     1      10.834   0.183   3.319  1.00  0.00    -0.304 OA
HETATM    3  O   UNL     1       9.465  -1.683  -0.935  1.00  0.00    -0.304 OA
HETATM    4  O   UNL     1      10.403  -3.271   3.947  1.00  0.00    -0.270 OA
HETATM    5  O   UNL     1       9.522  -3.788  -3.665  1.00  0.00    -0.270 OA
HETATM    6  O   UNL     1       8.825  -1.016   2.109  1.00  0.00    -0.270 OA
HETATM    7  O   UNL     1      11.133  -5.819  -0.071  1.00  0.00    -0.263 OA
HETATM    8  O   UNL     1      12.434  -0.554   1.827  1.00  0.00    -0.263 OA
HETATM    9  O   UNL     1       7.675  -1.631  -2.380  1.00  0.00    -0.263 OA
HETATM   10  N   UNL     1      12.631  -2.732   3.588  1.00  0.00    -0.340 N 
HETATM   11  N   UNL     1       9.066  -4.783  -1.621  1.00  0.00    -0.340 N 
HETATM   12  N   UNL     1       8.646   0.487   0.350  1.00  0.00    -0.340 N 
HETATM   13  C   UNL     1      12.422  -1.371   4.122  1.00  0.00     0.190 C 
HETATM   14  C   UNL     1       8.953  -4.717  -0.149  1.00  0.00     0.190 C 
HETATM   15  C   UNL     1       7.611  -0.331  -0.325  1.00  0.00     0.190 C 
HETATM   16  C   UNL     1      11.593  -4.699   2.446  1.00  0.00     0.227 C 
HETATM   17  C   UNL     1      10.177   0.952   2.292  1.00  0.00     0.227 C 
HETATM   18  C   UNL     1      10.265  -2.560  -1.735  1.00  0.00     0.227 C 
HETATM   19  C   UNL     1      11.489  -3.528   3.414  1.00  0.00     0.250 C 
HETATM   20  C   UNL     1       9.571  -3.752  -2.430  1.00  0.00     0.250 C 
HETATM   21  C   UNL     1       9.162   0.050   1.579  1.00  0.00     0.250 C 
HETATM   22  C   UNL     1      10.276  -5.137   0.472  1.00  0.00     0.283 C 
HETATM   23  C   UNL     1      11.928  -0.546   2.942  1.00  0.00     0.283 C 
HETATM   24  C   UNL     1       8.247  -1.252  -1.366  1.00  0.00     0.283 C 
HETATM   25  C   UNL     1      13.970  -3.121   3.141  1.00  0.00     0.153 C 
HETATM   26  C   UNL     1       8.621  -6.010  -2.280  1.00  0.00     0.153 C 
HETATM   27  C   UNL     1       9.112   1.675  -0.372  1.00  0.00     0.153 C 
ENDROOT
BRANCH  16  28
HETATM   28  C   UNL     1      11.676  -6.014   3.200  1.00  0.00     0.016 C 
HETATM   29  C   UNL     1      10.327  -6.363   3.825  1.00  0.00     0.012 C 
HETATM   30  C   UNL     1      12.763  -5.953   4.271  1.00  0.00     0.012 C 
ENDBRANCH  16  28
BRANCH  14  31
HETATM   31  C   UNL     1       7.811  -5.536   0.449  1.00  0.00     0.014 C 
HETATM   32  C   UNL     1       6.601  -5.498  -0.488  1.00  0.00     0.012 C 
BRANCH  31  33
HETATM   33  C   UNL     1       8.217  -6.996   0.719  1.00  0.00     0.002 C 
HETATM   34  C   UNL     1       7.124  -7.818   1.387  1.00  0.00     0.005 C 
ENDBRANCH  31  33
ENDBRANCH  14  31
BRANCH  13  35
HETATM   35  C   UNL     1      13.631  -0.696   4.754  1.00  0.00     0.014 C 
HETATM   36  C   UNL     1      13.432   0.823   4.761  1.00  0.00     0.012 C 
BRANCH  35  37
HETATM   37  C   UNL     1      13.902  -1.191   6.185  1.00  0.00     0.002 C 
HETATM   38  C   UNL     1      13.813  -0.093   7.236  1.00  0.00     0.005 C 
ENDBRANCH  35  37
ENDBRANCH  13  35
BRANCH  18  39
HETATM   39  C   UNL     1      11.032  -1.697  -2.739  1.00  0.00     0.016 C 
HETATM   40  C   UNL     1      10.371  -0.329  -2.886  1.00  0.00     0.012 C 
HETATM   41  C   UNL     1      12.491  -1.545  -2.310  1.00  0.00     0.012 C 
ENDBRANCH  18  39
BRANCH  17  42
HETATM   42  C   UNL     1       9.460   2.102   2.985  1.00  0.00     0.016 C 
HETATM   43  C   UNL     1      10.172   3.426   2.710  1.00  0.00     0.012 C 
HETATM   44  C   UNL     1       9.363   1.850   4.489  1.00  0.00     0.012 C 
ENDBRANCH  17  42
BRANCH  15  45
HETATM   45  C   UNL     1       6.480   0.499  -0.929  1.00  0.00     0.014 C 
HETATM   46  C   UNL     1       5.127  -0.143  -0.602  1.00  0.00     0.012 C 
BRANCH  45  47
HETATM   47  C   UNL     1       6.491   1.960  -0.438  1.00  0.00     0.002 C 
HETATM   48  C   UNL     1       5.253   2.745  -0.845  1.00  0.00     0.005 C 
ENDBRANCH  45  47
ENDBRANCH  15  45
TORSDOF 9
ENDMDL
MODEL 13
REMARK VINA RESULT:    -9.498      1.994      7.205
REMARK INTER + INTRA:          -5.653
REMARK INTER:                  -8.959
REMARK INTRA:                   3.306
REMARK UNBOUND:                 8.843
REMARK  9 active torsions:
REMARK  status: ('A' for Active; 'I' for Inactive)
REMARK    1  A    between atoms: C_13  and  C_16 
REMARK    2  A    between atoms: C_14  and  C_17 
REMARK    3  A    between atoms: C_15  and  C_18 
REMARK    4  A    between atoms: C_16  and  C_22 
REMARK    5  A    between atoms: C_17  and  C_23 
REMARK    6  A    between atoms: C_18  and  C_24 
REMARK    7  A    between atoms: C_19  and  C_25 
REMARK    8  A    between atoms: C_20  and  C_26 
REMARK    9  A    between atoms: C_21  and  C_27 
ROOT
HETATM    1  O   UNL     1      13.339  -2.662   3.006  1.00  0.00    -0.304 OA
HETATM    2  O   UNL     1      10.006  -3.530  -0.723  1.00  0.00    -0.304 OA
HETATM    3  O   UNL     1       9.989  -0.378   2.955  1.00  0.00    -0.304 OA
HETATM    4  O   UNL     1      13.267  -3.712   0.637  1.00  0.00    -0.270 OA
HETATM    5  O   UNL     1      10.405   0.769   6.180  1.00  0.00    -0.270 OA
HETATM    6  O   UNL     1      11.089  -1.277   0.108  1.00  0.00    -0.270 OA
HETATM    7  O   UNL     1      13.214  -2.546   5.306  1.00  0.00    -0.263 OA
HETATM    8  O   UNL     1       9.371  -4.234   1.382  1.00  0.00    -0.263 OA
HETATM    9  O   UNL     1       9.867   1.890   3.322  1.00  0.00    -0.263 OA
HETATM   10  N   UNL     1      11.912  -5.428   1.414  1.00  0.00    -0.340 N 
HETATM   11  N   UNL     1      12.331   0.084   5.084  1.00  0.00    -0.340 N 
HETATM   12  N   UNL     1       9.095  -0.147   0.470  1.00  0.00    -0.340 N 
HETATM   13  C   UNL     1      11.122  -5.414   0.166  1.00  0.00     0.190 C 
HETATM   14  C   UNL     1      13.007  -0.539   3.927  1.00  0.00     0.190 C 
HETATM   15  C   UNL     1       9.792   1.025   1.049  1.00  0.00     0.190 C 
HETATM   16  C   UNL     1      13.329  -4.106   2.992  1.00  0.00     0.227 C 
HETATM   17  C   UNL     1       9.115  -2.399  -0.653  1.00  0.00     0.227 C 
HETATM   18  C   UNL     1      10.061  -0.740   4.338  1.00  0.00     0.227 C 
HETATM   19  C   UNL     1      12.862  -4.410   1.575  1.00  0.00     0.250 C 
HETATM   20  C   UNL     1      10.940   0.119   5.273  1.00  0.00     0.250 C 
HETATM   21  C   UNL     1       9.857  -1.232   0.010  1.00  0.00     0.250 C 
HETATM   22  C   UNL     1      13.199  -2.022   4.202  1.00  0.00     0.283 C 
HETATM   23  C   UNL     1      10.058  -4.344   0.375  1.00  0.00     0.283 C 
HETATM   24  C   UNL     1       9.842   0.921   2.574  1.00  0.00     0.283 C 
HETATM   25  C   UNL     1      11.571  -6.397   2.458  1.00  0.00     0.153 C 
HETATM   26  C   UNL     1      13.174   0.708   6.105  1.00  0.00     0.153 C 
HETATM   27  C   UNL     1       7.629  -0.109   0.489  1.00  0.00     0.153 C 
ENDROOT
BRANCH  16  28
HETATM   28  C   UNL     1      14.729  -4.644   3.224  1.00  0.00     0.016 C 
HETATM   29  C   UNL     1      15.075  -5.711   2.187  1.00  0.00     0.012 C 
HETATM   30  C   UNL     1      14.863  -5.209   4.637  1.00  0.00     0.012 C 
ENDBRANCH  16  28
BRANCH  14  31
HETATM   31  C   UNL     1      14.340   0.098   3.537  1.00  0.00     0.014 C 
HETATM   32  C   UNL     1      15.059  -0.789   2.518  1.00  0.00     0.012 C 
BRANCH  31  33
HETATM   33  C   UNL     1      14.166   1.515   2.965  1.00  0.00     0.002 C 
HETATM   34  C   UNL     1      14.188   1.565   1.444  1.00  0.00     0.005 C 
ENDBRANCH  31  33
ENDBRANCH  14  31
BRANCH  13  35
HETATM   35  C   UNL     1      10.462  -6.725  -0.237  1.00  0.00     0.014 C 
HETATM   36  C   UNL     1       9.106  -6.444  -0.891  1.00  0.00     0.012 C 
BRANCH  35  37
HETATM   37  C   UNL     1      11.337  -7.556  -1.191  1.00  0.00     0.002 C 
HETATM   38  C   UNL     1      10.536  -8.380  -2.191  1.00  0.00     0.005 C 
ENDBRANCH  35  37
ENDBRANCH  13  35
BRANCH  18  39
HETATM   39  C   UNL     1       8.628  -0.848   4.862  1.00  0.00     0.016 C 
HETATM   40  C   UNL     1       8.536  -0.310   6.287  1.00  0.00     0.012 C 
HETATM   41  C   UNL     1       7.663  -0.102   3.942  1.00  0.00     0.012 C 
ENDBRANCH  18  39
BRANCH  17  42
HETATM   42  C   UNL     1       8.742  -2.037  -2.084  1.00  0.00     0.016 C 
HETATM   43  C   UNL     1       7.265  -2.329  -2.347  1.00  0.00     0.012 C 
HETATM   44  C   UNL     1       9.621  -2.792  -3.079  1.00  0.00     0.012 C 
ENDBRANCH  17  42
BRANCH  15  45
HETATM   45  C   UNL     1       9.209   2.363   0.598  1.00  0.00     0.014 C 
HETATM   46  C   UNL     1      10.169   3.501   0.959  1.00  0.00     0.012 C 
BRANCH  45  47
HETATM   47  C   UNL     1       8.909   2.398  -0.913  1.00  0.00     0.002 C 
HETATM   48  C   UNL     1       9.323   3.700  -1.582  1.00  0.00     0.005 C 
ENDBRANCH  45  47
ENDBRANCH  15  45
TORSDOF 9
ENDMDL
MODEL 14
REMARK VINA RESULT:    -9.434      2.004      7.147
REMARK INTER + INTRA:          -5.555
REMARK INTER:                  -8.931
REMARK INTRA:                   3.376
REMARK UNBOUND:                 8.843
REMARK  9 active torsions:
REMARK  status: ('A' for Active; 'I' for Inactive)
REMARK    1  A    between atoms: C_13  and  C_16 
REMARK    2  A    between atoms: C_14  and  C_17 
REMARK    3  A    between atoms: C_15  and  C_18 
REMARK    4  A    between atoms: C_16  and  C_22 
REMARK    5  A    between atoms: C_17  and  C_23 
REMARK    6  A    between atoms: C_18  and  C_24 
REMARK    7  A    between atoms: C_19  and  C_25 
REMARK    8  A    between atoms: C_20  and  C_26 
REMARK    9  A    between atoms: C_21  and  C_27 
ROOT
HETATM    1  O   UNL     1      13.652  -2.763   0.825  1.00  0.00    -0.304 OA
HETATM    2  O   UNL     1       9.006  -3.242  -1.162  1.00  0.00    -0.304 OA
HETATM    3  O   UNL     1      10.787  -0.243   2.198  1.00  0.00    -0.304 OA
HETATM    4  O   UNL     1      12.509  -3.712  -1.299  1.00  0.00    -0.270 OA
HETATM    5  O   UNL     1      12.607   0.745   4.954  1.00  0.00    -0.270 OA
HETATM    6  O   UNL     1      10.517  -1.107  -0.852  1.00  0.00    -0.270 OA
HETATM    7  O   UNL     1      14.511  -2.727   2.966  1.00  0.00    -0.263 OA
HETATM    8  O   UNL     1       9.255  -3.980   1.012  1.00  0.00    -0.263 OA
HETATM    9  O   UNL     1      11.015   2.013   2.593  1.00  0.00    -0.263 OA
HETATM   10  N   UNL     1      11.468  -5.355  -0.034  1.00  0.00    -0.340 N 
HETATM   11  N   UNL     1      13.835  -0.033   3.148  1.00  0.00    -0.340 N 
HETATM   12  N   UNL     1       8.957   0.149   0.319  1.00  0.00    -0.340 N 
HETATM   13  C   UNL     1      10.233  -5.235  -0.834  1.00  0.00     0.190 C 
HETATM   14  C   UNL     1      13.911  -0.658   1.811  1.00  0.00     0.190 C 
HETATM   15  C   UNL     1       9.926   1.244   0.558  1.00  0.00     0.190 C 
HETATM   16  C   UNL     1      13.519  -4.200   0.810  1.00  0.00     0.227 C 
HETATM   17  C   UNL     1       8.322  -2.053  -0.719  1.00  0.00     0.227 C 
HETATM   18  C   UNL     1      11.402  -0.661   3.420  1.00  0.00     0.227 C 
HETATM   19  C   UNL     1      12.479  -4.414  -0.281  1.00  0.00     0.250 C 
HETATM   20  C   UNL     1      12.658   0.095   3.904  1.00  0.00     0.250 C 
HETATM   21  C   UNL     1       9.365  -0.970  -0.423  1.00  0.00     0.250 C 
HETATM   22  C   UNL     1      14.079  -2.161   1.972  1.00  0.00     0.283 C 
HETATM   23  C   UNL     1       9.445  -4.100  -0.192  1.00  0.00     0.283 C 
HETATM   24  C   UNL     1      10.601   1.078   1.920  1.00  0.00     0.283 C 
HETATM   25  C   UNL     1      11.518  -6.336   1.052  1.00  0.00     0.153 C 
HETATM   26  C   UNL     1      15.075   0.488   3.723  1.00  0.00     0.153 C 
HETATM   27  C   UNL     1       7.643   0.291   0.953  1.00  0.00     0.153 C 
ENDROOT
BRANCH  16  28
HETATM   28  C   UNL     1      14.839  -4.847   0.429  1.00  0.00     0.016 C 
HETATM   29  C   UNL     1      14.873  -5.162  -1.065  1.00  0.00     0.012 C 
HETATM   30  C   UNL     1      15.075  -6.114   1.249  1.00  0.00     0.012 C 
ENDBRANCH  16  28
BRANCH  14  31
HETATM   31  C   UNL     1      15.005  -0.105   0.900  1.00  0.00     0.014 C 
HETATM   32  C   UNL     1      14.861  -0.700  -0.503  1.00  0.00     0.012 C 
BRANCH  31  33
HETATM   33  C   UNL     1      14.979   1.432   0.820  1.00  0.00     0.002 C 
HETATM   34  C   UNL     1      13.686   1.990   0.243  1.00  0.00     0.005 C 
ENDBRANCH  31  33
ENDBRANCH  14  31
BRANCH  13  35
HETATM   35  C   UNL     1       9.360  -6.479  -0.928  1.00  0.00     0.014 C 
HETATM   36  C   UNL     1       7.887  -6.091  -0.775  1.00  0.00     0.012 C 
BRANCH  35  37
HETATM   37  C   UNL     1       9.563  -7.241  -2.249  1.00  0.00     0.002 C 
HETATM   38  C   UNL     1      11.022  -7.555  -2.552  1.00  0.00     0.005 C 
ENDBRANCH  35  37
ENDBRANCH  13  35
BRANCH  18  39
HETATM   39  C   UNL     1      10.316  -0.687   4.497  1.00  0.00     0.016 C 
HETATM   40  C   UNL     1      10.462   0.509   5.435  1.00  0.00     0.012 C 
HETATM   41  C   UNL     1       8.928  -0.703   3.859  1.00  0.00     0.012 C 
ENDBRANCH  18  39
BRANCH  17  42
HETATM   42  C   UNL     1       7.415  -1.610  -1.858  1.00  0.00     0.016 C 
HETATM   43  C   UNL     1       6.203  -0.851  -1.320  1.00  0.00     0.012 C 
HETATM   44  C   UNL     1       6.966  -2.811  -2.690  1.00  0.00     0.012 C 
ENDBRANCH  17  42
BRANCH  15  45
HETATM   45  C   UNL     1       9.319   2.637   0.400  1.00  0.00     0.014 C 
HETATM   46  C   UNL     1      10.433   3.680   0.256  1.00  0.00     0.012 C 
BRANCH  45  47
HETATM   47  C   UNL     1       8.362   2.733  -0.803  1.00  0.00     0.002 C 
HETATM   48  C   UNL     1       7.177   3.656  -0.563  1.00  0.00     0.005 C 
ENDBRANCH  45  47
ENDBRANCH  15  45
TORSDOF 9
ENDMDL
