MODEL 1
REMARK VINA RESULT:    -8.610      0.000      0.000
REMARK INTER + INTRA:         -10.927
REMARK INTER:                 -11.575
REMARK INTRA:                   0.648
REMARK UNBOUND:                -0.052
REMARK  5 active torsions:
REMARK  status: ('A' for Active; 'I' for Inactive)
REMARK    1  A    between atoms: C_2  and  C_3 
REMARK    2  A    between atoms: C_2  and  C_6 
REMARK    3  A    between atoms: C_2  and  C_13 
REMARK    4  A    between atoms: C_3  and  C_4 
REMARK    5  A    between atoms: C_14  and  O_23 
ROOT
HETATM    1  C   UNL     1      10.906   2.122 -13.223  1.00  0.00     0.032 A 
HETATM    2  C   UNL     1       9.283   3.787 -14.700  1.00  0.00     0.298 A 
HETATM    3  C   UNL     1       9.112   2.402 -14.843  1.00  0.00     0.060 A 
HETATM    4  C   UNL     1       9.900   1.545 -14.128  1.00  0.00     0.091 A 
HETATM    5  C   UNL     1      11.746   1.305 -12.464  1.00  0.00     0.017 A 
HETATM    6  C   UNL     1      12.677   1.877 -11.627  1.00  0.00     0.001 A 
HETATM    7  C   UNL     1      12.783   3.258 -11.536  1.00  0.00     0.003 A 
HETATM    8  C   UNL     1      11.960   4.075 -12.280  1.00  0.00     0.038 A 
HETATM    9  C   UNL     1      11.014   3.518 -13.131  1.00  0.00     0.092 A 
HETATM   10  O   UNL     1      10.201   4.305 -13.868  1.00  0.00    -0.274 OA
HETATM   11  O   UNL     1       8.574   4.542 -15.342  1.00  0.00    -0.259 OA
ENDROOT
BRANCH   4  12
HETATM   12  O   UNL     1       9.760   0.205 -14.249  1.00  0.00    -0.359 OA
HETATM   13  H   UNL     1       9.668   0.017 -15.192  1.00  0.00     0.217 HD
ENDBRANCH   4  12
BRANCH   3  14
HETATM   14  C   UNL     1       8.066   1.862 -15.783  1.00  0.00     0.067 C 
BRANCH  14  15
HETATM   15  C   UNL     1       7.965   2.771 -17.009  1.00  0.00     0.092 C 
BRANCH  15  16
HETATM   16  C   UNL     1       6.994   2.178 -17.997  1.00  0.00     0.124 C 
HETATM   17  C   UNL     1       5.743   2.931 -18.370  1.00  0.00     0.091 C 
HETATM   18  O   UNL     1       7.217   1.099 -18.489  1.00  0.00    -0.298 OA
ENDBRANCH  15  16
ENDBRANCH  14  15
BRANCH  14  19
HETATM   19  C   UNL     1       6.735   1.816 -15.082  1.00  0.00    -0.049 A 
HETATM   20  C   UNL     1       6.215   2.962 -14.508  1.00  0.00     0.008 A 
HETATM   21  C   UNL     1       4.993   2.920 -13.864  1.00  0.00     0.001 A 
HETATM   22  C   UNL     1       4.290   1.732 -13.794  1.00  0.00     0.000 A 
HETATM   23  C   UNL     1       4.809   0.588 -14.367  1.00  0.00     0.001 A 
HETATM   24  C   UNL     1       6.029   0.631 -15.016  1.00  0.00     0.008 A 
ENDBRANCH  14  19
ENDBRANCH   3  14
TORSDOF 5
ENDMDL
MODEL 2
REMARK VINA RESULT:    -7.952      1.334      3.107
REMARK INTER + INTRA:         -10.096
REMARK INTER:                 -10.802
REMARK INTRA:                   0.706
REMARK UNBOUND:                -0.052
REMARK  5 active torsions:
REMARK  status: ('A' for Active; 'I' for Inactive)
REMARK    1  A    between atoms: C_2  and  C_3 
REMARK    2  A    between atoms: C_2  and  C_6 
REMARK    3  A    between atoms: C_2  and  C_13 
REMARK    4  A    between atoms: C_3  and  C_4 
REMARK    5  A    between atoms: C_14  and  O_23 
ROOT
HETATM    1  C   UNL     1      10.203   2.361 -13.781  1.00  0.00     0.032 A 
HETATM    2  C   UNL     1       8.104   4.115 -14.105  1.00  0.00     0.298 A 
HETATM    3  C   UNL     1       7.962   2.816 -14.614  1.00  0.00     0.060 A 
HETATM    4  C   UNL     1       8.984   1.918 -14.474  1.00  0.00     0.091 A 
HETATM    5  C   UNL     1      11.286   1.497 -13.605  1.00  0.00     0.017 A 
HETATM    6  C   UNL     1      12.413   1.943 -12.953  1.00  0.00     0.001 A 
HETATM    7  C   UNL     1      12.477   3.243 -12.473  1.00  0.00     0.003 A 
HETATM    8  C   UNL     1      11.415   4.106 -12.641  1.00  0.00     0.038 A 
HETATM    9  C   UNL     1      10.268   3.676 -13.296  1.00  0.00     0.092 A 
HETATM   10  O   UNL     1       9.220   4.509 -13.470  1.00  0.00    -0.274 OA
HETATM   11  O   UNL     1       7.187   4.906 -14.235  1.00  0.00    -0.259 OA
ENDROOT
BRANCH   4  12
HETATM   12  O   UNL     1       8.876   0.660 -14.958  1.00  0.00    -0.359 OA
HETATM   13  H   UNL     1       9.385   0.089 -14.368  1.00  0.00     0.217 HD
ENDBRANCH   4  12
BRANCH   3  14
HETATM   14  C   UNL     1       6.691   2.412 -15.315  1.00  0.00     0.067 C 
BRANCH  14  15
HETATM   15  C   UNL     1       6.350   0.965 -14.958  1.00  0.00     0.092 C 
BRANCH  15  16
HETATM   16  C   UNL     1       4.859   0.829 -14.780  1.00  0.00     0.124 C 
HETATM   17  C   UNL     1       4.215   1.244 -13.483  1.00  0.00     0.091 C 
HETATM   18  O   UNL     1       4.182   0.387 -15.676  1.00  0.00    -0.298 OA
ENDBRANCH  15  16
ENDBRANCH  14  15
BRANCH  14  19
HETATM   19  C   UNL     1       6.879   2.532 -16.804  1.00  0.00    -0.049 A 
HETATM   20  C   UNL     1       5.832   2.957 -17.601  1.00  0.00     0.008 A 
HETATM   21  C   UNL     1       6.005   3.067 -18.968  1.00  0.00     0.001 A 
HETATM   22  C   UNL     1       7.223   2.753 -19.538  1.00  0.00     0.000 A 
HETATM   23  C   UNL     1       8.269   2.329 -18.742  1.00  0.00     0.001 A 
HETATM   24  C   UNL     1       8.099   2.223 -17.374  1.00  0.00     0.008 A 
ENDBRANCH  14  19
ENDBRANCH   3  14
TORSDOF 5
ENDMDL
MODEL 3
REMARK VINA RESULT:    -7.853      0.877      2.140
REMARK INTER + INTRA:          -9.972
REMARK INTER:                 -10.307
REMARK INTRA:                   0.336
REMARK UNBOUND:                -0.052
REMARK  5 active torsions:
REMARK  status: ('A' for Active; 'I' for Inactive)
REMARK    1  A    between atoms: C_2  and  C_3 
REMARK    2  A    between atoms: C_2  and  C_6 
REMARK    3  A    between atoms: C_2  and  C_13 
REMARK    4  A    between atoms: C_3  and  C_4 
REMARK    5  A    between atoms: C_14  and  O_23 
ROOT
HETATM    1  C   UNL     1      10.763   3.043 -13.438  1.00  0.00     0.032 A 
HETATM    2  C   UNL     1       9.709   0.643 -14.285  1.00  0.00     0.298 A 
HETATM    3  C   UNL     1       9.169   1.825 -14.814  1.00  0.00     0.060 A 
HETATM    4  C   UNL     1       9.665   3.034 -14.415  1.00  0.00     0.091 A 
HETATM    5  C   UNL     1      11.316   4.243 -12.985  1.00  0.00     0.017 A 
HETATM    6  C   UNL     1      12.344   4.216 -12.069  1.00  0.00     0.001 A 
HETATM    7  C   UNL     1      12.829   3.006 -11.596  1.00  0.00     0.003 A 
HETATM    8  C   UNL     1      12.291   1.814 -12.034  1.00  0.00     0.038 A 
HETATM    9  C   UNL     1      11.254   1.819 -12.958  1.00  0.00     0.092 A 
HETATM   10  O   UNL     1      10.716   0.661 -13.396  1.00  0.00    -0.274 OA
HETATM   11  O   UNL     1       9.260  -0.429 -14.648  1.00  0.00    -0.259 OA
ENDROOT
BRANCH   4  12
HETATM   12  O   UNL     1       9.160   4.190 -14.905  1.00  0.00    -0.359 OA
HETATM   13  H   UNL     1       8.538   4.525 -14.246  1.00  0.00     0.217 HD
ENDBRANCH   4  12
BRANCH   3  14
HETATM   14  C   UNL     1       8.044   1.760 -15.813  1.00  0.00     0.067 C 
BRANCH  14  15
HETATM   15  C   UNL     1       8.147   2.946 -16.774  1.00  0.00     0.092 C 
BRANCH  15  16
HETATM   16  C   UNL     1       7.179   2.757 -17.913  1.00  0.00     0.124 C 
HETATM   17  C   UNL     1       7.264   1.526 -18.778  1.00  0.00     0.091 C 
HETATM   18  O   UNL     1       6.335   3.591 -18.133  1.00  0.00    -0.298 OA
ENDBRANCH  15  16
ENDBRANCH  14  15
BRANCH  14  19
HETATM   19  C   UNL     1       6.725   1.814 -15.089  1.00  0.00    -0.049 A 
HETATM   20  C   UNL     1       6.286   3.005 -14.539  1.00  0.00     0.008 A 
HETATM   21  C   UNL     1       5.075   3.055 -13.875  1.00  0.00     0.001 A 
HETATM   22  C   UNL     1       4.302   1.915 -13.760  1.00  0.00     0.000 A 
HETATM   23  C   UNL     1       4.741   0.726 -14.310  1.00  0.00     0.001 A 
HETATM   24  C   UNL     1       5.949   0.677 -14.979  1.00  0.00     0.008 A 
ENDBRANCH  14  19
ENDBRANCH   3  14
TORSDOF 5
ENDMDL
MODEL 4
REMARK VINA RESULT:    -7.443      1.564      3.760
REMARK INTER + INTRA:          -9.453
REMARK INTER:                 -10.112
REMARK INTRA:                   0.659
REMARK UNBOUND:                -0.052
REMARK  5 active torsions:
REMARK  status: ('A' for Active; 'I' for Inactive)
REMARK    1  A    between atoms: C_2  and  C_3 
REMARK    2  A    between atoms: C_2  and  C_6 
REMARK    3  A    between atoms: C_2  and  C_13 
REMARK    4  A    between atoms: C_3  and  C_4 
REMARK    5  A    between atoms: C_14  and  O_23 
ROOT
HETATM    1  C   UNL     1       9.343   3.371 -13.192  1.00  0.00     0.032 A 
HETATM    2  C   UNL     1       8.730   1.117 -14.652  1.00  0.00     0.298 A 
HETATM    3  C   UNL     1       7.802   2.169 -14.641  1.00  0.00     0.060 A 
HETATM    4  C   UNL     1       8.071   3.302 -13.926  1.00  0.00     0.091 A 
HETATM    5  C   UNL     1       9.682   4.497 -12.439  1.00  0.00     0.017 A 
HETATM    6  C   UNL     1      10.881   4.529 -11.763  1.00  0.00     0.001 A 
HETATM    7  C   UNL     1      11.750   3.450 -11.827  1.00  0.00     0.003 A 
HETATM    8  C   UNL     1      11.428   2.332 -12.566  1.00  0.00     0.038 A 
HETATM    9  C   UNL     1      10.223   2.279 -13.256  1.00  0.00     0.092 A 
HETATM   10  O   UNL     1       9.891   1.191 -13.982  1.00  0.00    -0.274 OA
HETATM   11  O   UNL     1       8.479   0.112 -15.294  1.00  0.00    -0.259 OA
ENDROOT
BRANCH   4  12
HETATM   12  O   UNL     1       7.193   4.330 -13.894  1.00  0.00    -0.359 OA
HETATM   13  H   UNL     1       6.319   3.948 -13.739  1.00  0.00     0.217 HD
ENDBRANCH   4  12
BRANCH   3  14
HETATM   14  C   UNL     1       6.513   2.048 -15.411  1.00  0.00     0.067 C 
BRANCH  14  15
HETATM   15  C   UNL     1       5.896   0.671 -15.161  1.00  0.00     0.092 C 
BRANCH  15  16
HETATM   16  C   UNL     1       4.478   0.834 -14.678  1.00  0.00     0.124 C 
HETATM   17  C   UNL     1       4.182   1.712 -13.490  1.00  0.00     0.091 C 
HETATM   18  O   UNL     1       3.579   0.261 -15.243  1.00  0.00    -0.298 OA
ENDBRANCH  15  16
ENDBRANCH  14  15
BRANCH  14  19
HETATM   19  C   UNL     1       6.788   2.216 -16.881  1.00  0.00    -0.049 A 
HETATM   20  C   UNL     1       5.741   2.208 -17.786  1.00  0.00     0.008 A 
HETATM   21  C   UNL     1       5.993   2.362 -19.136  1.00  0.00     0.001 A 
HETATM   22  C   UNL     1       7.291   2.524 -19.583  1.00  0.00     0.000 A 
HETATM   23  C   UNL     1       8.336   2.532 -18.679  1.00  0.00     0.001 A 
HETATM   24  C   UNL     1       8.084   2.383 -17.328  1.00  0.00     0.008 A 
ENDBRANCH  14  19
ENDBRANCH   3  14
TORSDOF 5
ENDMDL
MODEL 5
REMARK VINA RESULT:    -7.314      2.334      6.086
REMARK INTER + INTRA:          -9.290
REMARK INTER:                  -9.254
REMARK INTRA:                  -0.036
REMARK UNBOUND:                -0.052
REMARK  5 active torsions:
REMARK  status: ('A' for Active; 'I' for Inactive)
REMARK    1  A    between atoms: C_2  and  C_3 
REMARK    2  A    between atoms: C_2  and  C_6 
REMARK    3  A    between atoms: C_2  and  C_13 
REMARK    4  A    between atoms: C_3  and  C_4 
REMARK    5  A    between atoms: C_14  and  O_23 
ROOT
HETATM    1  C   UNL     1       6.749   1.809 -18.755  1.00  0.00     0.032 A 
HETATM    2  C   UNL     1       5.975   3.642 -16.850  1.00  0.00     0.298 A 
HETATM    3  C   UNL     1       6.470   2.405 -16.413  1.00  0.00     0.060 A 
HETATM    4  C   UNL     1       6.862   1.469 -17.329  1.00  0.00     0.091 A 
HETATM    5  C   UNL     1       7.129   0.901 -19.745  1.00  0.00     0.017 A 
HETATM    6  C   UNL     1       7.010   1.250 -21.072  1.00  0.00     0.001 A 
HETATM    7  C   UNL     1       6.516   2.497 -21.426  1.00  0.00     0.003 A 
HETATM    8  C   UNL     1       6.137   3.403 -20.459  1.00  0.00     0.038 A 
HETATM    9  C   UNL     1       6.249   3.070 -19.115  1.00  0.00     0.092 A 
HETATM   10  O   UNL     1       5.881   3.945 -18.155  1.00  0.00    -0.274 OA
HETATM   11  O   UNL     1       5.630   4.468 -16.024  1.00  0.00    -0.259 OA
ENDROOT
BRANCH   4  12
HETATM   12  O   UNL     1       7.339   0.266 -16.936  1.00  0.00    -0.359 OA
HETATM   13  H   UNL     1       8.239   0.197 -17.279  1.00  0.00     0.217 HD
ENDBRANCH   4  12
BRANCH   3  14
HETATM   14  C   UNL     1       6.566   2.106 -14.939  1.00  0.00     0.067 C 
BRANCH  14  15
HETATM   15  C   UNL     1       5.215   2.378 -14.275  1.00  0.00     0.092 C 
BRANCH  15  16
HETATM   16  C   UNL     1       4.479   1.077 -14.080  1.00  0.00     0.124 C 
HETATM   17  C   UNL     1       3.938   0.330 -15.271  1.00  0.00     0.091 C 
HETATM   18  O   UNL     1       4.324   0.634 -12.968  1.00  0.00    -0.298 OA
ENDBRANCH  15  16
ENDBRANCH  14  15
BRANCH  14  19
HETATM   19  C   UNL     1       7.617   2.985 -14.316  1.00  0.00    -0.049 A 
HETATM   20  C   UNL     1       7.267   3.887 -13.327  1.00  0.00     0.008 A 
HETATM   21  C   UNL     1       8.233   4.693 -12.754  1.00  0.00     0.001 A 
HETATM   22  C   UNL     1       9.547   4.598 -13.168  1.00  0.00     0.000 A 
HETATM   23  C   UNL     1       9.897   3.697 -14.156  1.00  0.00     0.001 A 
HETATM   24  C   UNL     1       8.933   2.887 -14.725  1.00  0.00     0.008 A 
ENDBRANCH  14  19
ENDBRANCH   3  14
TORSDOF 5
ENDMDL
MODEL 6
REMARK VINA RESULT:    -6.843      2.703      6.151
REMARK INTER + INTRA:          -8.695
REMARK INTER:                  -9.866
REMARK INTRA:                   1.171
REMARK UNBOUND:                -0.052
REMARK  5 active torsions:
REMARK  status: ('A' for Active; 'I' for Inactive)
REMARK    1  A    between atoms: C_2  and  C_3 
REMARK    2  A    between atoms: C_2  and  C_6 
REMARK    3  A    between atoms: C_2  and  C_13 
REMARK    4  A    between atoms: C_3  and  C_4 
REMARK    5  A    between atoms: C_14  and  O_23 
ROOT
HETATM    1  C   UNL     1       7.813   2.619 -19.481  1.00  0.00     0.032 A 
HETATM    2  C   UNL     1       5.368   2.202 -18.281  1.00  0.00     0.298 A 
HETATM    3  C   UNL     1       6.524   1.952 -17.528  1.00  0.00     0.060 A 
HETATM    4  C   UNL     1       7.755   2.144 -18.090  1.00  0.00     0.091 A 
HETATM    5  C   UNL     1       9.036   2.835 -20.119  1.00  0.00     0.017 A 
HETATM    6  C   UNL     1       9.055   3.278 -21.422  1.00  0.00     0.001 A 
HETATM    7  C   UNL     1       7.868   3.510 -22.101  1.00  0.00     0.003 A 
HETATM    8  C   UNL     1       6.653   3.300 -21.483  1.00  0.00     0.038 A 
HETATM    9  C   UNL     1       6.612   2.852 -20.168  1.00  0.00     0.092 A 
HETATM   10  O   UNL     1       5.431   2.640 -19.549  1.00  0.00    -0.274 OA
HETATM   11  O   UNL     1       4.277   2.028 -17.769  1.00  0.00    -0.259 OA
ENDROOT
BRANCH   4  12
HETATM   12  O   UNL     1       8.887   1.906 -17.388  1.00  0.00    -0.359 OA
HETATM   13  H   UNL     1       9.392   2.729 -17.386  1.00  0.00     0.217 HD
ENDBRANCH   4  12
BRANCH   3  14
HETATM   14  C   UNL     1       6.410   1.467 -16.106  1.00  0.00     0.067 C 
BRANCH  14  15
HETATM   15  C   UNL     1       4.960   1.075 -15.816  1.00  0.00     0.092 C 
BRANCH  15  16
HETATM   16  C   UNL     1       4.768   0.923 -14.329  1.00  0.00     0.124 C 
HETATM   17  C   UNL     1       3.904   1.903 -13.577  1.00  0.00     0.091 C 
HETATM   18  O   UNL     1       5.306   0.018 -13.740  1.00  0.00    -0.298 OA
ENDBRANCH  15  16
ENDBRANCH  14  15
BRANCH  14  19
HETATM   19  C   UNL     1       6.831   2.565 -15.165  1.00  0.00    -0.049 A 
HETATM   20  C   UNL     1       7.874   2.356 -14.282  1.00  0.00     0.008 A 
HETATM   21  C   UNL     1       8.261   3.364 -13.419  1.00  0.00     0.001 A 
HETATM   22  C   UNL     1       7.606   4.580 -13.439  1.00  0.00     0.000 A 
HETATM   23  C   UNL     1       6.564   4.789 -14.322  1.00  0.00     0.001 A 
HETATM   24  C   UNL     1       6.180   3.783 -15.188  1.00  0.00     0.008 A 
ENDBRANCH  14  19
ENDBRANCH   3  14
TORSDOF 5
ENDMDL
MODEL 7
REMARK VINA RESULT:    -6.644      2.553      6.201
REMARK INTER + INTRA:          -8.444
REMARK INTER:                  -9.812
REMARK INTRA:                   1.368
REMARK UNBOUND:                -0.052
REMARK  5 active torsions:
REMARK  status: ('A' for Active; 'I' for Inactive)
REMARK    1  A    between atoms: C_2  and  C_3 
REMARK    2  A    between atoms: C_2  and  C_6 
REMARK    3  A    between atoms: C_2  and  C_13 
REMARK    4  A    between atoms: C_3  and  C_4 
REMARK    5  A    between atoms: C_14  and  O_23 
ROOT
HETATM    1  C   UNL     1       6.590   2.764 -19.615  1.00  0.00     0.032 A 
HETATM    2  C   UNL     1       8.254   1.940 -17.581  1.00  0.00     0.298 A 
HETATM    3  C   UNL     1       6.880   2.025 -17.315  1.00  0.00     0.060 A 
HETATM    4  C   UNL     1       6.023   2.433 -18.299  1.00  0.00     0.091 A 
HETATM    5  C   UNL     1       5.773   3.189 -20.665  1.00  0.00     0.017 A 
HETATM    6  C   UNL     1       6.335   3.493 -21.885  1.00  0.00     0.001 A 
HETATM    7  C   UNL     1       7.705   3.379 -22.073  1.00  0.00     0.003 A 
HETATM    8  C   UNL     1       8.522   2.961 -21.044  1.00  0.00     0.038 A 
HETATM    9  C   UNL     1       7.975   2.650 -19.806  1.00  0.00     0.092 A 
HETATM   10  O   UNL     1       8.762   2.241 -18.788  1.00  0.00    -0.274 OA
HETATM   11  O   UNL     1       9.008   1.574 -16.697  1.00  0.00    -0.259 OA
ENDROOT
BRANCH   4  12
HETATM   12  O   UNL     1       4.693   2.528 -18.070  1.00  0.00    -0.359 OA
HETATM   13  H   UNL     1       4.305   1.681 -18.321  1.00  0.00     0.217 HD
ENDBRANCH   4  12
BRANCH   3  14
HETATM   14  C   UNL     1       6.350   1.673 -15.950  1.00  0.00     0.067 C 
BRANCH  14  15
HETATM   15  C   UNL     1       4.822   1.725 -15.966  1.00  0.00     0.092 C 
BRANCH  15  16
HETATM   16  C   UNL     1       4.272   0.672 -15.039  1.00  0.00     0.124 C 
HETATM   17  C   UNL     1       4.565   0.739 -13.563  1.00  0.00     0.091 C 
HETATM   18  O   UNL     1       3.598  -0.227 -15.480  1.00  0.00    -0.298 OA
ENDBRANCH  15  16
ENDBRANCH  14  15
BRANCH  14  19
HETATM   19  C   UNL     1       6.875   2.657 -14.938  1.00  0.00    -0.049 A 
HETATM   20  C   UNL     1       6.268   3.891 -14.794  1.00  0.00     0.008 A 
HETATM   21  C   UNL     1       6.749   4.795 -13.866  1.00  0.00     0.001 A 
HETATM   22  C   UNL     1       7.837   4.465 -13.081  1.00  0.00     0.000 A 
HETATM   23  C   UNL     1       8.444   3.232 -13.225  1.00  0.00     0.001 A 
HETATM   24  C   UNL     1       7.960   2.327 -14.149  1.00  0.00     0.008 A 
ENDBRANCH  14  19
ENDBRANCH   3  14
TORSDOF 5
ENDMDL
MODEL 8
REMARK VINA RESULT:    -6.563      2.511      6.302
REMARK INTER + INTRA:          -8.342
REMARK INTER:                  -9.034
REMARK INTRA:                   0.692
REMARK UNBOUND:                -0.052
REMARK  5 active torsions:
REMARK  status: ('A' for Active; 'I' for Inactive)
REMARK    1  A    between atoms: C_2  and  C_3 
REMARK    2  A    between atoms: C_2  and  C_6 
REMARK    3  A    between atoms: C_2  and  C_13 
REMARK    4  A    between atoms: C_3  and  C_4 
REMARK    5  A    between atoms: C_14  and  O_23 
ROOT
HETATM    1  C   UNL     1       6.455   2.833 -19.779  1.00  0.00     0.032 A 
HETATM    2  C   UNL     1       8.182   1.996 -17.803  1.00  0.00     0.298 A 
HETATM    3  C   UNL     1       7.102   2.811 -17.434  1.00  0.00     0.060 A 
HETATM    4  C   UNL     1       6.226   3.248 -18.387  1.00  0.00     0.091 A 
HETATM    5  C   UNL     1       5.601   3.244 -20.804  1.00  0.00     0.017 A 
HETATM    6  C   UNL     1       5.844   2.838 -22.097  1.00  0.00     0.001 A 
HETATM    7  C   UNL     1       6.931   2.025 -22.383  1.00  0.00     0.003 A 
HETATM    8  C   UNL     1       7.783   1.613 -21.381  1.00  0.00     0.038 A 
HETATM    9  C   UNL     1       7.555   2.011 -20.069  1.00  0.00     0.092 A 
HETATM   10  O   UNL     1       8.380   1.618 -19.076  1.00  0.00    -0.274 OA
HETATM   11  O   UNL     1       8.955   1.611 -16.944  1.00  0.00    -0.259 OA
ENDROOT
BRANCH   4  12
HETATM   12  O   UNL     1       5.179   4.040 -18.061  1.00  0.00    -0.359 OA
HETATM   13  H   UNL     1       5.527   4.935 -17.954  1.00  0.00     0.217 HD
ENDBRANCH   4  12
BRANCH   3  14
HETATM   14  C   UNL     1       6.912   3.208 -15.993  1.00  0.00     0.067 C 
BRANCH  14  15
HETATM   15  C   UNL     1       8.229   3.030 -15.237  1.00  0.00     0.092 C 
BRANCH  15  16
HETATM   16  C   UNL     1       8.617   4.334 -14.588  1.00  0.00     0.124 C 
HETATM   17  C   UNL     1       8.276   4.588 -13.143  1.00  0.00     0.091 C 
HETATM   18  O   UNL     1       9.201   5.175 -15.227  1.00  0.00    -0.298 OA
ENDBRANCH  15  16
ENDBRANCH  14  15
BRANCH  14  19
HETATM   19  C   UNL     1       5.853   2.339 -15.368  1.00  0.00    -0.049 A 
HETATM   20  C   UNL     1       5.283   2.703 -14.162  1.00  0.00     0.008 A 
HETATM   21  C   UNL     1       4.310   1.905 -13.588  1.00  0.00     0.001 A 
HETATM   22  C   UNL     1       3.907   0.745 -14.220  1.00  0.00     0.000 A 
HETATM   23  C   UNL     1       4.477   0.381 -15.425  1.00  0.00     0.001 A 
HETATM   24  C   UNL     1       5.446   1.181 -16.001  1.00  0.00     0.008 A 
ENDBRANCH  14  19
ENDBRANCH   3  14
TORSDOF 5
ENDMDL
MODEL 9
REMARK VINA RESULT:    -6.412      2.239      6.238
REMARK INTER + INTRA:          -8.151
REMARK INTER:                  -8.868
REMARK INTRA:                   0.718
REMARK UNBOUND:                -0.052
REMARK  5 active torsions:
REMARK  status: ('A' for Active; 'I' for Inactive)
REMARK    1  A    between atoms: C_2  and  C_3 
REMARK    2  A    between atoms: C_2  and  C_6 
REMARK    3  A    between atoms: C_2  and  C_13 
REMARK    4  A    between atoms: C_3  and  C_4 
REMARK    5  A    between atoms: C_14  and  O_23 
ROOT
HETATM    1  C   UNL     1       7.276   2.313 -19.875  1.00  0.00     0.032 A 
HETATM    2  C   UNL     1       5.732   3.742 -18.096  1.00  0.00     0.298 A 
HETATM    3  C   UNL     1       6.875   3.093 -17.605  1.00  0.00     0.060 A 
HETATM    4  C   UNL     1       7.663   2.372 -18.458  1.00  0.00     0.091 A 
HETATM    5  C   UNL     1       8.034   1.594 -20.801  1.00  0.00     0.017 A 
HETATM    6  C   UNL     1       7.643   1.559 -22.120  1.00  0.00     0.001 A 
HETATM    7  C   UNL     1       6.501   2.232 -22.531  1.00  0.00     0.003 A 
HETATM    8  C   UNL     1       5.743   2.945 -21.627  1.00  0.00     0.038 A 
HETATM    9  C   UNL     1       6.121   2.994 -20.291  1.00  0.00     0.092 A 
HETATM   10  O   UNL     1       5.389   3.686 -19.393  1.00  0.00    -0.274 OA
HETATM   11  O   UNL     1       5.038   4.382 -17.326  1.00  0.00    -0.259 OA
ENDROOT
BRANCH   4  12
HETATM   12  O   UNL     1       8.769   1.732 -18.012  1.00  0.00    -0.359 OA
HETATM   13  H   UNL     1       9.422   1.775 -18.722  1.00  0.00     0.217 HD
ENDBRANCH   4  12
BRANCH   3  14
HETATM   14  C   UNL     1       7.229   3.185 -16.144  1.00  0.00     0.067 C 
BRANCH  14  15
HETATM   15  C   UNL     1       8.602   2.554 -15.911  1.00  0.00     0.092 C 
BRANCH  15  16
HETATM   16  C   UNL     1       9.220   3.139 -14.667  1.00  0.00     0.124 C 
HETATM   17  C   UNL     1       9.180   4.627 -14.433  1.00  0.00     0.091 C 
HETATM   18  O   UNL     1       9.748   2.416 -13.858  1.00  0.00    -0.298 OA
ENDBRANCH  15  16
ENDBRANCH  14  15
BRANCH  14  19
HETATM   19  C   UNL     1       6.195   2.453 -15.329  1.00  0.00    -0.049 A 
HETATM   20  C   UNL     1       5.842   1.158 -15.663  1.00  0.00     0.008 A 
HETATM   21  C   UNL     1       4.894   0.486 -14.916  1.00  0.00     0.001 A 
HETATM   22  C   UNL     1       4.299   1.106 -13.835  1.00  0.00     0.000 A 
HETATM   23  C   UNL     1       4.652   2.400 -13.501  1.00  0.00     0.001 A 
HETATM   24  C   UNL     1       5.604   3.071 -14.245  1.00  0.00     0.008 A 
ENDBRANCH  14  19
ENDBRANCH   3  14
TORSDOF 5
ENDMDL
MODEL 10
REMARK VINA RESULT:    -6.171      1.686      5.926
REMARK INTER + INTRA:          -7.847
REMARK INTER:                  -7.847
REMARK INTRA:                   0.001
REMARK UNBOUND:                -0.052
REMARK  5 active torsions:
REMARK  status: ('A' for Active; 'I' for Inactive)
REMARK    1  A    between atoms: C_2  and  C_3 
REMARK    2  A    between atoms: C_2  and  C_6 
REMARK    3  A    between atoms: C_2  and  C_13 
REMARK    4  A    between atoms: C_3  and  C_4 
REMARK    5  A    between atoms: C_14  and  O_23 
ROOT
HETATM    1  C   UNL     1       7.970   2.471 -18.058  1.00  0.00     0.032 A 
HETATM    2  C   UNL     1       6.877   0.869 -16.102  1.00  0.00     0.298 A 
HETATM    3  C   UNL     1       7.606   1.997 -15.699  1.00  0.00     0.060 A 
HETATM    4  C   UNL     1       8.165   2.814 -16.641  1.00  0.00     0.091 A 
HETATM    5  C   UNL     1       8.515   3.260 -19.072  1.00  0.00     0.017 A 
HETATM    6  C   UNL     1       8.315   2.911 -20.389  1.00  0.00     0.001 A 
HETATM    7  C   UNL     1       7.577   1.781 -20.709  1.00  0.00     0.003 A 
HETATM    8  C   UNL     1       7.034   0.992 -19.717  1.00  0.00     0.038 A 
HETATM    9  C   UNL     1       7.224   1.328 -18.382  1.00  0.00     0.092 A 
HETATM   10  O   UNL     1       6.701   0.566 -17.398  1.00  0.00    -0.274 OA
HETATM   11  O   UNL     1       6.382   0.148 -15.253  1.00  0.00    -0.259 OA
ENDROOT
BRANCH   4  12
HETATM   12  O   UNL     1       8.877   3.907 -16.281  1.00  0.00    -0.359 OA
HETATM   13  H   UNL     1       8.691   4.067 -15.347  1.00  0.00     0.217 HD
ENDBRANCH   4  12
BRANCH   3  14
HETATM   14  C   UNL     1       7.775   2.305 -14.234  1.00  0.00     0.067 C 
BRANCH  14  15
HETATM   15  C   UNL     1       7.309   3.735 -13.956  1.00  0.00     0.092 C 
BRANCH  15  16
HETATM   16  C   UNL     1       5.862   3.878 -14.351  1.00  0.00     0.124 C 
HETATM   17  C   UNL     1       4.840   2.894 -13.841  1.00  0.00     0.091 C 
HETATM   18  O   UNL     1       5.521   4.780 -15.076  1.00  0.00    -0.298 OA
ENDBRANCH  15  16
ENDBRANCH  14  15
BRANCH  14  19
HETATM   19  C   UNL     1       9.226   2.168 -13.857  1.00  0.00    -0.049 A 
HETATM   20  C   UNL     1       9.800   3.067 -12.976  1.00  0.00     0.008 A 
HETATM   21  C   UNL     1      11.132   2.941 -12.629  1.00  0.00     0.001 A 
HETATM   22  C   UNL     1      11.891   1.917 -13.161  1.00  0.00     0.000 A 
HETATM   23  C   UNL     1      11.317   1.018 -14.041  1.00  0.00     0.001 A 
HETATM   24  C   UNL     1       9.984   1.141 -14.384  1.00  0.00     0.008 A 
ENDBRANCH  14  19
ENDBRANCH   3  14
TORSDOF 5
ENDMDL
MODEL 11
REMARK VINA RESULT:    -6.165      4.173      7.384
REMARK INTER + INTRA:          -7.840
REMARK INTER:                  -7.823
REMARK INTRA:                  -0.016
REMARK UNBOUND:                -0.052
REMARK  5 active torsions:
REMARK  status: ('A' for Active; 'I' for Inactive)
REMARK    1  A    between atoms: C_2  and  C_3 
REMARK    2  A    between atoms: C_2  and  C_6 
REMARK    3  A    between atoms: C_2  and  C_13 
REMARK    4  A    between atoms: C_3  and  C_4 
REMARK    5  A    between atoms: C_14  and  O_23 
ROOT
HETATM    1  C   UNL     1       7.522   2.214 -18.077  1.00  0.00     0.032 A 
HETATM    2  C   UNL     1       5.773   2.454 -20.192  1.00  0.00     0.298 A 
HETATM    3  C   UNL     1       7.146   2.571 -20.454  1.00  0.00     0.060 A 
HETATM    4  C   UNL     1       8.044   2.460 -19.430  1.00  0.00     0.091 A 
HETATM    5  C   UNL     1       8.382   2.091 -16.984  1.00  0.00     0.017 A 
HETATM    6  C   UNL     1       7.861   1.862 -15.730  1.00  0.00     0.001 A 
HETATM    7  C   UNL     1       6.490   1.753 -15.551  1.00  0.00     0.003 A 
HETATM    8  C   UNL     1       5.630   1.873 -16.621  1.00  0.00     0.038 A 
HETATM    9  C   UNL     1       6.135   2.104 -17.895  1.00  0.00     0.092 A 
HETATM   10  O   UNL     1       5.307   2.225 -18.954  1.00  0.00    -0.274 OA
HETATM   11  O   UNL     1       4.983   2.554 -21.113  1.00  0.00    -0.259 OA
ENDROOT
BRANCH   4  12
HETATM   12  O   UNL     1       9.373   2.572 -19.653  1.00  0.00    -0.359 OA
HETATM   13  H   UNL     1       9.807   1.916 -19.092  1.00  0.00     0.217 HD
ENDBRANCH   4  12
BRANCH   3  14
HETATM   14  C   UNL     1       7.629   2.822 -21.859  1.00  0.00     0.067 C 
BRANCH  14  15
HETATM   15  C   UNL     1       6.852   3.993 -22.463  1.00  0.00     0.092 C 
BRANCH  15  16
HETATM   16  C   UNL     1       7.810   4.929 -23.155  1.00  0.00     0.124 C 
HETATM   17  C   UNL     1       7.394   5.634 -24.419  1.00  0.00     0.091 C 
HETATM   18  O   UNL     1       8.911   5.113 -22.696  1.00  0.00    -0.298 OA
ENDBRANCH  15  16
ENDBRANCH  14  15
BRANCH  14  19
HETATM   19  C   UNL     1       7.409   1.589 -22.694  1.00  0.00    -0.049 A 
HETATM   20  C   UNL     1       6.747   1.683 -23.905  1.00  0.00     0.008 A 
HETATM   21  C   UNL     1       6.545   0.552 -24.673  1.00  0.00     0.001 A 
HETATM   22  C   UNL     1       7.004  -0.674 -24.231  1.00  0.00     0.000 A 
HETATM   23  C   UNL     1       7.666  -0.768 -23.021  1.00  0.00     0.001 A 
HETATM   24  C   UNL     1       7.872   0.364 -22.256  1.00  0.00     0.008 A 
ENDBRANCH  14  19
ENDBRANCH   3  14
TORSDOF 5
ENDMDL
MODEL 12
REMARK VINA RESULT:    -6.029      1.520      2.378
REMARK INTER + INTRA:          -7.668
REMARK INTER:                  -8.196
REMARK INTRA:                   0.528
REMARK UNBOUND:                -0.052
REMARK  5 active torsions:
REMARK  status: ('A' for Active; 'I' for Inactive)
REMARK    1  A    between atoms: C_2  and  C_3 
REMARK    2  A    between atoms: C_2  and  C_6 
REMARK    3  A    between atoms: C_2  and  C_13 
REMARK    4  A    between atoms: C_3  and  C_4 
REMARK    5  A    between atoms: C_14  and  O_23 
ROOT
HETATM    1  C   UNL     1       9.817   2.977 -13.073  1.00  0.00     0.032 A 
HETATM    2  C   UNL     1       9.261   1.687 -15.443  1.00  0.00     0.298 A 
HETATM    3  C   UNL     1       8.313   2.594 -14.947  1.00  0.00     0.060 A 
HETATM    4  C   UNL     1       8.553   3.251 -13.773  1.00  0.00     0.091 A 
HETATM    5  C   UNL     1      10.127   3.611 -11.868  1.00  0.00     0.017 A 
HETATM    6  C   UNL     1      11.319   3.332 -11.239  1.00  0.00     0.001 A 
HETATM    7  C   UNL     1      12.210   2.425 -11.795  1.00  0.00     0.003 A 
HETATM    8  C   UNL     1      11.916   1.792 -12.984  1.00  0.00     0.038 A 
HETATM    9  C   UNL     1      10.719   2.060 -13.635  1.00  0.00     0.092 A 
HETATM   10  O   UNL     1      10.415   1.447 -14.799  1.00  0.00    -0.274 OA
HETATM   11  O   UNL     1       9.036   1.108 -16.491  1.00  0.00    -0.259 OA
ENDROOT
BRANCH   4  12
HETATM   12  O   UNL     1       7.655   4.128 -13.268  1.00  0.00    -0.359 OA
HETATM   13  H   UNL     1       7.899   5.001 -13.603  1.00  0.00     0.217 HD
ENDBRANCH   4  12
BRANCH   3  14
HETATM   14  C   UNL     1       7.033   2.840 -15.703  1.00  0.00     0.067 C 
BRANCH  14  15
HETATM   15  C   UNL     1       6.676   4.325 -15.632  1.00  0.00     0.092 C 
BRANCH  15  16
HETATM   16  C   UNL     1       5.889   4.713 -16.857  1.00  0.00     0.124 C 
HETATM   17  C   UNL     1       5.505   3.664 -17.869  1.00  0.00     0.091 C 
HETATM   18  O   UNL     1       5.567   5.863 -17.028  1.00  0.00    -0.298 OA
ENDBRANCH  15  16
ENDBRANCH  14  15
BRANCH  14  19
HETATM   19  C   UNL     1       5.924   2.026 -15.090  1.00  0.00    -0.049 A 
HETATM   20  C   UNL     1       5.257   2.497 -13.974  1.00  0.00     0.008 A 
HETATM   21  C   UNL     1       4.239   1.750 -13.411  1.00  0.00     0.001 A 
HETATM   22  C   UNL     1       3.886   0.535 -13.965  1.00  0.00     0.000 A 
HETATM   23  C   UNL     1       4.552   0.065 -15.080  1.00  0.00     0.001 A 
HETATM   24  C   UNL     1       5.567   0.813 -15.646  1.00  0.00     0.008 A 
ENDBRANCH  14  19
ENDBRANCH   3  14
TORSDOF 5
ENDMDL
MODEL 13
REMARK VINA RESULT:    -5.763      4.317      7.611
REMARK INTER + INTRA:          -7.332
REMARK INTER:                  -7.203
REMARK INTRA:                  -0.129
REMARK UNBOUND:                -0.052
REMARK  5 active torsions:
REMARK  status: ('A' for Active; 'I' for Inactive)
REMARK    1  A    between atoms: C_2  and  C_3 
REMARK    2  A    between atoms: C_2  and  C_6 
REMARK    3  A    between atoms: C_2  and  C_13 
REMARK    4  A    between atoms: C_3  and  C_4 
REMARK    5  A    between atoms: C_14  and  O_23 
ROOT
HETATM    1  C   UNL     1       6.415   2.211 -18.690  1.00  0.00     0.032 A 
HETATM    2  C   UNL     1       8.813   2.687 -19.960  1.00  0.00     0.298 A 
HETATM    3  C   UNL     1       7.655   2.602 -20.747  1.00  0.00     0.060 A 
HETATM    4  C   UNL     1       6.447   2.364 -20.152  1.00  0.00     0.091 A 
HETATM    5  C   UNL     1       5.217   1.964 -18.016  1.00  0.00     0.017 A 
HETATM    6  C   UNL     1       5.222   1.825 -16.647  1.00  0.00     0.001 A 
HETATM    7  C   UNL     1       6.409   1.928 -15.936  1.00  0.00     0.003 A 
HETATM    8  C   UNL     1       7.599   2.170 -16.589  1.00  0.00     0.038 A 
HETATM    9  C   UNL     1       7.616   2.314 -17.970  1.00  0.00     0.092 A 
HETATM   10  O   UNL     1       8.773   2.550 -18.624  1.00  0.00    -0.274 OA
HETATM   11  O   UNL     1       9.883   2.900 -20.501  1.00  0.00    -0.259 OA
ENDROOT
BRANCH   4  12
HETATM   12  O   UNL     1       5.315   2.272 -20.886  1.00  0.00    -0.359 OA
HETATM   13  H   UNL     1       4.712   1.695 -20.399  1.00  0.00     0.217 HD
ENDBRANCH   4  12
BRANCH   3  14
HETATM   14  C   UNL     1       7.742   2.767 -22.241  1.00  0.00     0.067 C 
BRANCH  14  15
HETATM   15  C   UNL     1       6.706   3.794 -22.702  1.00  0.00     0.092 C 
BRANCH  15  16
HETATM   16  C   UNL     1       7.409   4.971 -23.328  1.00  0.00     0.124 C 
HETATM   17  C   UNL     1       6.758   5.722 -24.460  1.00  0.00     0.091 C 
HETATM   18  O   UNL     1       8.493   5.312 -22.922  1.00  0.00    -0.298 OA
ENDBRANCH  15  16
ENDBRANCH  14  15
BRANCH  14  19
HETATM   19  C   UNL     1       7.470   1.445 -22.909  1.00  0.00    -0.049 A 
HETATM   20  C   UNL     1       6.734   1.400 -24.079  1.00  0.00     0.008 A 
HETATM   21  C   UNL     1       6.484   0.187 -24.693  1.00  0.00     0.001 A 
HETATM   22  C   UNL     1       6.972  -0.981 -24.138  1.00  0.00     0.000 A 
HETATM   23  C   UNL     1       7.708  -0.936 -22.970  1.00  0.00     0.001 A 
HETATM   24  C   UNL     1       7.962   0.278 -22.359  1.00  0.00     0.008 A 
ENDBRANCH  14  19
ENDBRANCH   3  14
TORSDOF 5
ENDMDL
