MODEL 1
REMARK VINA RESULT:    -4.520      0.000      0.000
REMARK INTER + INTRA:          -5.377
REMARK INTER:                  -7.103
REMARK INTRA:                   1.726
REMARK UNBOUND:                 0.992
REMARK  7 active torsions:
REMARK  status: ('A' for Active; 'I' for Inactive)
REMARK    1  A    between atoms: C_13  and  C_14 
REMARK    2  A    between atoms: C_14  and  C_19 
REMARK    3  A    between atoms: C_15  and  C_20 
REMARK    4  A    between atoms: C_16  and  C_21 
REMARK    5  A    between atoms: C_17  and  C_23 
REMARK    6  A    between atoms: C_18  and  C_26 
REMARK    7  A    between atoms: C_22  and  C_28 
ROOT
HETATM    1  O   UNL     1       5.709   6.435 -24.344  1.00  0.00    -0.304 OA
HETATM    2  O   UNL     1       9.078  10.428 -24.318  1.00  0.00    -0.304 OA
HETATM    3  O   UNL     1      10.841   6.081 -24.902  1.00  0.00    -0.304 OA
HETATM    4  O   UNL     1       6.699   9.231 -22.555  1.00  0.00    -0.270 OA
HETATM    5  O   UNL     1       6.695   7.393 -26.196  1.00  0.00    -0.263 OA
HETATM    6  O   UNL     1       7.854   6.542 -22.894  1.00  0.00    -0.270 OA
HETATM    7  O   UNL     1      12.771   8.668 -24.600  1.00  0.00    -0.270 OA
HETATM    8  O   UNL     1       9.891  12.528 -24.773  1.00  0.00    -0.263 OA
HETATM    9  O   UNL     1      12.098   6.276 -22.984  1.00  0.00    -0.263 OA
HETATM   10  N   UNL     1       6.164   9.779 -24.745  1.00  0.00    -0.340 N 
HETATM   11  N   UNL     1       8.913   4.687 -23.782  1.00  0.00    -0.340 N 
HETATM   12  N   UNL     1      10.871   9.153 -25.851  1.00  0.00    -0.340 N 
HETATM   13  C   UNL     1       5.173   8.686 -24.805  1.00  0.00     0.190 C 
HETATM   14  C   UNL     1      10.097   4.932 -22.930  1.00  0.00     0.190 C 
HETATM   15  C   UNL     1      11.041  10.612 -25.695  1.00  0.00     0.190 C 
HETATM   16  C   UNL     1       8.004  10.981 -23.532  1.00  0.00     0.227 C 
HETATM   17  C   UNL     1       6.551   5.266 -24.443  1.00  0.00     0.227 C 
HETATM   18  C   UNL     1      11.758   6.811 -25.737  1.00  0.00     0.227 C 
HETATM   19  C   UNL     1       6.903   9.924 -23.557  1.00  0.00     0.250 C 
HETATM   20  C   UNL     1       5.947   7.448 -25.229  1.00  0.00     0.283 C 
HETATM   21  C   UNL     1       7.824   5.560 -23.643  1.00  0.00     0.250 C 
HETATM   22  C   UNL     1      11.850   8.290 -25.331  1.00  0.00     0.250 C 
HETATM   23  C   UNL     1       9.942  11.308 -24.896  1.00  0.00     0.283 C 
HETATM   24  C   UNL     1      11.122   5.851 -23.591  1.00  0.00     0.283 C 
HETATM   25  C   UNL     1       6.336  10.614 -25.939  1.00  0.00     0.153 C 
HETATM   26  C   UNL     1       8.973   3.577 -24.736  1.00  0.00     0.153 C 
HETATM   27  C   UNL     1       9.775   8.687 -26.702  1.00  0.00     0.153 C 
ENDROOT
BRANCH  17  28
HETATM   28  C   UNL     1       5.779   4.113 -23.819  1.00  0.00     0.016 C 
HETATM   29  C   UNL     1       4.343   4.531 -23.508  1.00  0.00     0.012 C 
HETATM   30  C   UNL     1       5.793   2.893 -24.740  1.00  0.00     0.012 C 
ENDBRANCH  17  28
BRANCH  13  31
HETATM   31  C   UNL     1       3.987   8.909 -25.736  1.00  0.00     0.014 C 
HETATM   32  C   UNL     1       4.372   8.533 -27.168  1.00  0.00     0.012 C 
BRANCH  31  33
HETATM   33  C   UNL     1       2.767   8.117 -25.233  1.00  0.00     0.002 C 
HETATM   34  C   UNL     1       2.692   8.006 -23.716  1.00  0.00     0.005 C 
ENDBRANCH  31  33
ENDBRANCH  13  31
BRANCH  14  35
HETATM   35  C   UNL     1      10.785   3.653 -22.451  1.00  0.00     0.010 C 
HETATM   36  C   UNL     1      12.289   3.722 -22.705  1.00  0.00     0.012 C 
HETATM   37  C   UNL     1      10.504   3.412 -20.968  1.00  0.00     0.012 C 
ENDBRANCH  14  35
BRANCH  16  38
HETATM   38  C   UNL     1       8.514  11.231 -22.115  1.00  0.00     0.016 C 
HETATM   39  C   UNL     1       8.578  12.729 -21.821  1.00  0.00     0.012 C 
HETATM   40  C   UNL     1       9.884  10.587 -21.913  1.00  0.00     0.012 C 
ENDBRANCH  16  38
BRANCH  18  41
HETATM   41  C   UNL     1      13.125   6.132 -25.809  1.00  0.00     0.016 C 
HETATM   42  C   UNL     1      13.999   6.798 -26.869  1.00  0.00     0.012 C 
HETATM   43  C   UNL     1      12.969   4.642 -26.100  1.00  0.00     0.012 C 
ENDBRANCH  18  41
BRANCH  15  44
HETATM   44  C   UNL     1      11.234  11.297 -27.048  1.00  0.00     0.010 C 
HETATM   45  C   UNL     1      12.526  12.110 -27.056  1.00  0.00     0.012 C 
HETATM   46  C   UNL     1      10.037  12.185 -27.373  1.00  0.00     0.012 C 
ENDBRANCH  15  44
TORSDOF 7
ENDMDL
MODEL 2
REMARK VINA RESULT:    -4.399      1.034      1.216
REMARK INTER + INTRA:          -5.207
REMARK INTER:                  -6.659
REMARK INTRA:                   1.452
REMARK UNBOUND:                 0.992
REMARK  7 active torsions:
REMARK  status: ('A' for Active; 'I' for Inactive)
REMARK    1  A    between atoms: C_13  and  C_14 
REMARK    2  A    between atoms: C_14  and  C_19 
REMARK    3  A    between atoms: C_15  and  C_20 
REMARK    4  A    between atoms: C_16  and  C_21 
REMARK    5  A    between atoms: C_17  and  C_23 
REMARK    6  A    between atoms: C_18  and  C_26 
REMARK    7  A    between atoms: C_22  and  C_28 
ROOT
HETATM    1  O   UNL     1       6.019   6.478 -24.075  1.00  0.00    -0.304 OA
HETATM    2  O   UNL     1      10.074   9.767 -24.246  1.00  0.00    -0.304 OA
HETATM    3  O   UNL     1      10.918   5.205 -25.153  1.00  0.00    -0.304 OA
HETATM    4  O   UNL     1       7.682   8.941 -22.297  1.00  0.00    -0.270 OA
HETATM    5  O   UNL     1       6.996   7.332 -25.981  1.00  0.00    -0.263 OA
HETATM    6  O   UNL     1       8.269   6.107 -22.843  1.00  0.00    -0.270 OA
HETATM    7  O   UNL     1      13.324   7.369 -24.954  1.00  0.00    -0.270 OA
HETATM    8  O   UNL     1      11.227  11.700 -24.706  1.00  0.00    -0.263 OA
HETATM    9  O   UNL     1      12.359   5.061 -23.364  1.00  0.00    -0.263 OA
HETATM   10  N   UNL     1       7.064   9.695 -24.403  1.00  0.00    -0.340 N 
HETATM   11  N   UNL     1       8.870   4.137 -23.896  1.00  0.00    -0.340 N 
HETATM   12  N   UNL     1      11.444   8.264 -25.993  1.00  0.00    -0.340 N 
HETATM   13  C   UNL     1       5.881   8.810 -24.402  1.00  0.00     0.190 C 
HETATM   14  C   UNL     1      10.151   4.112 -23.158  1.00  0.00     0.190 C 
HETATM   15  C   UNL     1      11.903   9.656 -25.803  1.00  0.00     0.190 C 
HETATM   16  C   UNL     1       9.201  10.468 -23.338  1.00  0.00     0.227 C 
HETATM   17  C   UNL     1       6.611   5.179 -24.298  1.00  0.00     0.227 C 
HETATM   18  C   UNL     1      11.877   5.796 -26.049  1.00  0.00     0.227 C 
HETATM   19  C   UNL     1       7.922   9.637 -23.290  1.00  0.00     0.250 C 
HETATM   20  C   UNL     1       6.364   7.474 -24.943  1.00  0.00     0.283 C 
HETATM   21  C   UNL     1       7.984   5.188 -23.619  1.00  0.00     0.250 C 
HETATM   22  C   UNL     1      12.285   7.208 -25.603  1.00  0.00     0.250 C 
HETATM   23  C   UNL     1      11.034  10.500 -24.875  1.00  0.00     0.283 C 
HETATM   24  C   UNL     1      11.268   4.858 -23.885  1.00  0.00     0.283 C 
HETATM   25  C   UNL     1       7.282  10.545 -25.578  1.00  0.00     0.153 C 
HETATM   26  C   UNL     1       8.631   3.087 -24.889  1.00  0.00     0.153 C 
HETATM   27  C   UNL     1      10.207   8.056 -26.746  1.00  0.00     0.153 C 
ENDROOT
BRANCH  17  28
HETATM   28  C   UNL     1       5.694   4.158 -23.641  1.00  0.00     0.016 C 
HETATM   29  C   UNL     1       6.250   3.728 -22.284  1.00  0.00     0.012 C 
HETATM   30  C   UNL     1       4.282   4.722 -23.487  1.00  0.00     0.012 C 
ENDBRANCH  17  28
BRANCH  13  31
HETATM   31  C   UNL     1       4.679   9.299 -25.202  1.00  0.00     0.014 C 
HETATM   32  C   UNL     1       4.496   8.430 -26.448  1.00  0.00     0.012 C 
BRANCH  31  33
HETATM   33  C   UNL     1       3.425   9.313 -24.310  1.00  0.00     0.002 C 
HETATM   34  C   UNL     1       2.819   7.935 -24.084  1.00  0.00     0.005 C 
ENDBRANCH  31  33
ENDBRANCH  13  31
BRANCH  14  35
HETATM   35  C   UNL     1      10.624   2.704 -22.795  1.00  0.00     0.010 C 
HETATM   36  C   UNL     1      11.923   2.366 -23.524  1.00  0.00     0.012 C 
HETATM   37  C   UNL     1      10.809   2.570 -21.283  1.00  0.00     0.012 C 
ENDBRANCH  14  35
BRANCH  16  38
HETATM   38  C   UNL     1       9.876  10.543 -21.971  1.00  0.00     0.016 C 
HETATM   39  C   UNL     1      10.321  11.973 -21.667  1.00  0.00     0.012 C 
HETATM   40  C   UNL     1      11.066   9.587 -21.903  1.00  0.00     0.012 C 
ENDBRANCH  16  38
BRANCH  18  41
HETATM   41  C   UNL     1      13.077   4.879 -26.280  1.00  0.00     0.016 C 
HETATM   42  C   UNL     1      13.980   5.443 -27.375  1.00  0.00     0.012 C 
HETATM   43  C   UNL     1      12.614   3.469 -26.640  1.00  0.00     0.012 C 
ENDBRANCH  18  41
BRANCH  15  44
HETATM   44  C   UNL     1      12.099  10.364 -27.145  1.00  0.00     0.010 C 
HETATM   45  C   UNL     1      13.473  11.023 -27.205  1.00  0.00     0.012 C 
HETATM   46  C   UNL     1      10.996  11.394 -27.370  1.00  0.00     0.012 C 
ENDBRANCH  15  44
TORSDOF 7
ENDMDL
MODEL 3
REMARK VINA RESULT:    -4.128      1.799      6.621
REMARK INTER + INTRA:          -4.825
REMARK INTER:                  -6.629
REMARK INTRA:                   1.804
REMARK UNBOUND:                 0.992
REMARK  7 active torsions:
REMARK  status: ('A' for Active; 'I' for Inactive)
REMARK    1  A    between atoms: C_13  and  C_14 
REMARK    2  A    between atoms: C_14  and  C_19 
REMARK    3  A    between atoms: C_15  and  C_20 
REMARK    4  A    between atoms: C_16  and  C_21 
REMARK    5  A    between atoms: C_17  and  C_23 
REMARK    6  A    between atoms: C_18  and  C_26 
REMARK    7  A    between atoms: C_22  and  C_28 
ROOT
HETATM    1  O   UNL     1       8.683   4.303 -24.364  1.00  0.00    -0.304 OA
HETATM    2  O   UNL     1      11.770   8.496 -24.791  1.00  0.00    -0.304 OA
HETATM    3  O   UNL     1       7.162   9.239 -24.044  1.00  0.00    -0.304 OA
HETATM    4  O   UNL     1      11.085   5.800 -26.361  1.00  0.00    -0.270 OA
HETATM    5  O   UNL     1       9.466   5.597 -22.623  1.00  0.00    -0.263 OA
HETATM    6  O   UNL     1       8.219   6.321 -25.923  1.00  0.00    -0.270 OA
HETATM    7  O   UNL     1       9.209  11.692 -24.592  1.00  0.00    -0.270 OA
HETATM    8  O   UNL     1      13.640   9.800 -24.500  1.00  0.00    -0.263 OA
HETATM    9  O   UNL     1       6.971  10.386 -26.030  1.00  0.00    -0.263 OA
HETATM   10  N   UNL     1      11.842   5.544 -24.182  1.00  0.00    -0.340 N 
HETATM   11  N   UNL     1       6.210   6.975 -24.983  1.00  0.00    -0.340 N 
HETATM   12  N   UNL     1      10.181  10.037 -23.278  1.00  0.00    -0.340 N 
HETATM   13  C   UNL     1      11.015   4.332 -24.009  1.00  0.00     0.190 C 
HETATM   14  C   UNL     1       6.131   8.128 -25.906  1.00  0.00     0.190 C 
HETATM   15  C   UNL     1      11.552  10.531 -23.527  1.00  0.00     0.190 C 
HETATM   16  C   UNL     1      12.523   7.533 -25.553  1.00  0.00     0.227 C 
HETATM   17  C   UNL     1       7.355   4.857 -24.240  1.00  0.00     0.227 C 
HETATM   18  C   UNL     1       7.694  10.350 -23.300  1.00  0.00     0.227 C 
HETATM   19  C   UNL     1      11.756   6.221 -25.411  1.00  0.00     0.250 C 
HETATM   20  C   UNL     1       9.651   4.824 -23.553  1.00  0.00     0.283 C 
HETATM   21  C   UNL     1       7.306   6.111 -25.118  1.00  0.00     0.250 C 
HETATM   22  C   UNL     1       9.090  10.756 -23.795  1.00  0.00     0.250 C 
HETATM   23  C   UNL     1      12.448   9.575 -24.310  1.00  0.00     0.283 C 
HETATM   24  C   UNL     1       6.814   9.377 -25.351  1.00  0.00     0.283 C 
HETATM   25  C   UNL     1      12.666   5.978 -23.049  1.00  0.00     0.153 C 
HETATM   26  C   UNL     1       5.161   6.836 -23.970  1.00  0.00     0.153 C 
HETATM   27  C   UNL     1      10.023   8.918 -22.347  1.00  0.00     0.153 C 
ENDROOT
BRANCH  17  28
HETATM   28  C   UNL     1       6.387   3.802 -24.756  1.00  0.00     0.016 C 
HETATM   29  C   UNL     1       7.035   2.973 -25.865  1.00  0.00     0.012 C 
HETATM   30  C   UNL     1       5.917   2.898 -23.617  1.00  0.00     0.012 C 
ENDBRANCH  17  28
BRANCH  13  31
HETATM   31  C   UNL     1      11.552   3.290 -23.034  1.00  0.00     0.014 C 
HETATM   32  C   UNL     1      10.433   2.325 -22.637  1.00  0.00     0.012 C 
BRANCH  31  33
HETATM   33  C   UNL     1      12.757   2.562 -23.655  1.00  0.00     0.002 C 
HETATM   34  C   UNL     1      12.441   1.868 -24.973  1.00  0.00     0.005 C 
ENDBRANCH  31  33
ENDBRANCH  13  31
BRANCH  14  35
HETATM   35  C   UNL     1       4.707   8.471 -26.343  1.00  0.00     0.010 C 
HETATM   36  C   UNL     1       3.847   8.842 -25.138  1.00  0.00     0.012 C 
HETATM   37  C   UNL     1       4.715   9.607 -27.365  1.00  0.00     0.012 C 
ENDBRANCH  14  35
BRANCH  16  38
HETATM   38  C   UNL     1      12.583   7.997 -27.006  1.00  0.00     0.016 C 
HETATM   39  C   UNL     1      14.000   8.434 -27.375  1.00  0.00     0.012 C 
HETATM   40  C   UNL     1      11.592   9.134 -27.250  1.00  0.00     0.012 C 
ENDBRANCH  16  38
BRANCH  18  41
HETATM   41  C   UNL     1       6.718  11.525 -23.256  1.00  0.00     0.016 C 
HETATM   42  C   UNL     1       7.205  12.592 -22.279  1.00  0.00     0.012 C 
HETATM   43  C   UNL     1       5.319  11.046 -22.875  1.00  0.00     0.012 C 
ENDBRANCH  18  41
BRANCH  15  44
HETATM   44  C   UNL     1      12.232  10.961 -22.227  1.00  0.00     0.010 C 
HETATM   45  C   UNL     1      11.204  11.504 -21.239  1.00  0.00     0.012 C 
HETATM   46  C   UNL     1      13.312  12.002 -22.509  1.00  0.00     0.012 C 
ENDBRANCH  15  44
TORSDOF 7
ENDMDL
MODEL 4
REMARK VINA RESULT:    -4.116      2.776      6.750
REMARK INTER + INTRA:          -4.807
REMARK INTER:                  -6.183
REMARK INTRA:                   1.376
REMARK UNBOUND:                 0.992
REMARK  7 active torsions:
REMARK  status: ('A' for Active; 'I' for Inactive)
REMARK    1  A    between atoms: C_13  and  C_14 
REMARK    2  A    between atoms: C_14  and  C_19 
REMARK    3  A    between atoms: C_15  and  C_20 
REMARK    4  A    between atoms: C_16  and  C_21 
REMARK    5  A    between atoms: C_17  and  C_23 
REMARK    6  A    between atoms: C_18  and  C_26 
REMARK    7  A    between atoms: C_22  and  C_28 
ROOT
HETATM    1  O   UNL     1      11.016   1.488 -24.955  1.00  0.00    -0.304 OA
HETATM    2  O   UNL     1       6.985   4.524 -23.603  1.00  0.00    -0.304 OA
HETATM    3  O   UNL     1      11.207   6.590 -24.107  1.00  0.00    -0.304 OA
HETATM    4  O   UNL     1       8.413   1.816 -22.693  1.00  0.00    -0.270 OA
HETATM    5  O   UNL     1       9.843   2.893 -26.357  1.00  0.00    -0.263 OA
HETATM    6  O   UNL     1      11.026   3.150 -22.966  1.00  0.00    -0.270 OA
HETATM    7  O   UNL     1       8.631   8.236 -23.028  1.00  0.00    -0.270 OA
HETATM    8  O   UNL     1       4.832   5.327 -23.605  1.00  0.00    -0.263 OA
HETATM    9  O   UNL     1      11.198   7.266 -21.907  1.00  0.00    -0.263 OA
HETATM   10  N   UNL     1       7.640   1.872 -24.880  1.00  0.00    -0.340 N 
HETATM   11  N   UNL     1      12.752   4.500 -23.707  1.00  0.00    -0.340 N 
HETATM   12  N   UNL     1       8.050   6.727 -24.701  1.00  0.00    -0.340 N 
HETATM   13  C   UNL     1       8.740   0.989 -25.319  1.00  0.00     0.190 C 
HETATM   14  C   UNL     1      12.579   5.393 -22.541  1.00  0.00     0.190 C 
HETATM   15  C   UNL     1       6.613   6.777 -24.359  1.00  0.00     0.190 C 
HETATM   16  C   UNL     1       6.542   3.252 -23.093  1.00  0.00     0.227 C 
HETATM   17  C   UNL     1      12.151   2.382 -24.932  1.00  0.00     0.227 C 
HETATM   18  C   UNL     1      10.372   7.662 -24.579  1.00  0.00     0.227 C 
HETATM   19  C   UNL     1       7.611   2.252 -23.526  1.00  0.00     0.250 C 
HETATM   20  C   UNL     1       9.908   1.908 -25.634  1.00  0.00     0.283 C 
HETATM   21  C   UNL     1      11.921   3.373 -23.788  1.00  0.00     0.250 C 
HETATM   22  C   UNL     1       8.945   7.568 -24.019  1.00  0.00     0.250 C 
HETATM   23  C   UNL     1       6.031   5.469 -23.829  1.00  0.00     0.283 C 
HETATM   24  C   UNL     1      11.573   6.513 -22.799  1.00  0.00     0.283 C 
HETATM   25  C   UNL     1       6.677   2.322 -25.891  1.00  0.00     0.153 C 
HETATM   26  C   UNL     1      13.750   4.871 -24.712  1.00  0.00     0.153 C 
HETATM   27  C   UNL     1       8.442   5.928 -25.863  1.00  0.00     0.153 C 
ENDROOT
BRANCH  17  28
HETATM   28  C   UNL     1      13.380   1.526 -24.664  1.00  0.00     0.016 C 
HETATM   29  C   UNL     1      13.033   0.358 -23.742  1.00  0.00     0.012 C 
HETATM   30  C   UNL     1      13.978   1.014 -25.974  1.00  0.00     0.012 C 
ENDBRANCH  17  28
BRANCH  13  31
HETATM   31  C   UNL     1       8.439   0.092 -26.515  1.00  0.00     0.014 C 
HETATM   32  C   UNL     1       9.742  -0.285 -27.222  1.00  0.00     0.012 C 
BRANCH  31  33
HETATM   33  C   UNL     1       7.644  -1.144 -26.057  1.00  0.00     0.002 C 
HETATM   34  C   UNL     1       8.084  -1.689 -24.705  1.00  0.00     0.005 C 
ENDBRANCH  31  33
ENDBRANCH  13  31
BRANCH  14  35
HETATM   35  C   UNL     1      13.888   5.986 -22.021  1.00  0.00     0.010 C 
HETATM   36  C   UNL     1      13.999   7.463 -22.395  1.00  0.00     0.012 C 
HETATM   37  C   UNL     1      13.997   5.809 -20.506  1.00  0.00     0.012 C 
ENDBRANCH  14  35
BRANCH  16  38
HETATM   38  C   UNL     1       6.438   3.343 -21.573  1.00  0.00     0.016 C 
HETATM   39  C   UNL     1       7.825   3.451 -20.942  1.00  0.00     0.012 C 
HETATM   40  C   UNL     1       5.687   2.138 -21.010  1.00  0.00     0.012 C 
ENDBRANCH  16  38
BRANCH  18  41
HETATM   41  C   UNL     1      11.013   9.029 -24.339  1.00  0.00     0.016 C 
HETATM   42  C   UNL     1      10.080  10.147 -24.799  1.00  0.00     0.012 C 
HETATM   43  C   UNL     1      12.359   9.124 -25.053  1.00  0.00     0.012 C 
ENDBRANCH  18  41
BRANCH  15  44
HETATM   44  C   UNL     1       5.781   7.298 -25.532  1.00  0.00     0.010 C 
HETATM   45  C   UNL     1       6.636   8.169 -26.448  1.00  0.00     0.012 C 
HETATM   46  C   UNL     1       4.570   8.075 -25.023  1.00  0.00     0.012 C 
ENDBRANCH  15  44
TORSDOF 7
ENDMDL
MODEL 5
REMARK VINA RESULT:    -3.929      2.605      5.119
REMARK INTER + INTRA:          -4.545
REMARK INTER:                  -6.169
REMARK INTRA:                   1.624
REMARK UNBOUND:                 0.992
REMARK  7 active torsions:
REMARK  status: ('A' for Active; 'I' for Inactive)
REMARK    1  A    between atoms: C_13  and  C_14 
REMARK    2  A    between atoms: C_14  and  C_19 
REMARK    3  A    between atoms: C_15  and  C_20 
REMARK    4  A    between atoms: C_16  and  C_21 
REMARK    5  A    between atoms: C_17  and  C_23 
REMARK    6  A    between atoms: C_18  and  C_26 
REMARK    7  A    between atoms: C_22  and  C_28 
ROOT
HETATM    1  O   UNL     1       6.615   6.149 -24.538  1.00  0.00    -0.304 OA
HETATM    2  O   UNL     1      11.832   6.076 -24.281  1.00  0.00    -0.304 OA
HETATM    3  O   UNL     1       9.524   2.151 -23.014  1.00  0.00    -0.304 OA
HETATM    4  O   UNL     1       9.365   7.850 -23.296  1.00  0.00    -0.270 OA
HETATM    5  O   UNL     1       8.037   5.164 -26.062  1.00  0.00    -0.263 OA
HETATM    6  O   UNL     1       7.977   5.387 -22.469  1.00  0.00    -0.270 OA
HETATM    7  O   UNL     1      12.739   2.408 -22.688  1.00  0.00    -0.270 OA
HETATM    8  O   UNL     1      13.999   6.487 -24.923  1.00  0.00    -0.263 OA
HETATM    9  O   UNL     1      10.391   2.264 -20.884  1.00  0.00    -0.263 OA
HETATM   10  N   UNL     1       9.537   7.531 -25.588  1.00  0.00    -0.340 N 
HETATM   11  N   UNL     1       7.202   3.209 -22.381  1.00  0.00    -0.340 N 
HETATM   12  N   UNL     1      11.987   3.424 -24.641  1.00  0.00    -0.340 N 
HETATM   13  C   UNL     1       8.067   7.574 -25.731  1.00  0.00     0.190 C 
HETATM   14  C   UNL     1       8.097   2.917 -21.241  1.00  0.00     0.190 C 
HETATM   15  C   UNL     1      13.234   4.197 -24.815  1.00  0.00     0.190 C 
HETATM   16  C   UNL     1      11.578   7.487 -24.127  1.00  0.00     0.227 C 
HETATM   17  C   UNL     1       6.220   4.866 -24.007  1.00  0.00     0.227 C 
HETATM   18  C   UNL     1      10.691   1.548 -23.601  1.00  0.00     0.227 C 
HETATM   19  C   UNL     1      10.069   7.642 -24.291  1.00  0.00     0.250 C 
HETATM   20  C   UNL     1       7.587   6.152 -25.497  1.00  0.00     0.283 C 
HETATM   21  C   UNL     1       7.210   4.515 -22.893  1.00  0.00     0.250 C 
HETATM   22  C   UNL     1      11.897   2.499 -23.587  1.00  0.00     0.250 C 
HETATM   23  C   UNL     1      13.076   5.711 -24.697  1.00  0.00     0.283 C 
HETATM   24  C   UNL     1       9.474   2.424 -21.682  1.00  0.00     0.283 C 
HETATM   25  C   UNL     1      10.338   7.338 -26.801  1.00  0.00     0.153 C 
HETATM   26  C   UNL     1       6.398   2.110 -22.920  1.00  0.00     0.153 C 
HETATM   27  C   UNL     1      10.972   3.532 -25.690  1.00  0.00     0.153 C 
ENDROOT
BRANCH  17  28
HETATM   28  C   UNL     1       4.816   5.035 -23.444  1.00  0.00     0.016 C 
HETATM   29  C   UNL     1       4.159   6.295 -24.004  1.00  0.00     0.012 C 
HETATM   30  C   UNL     1       3.961   3.805 -23.747  1.00  0.00     0.012 C 
ENDBRANCH  17  28
BRANCH  13  31
HETATM   31  C   UNL     1       7.541   8.096 -27.063  1.00  0.00     0.014 C 
HETATM   32  C   UNL     1       6.188   7.453 -27.375  1.00  0.00     0.012 C 
BRANCH  31  33
HETATM   33  C   UNL     1       7.464   9.632 -27.033  1.00  0.00     0.002 C 
HETATM   34  C   UNL     1       7.395  10.214 -25.628  1.00  0.00     0.005 C 
ENDBRANCH  31  33
ENDBRANCH  13  31
BRANCH  14  35
HETATM   35  C   UNL     1       7.502   1.941 -20.226  1.00  0.00     0.010 C 
HETATM   36  C   UNL     1       8.272   1.996 -18.908  1.00  0.00     0.012 C 
HETATM   37  C   UNL     1       6.021   2.241 -19.993  1.00  0.00     0.012 C 
ENDBRANCH  14  35
BRANCH  16  38
HETATM   38  C   UNL     1      12.043   7.920 -22.740  1.00  0.00     0.016 C 
HETATM   39  C   UNL     1      13.253   8.848 -22.841  1.00  0.00     0.012 C 
HETATM   40  C   UNL     1      12.374   6.702 -21.878  1.00  0.00     0.012 C 
ENDBRANCH  16  38
BRANCH  18  41
HETATM   41  C   UNL     1      11.004   0.189 -22.975  1.00  0.00     0.016 C 
HETATM   42  C   UNL     1      12.143  -0.498 -23.726  1.00  0.00     0.012 C 
HETATM   43  C   UNL     1       9.760  -0.696 -22.963  1.00  0.00     0.012 C 
ENDBRANCH  18  41
BRANCH  15  44
HETATM   44  C   UNL     1      13.936   3.833 -26.124  1.00  0.00     0.010 C 
HETATM   45  C   UNL     1      13.232   4.488 -27.309  1.00  0.00     0.012 C 
HETATM   46  C   UNL     1      13.987   2.318 -26.298  1.00  0.00     0.012 C 
ENDBRANCH  15  44
TORSDOF 7
ENDMDL
MODEL 6
REMARK VINA RESULT:    -3.592      3.673      8.304
REMARK INTER + INTRA:          -4.069
REMARK INTER:                  -5.099
REMARK INTRA:                   1.029
REMARK UNBOUND:                 0.992
REMARK  7 active torsions:
REMARK  status: ('A' for Active; 'I' for Inactive)
REMARK    1  A    between atoms: C_13  and  C_14 
REMARK    2  A    between atoms: C_14  and  C_19 
REMARK    3  A    between atoms: C_15  and  C_20 
REMARK    4  A    between atoms: C_16  and  C_21 
REMARK    5  A    between atoms: C_17  and  C_23 
REMARK    6  A    between atoms: C_18  and  C_26 
REMARK    7  A    between atoms: C_22  and  C_28 
ROOT
HETATM    1  O   UNL     1      11.365   0.055 -24.381  1.00  0.00    -0.304 OA
HETATM    2  O   UNL     1       7.216   2.404 -22.247  1.00  0.00    -0.304 OA
HETATM    3  O   UNL     1      10.322   5.120 -24.554  1.00  0.00    -0.304 OA
HETATM    4  O   UNL     1       9.565   0.395 -21.442  1.00  0.00    -0.270 OA
HETATM    5  O   UNL     1       9.479   0.764 -25.503  1.00  0.00    -0.263 OA
HETATM    6  O   UNL     1      11.482   2.138 -22.844  1.00  0.00    -0.270 OA
HETATM    7  O   UNL     1       7.818   6.400 -22.941  1.00  0.00    -0.270 OA
HETATM    8  O   UNL     1       5.023   2.700 -21.630  1.00  0.00    -0.263 OA
HETATM    9  O   UNL     1      10.767   6.326 -22.644  1.00  0.00    -0.263 OA
HETATM   10  N   UNL     1       8.200  -0.285 -23.191  1.00  0.00    -0.340 N 
HETATM   11  N   UNL     1      12.449   3.586 -24.367  1.00  0.00    -0.340 N 
HETATM   12  N   UNL     1       7.231   4.421 -24.013  1.00  0.00    -0.340 N 
HETATM   13  C   UNL     1       9.327  -0.996 -23.829  1.00  0.00     0.190 C 
HETATM   14  C   UNL     1      12.377   4.692 -23.389  1.00  0.00     0.190 C 
HETATM   15  C   UNL     1       6.007   4.250 -23.202  1.00  0.00     0.190 C 
HETATM   16  C   UNL     1       7.329   1.243 -21.400  1.00  0.00     0.227 C 
HETATM   17  C   UNL     1      12.149   1.144 -24.915  1.00  0.00     0.227 C 
HETATM   18  C   UNL     1       9.113   5.830 -24.881  1.00  0.00     0.227 C 
HETATM   19  C   UNL     1       8.463   0.417 -22.001  1.00  0.00     0.250 C 
HETATM   20  C   UNL     1      10.035   0.038 -24.689  1.00  0.00     0.283 C 
HETATM   21  C   UNL     1      11.992   2.325 -23.954  1.00  0.00     0.250 C 
HETATM   22  C   UNL     1       8.005   5.582 -23.847  1.00  0.00     0.250 C 
HETATM   23  C   UNL     1       6.008   3.032 -22.283  1.00  0.00     0.283 C 
HETATM   24  C   UNL     1      11.063   5.466 -23.467  1.00  0.00     0.283 C 
HETATM   25  C   UNL     1       6.896  -0.329 -23.860  1.00  0.00     0.153 C 
HETATM   26  C   UNL     1      12.955   3.888 -25.708  1.00  0.00     0.153 C 
HETATM   27  C   UNL     1       7.475   3.451 -25.082  1.00  0.00     0.153 C 
ENDROOT
BRANCH  17  28
HETATM   28  C   UNL     1      13.595   0.670 -24.952  1.00  0.00     0.016 C 
HETATM   29  C   UNL     1      13.878  -0.289 -23.797  1.00  0.00     0.012 C 
HETATM   30  C   UNL     1      13.910   0.003 -26.291  1.00  0.00     0.012 C 
ENDBRANCH  17  28
BRANCH  13  31
HETATM   31  C   UNL     1       8.959  -2.216 -24.667  1.00  0.00     0.014 C 
HETATM   32  C   UNL     1      10.050  -2.479 -25.707  1.00  0.00     0.012 C 
BRANCH  31  33
HETATM   33  C   UNL     1       8.721  -3.429 -23.752  1.00  0.00     0.002 C 
HETATM   34  C   UNL     1       9.552  -3.408 -22.477  1.00  0.00     0.005 C 
ENDBRANCH  31  33
ENDBRANCH  13  31
BRANCH  14  35
HETATM   35  C   UNL     1      13.553   5.665 -23.474  1.00  0.00     0.010 C 
HETATM   36  C   UNL     1      13.185   6.885 -24.316  1.00  0.00     0.012 C 
HETATM   37  C   UNL     1      14.000   6.095 -22.077  1.00  0.00     0.012 C 
ENDBRANCH  14  35
BRANCH  16  38
HETATM   38  C   UNL     1       7.655   1.702 -19.981  1.00  0.00     0.016 C 
HETATM   39  C   UNL     1       6.375   1.911 -19.175  1.00  0.00     0.012 C 
HETATM   40  C   UNL     1       8.488   2.983 -20.007  1.00  0.00     0.012 C 
ENDBRANCH  16  38
BRANCH  18  41
HETATM   41  C   UNL     1       9.375   7.316 -25.122  1.00  0.00     0.016 C 
HETATM   42  C   UNL     1       8.065   8.057 -25.379  1.00  0.00     0.012 C 
HETATM   43  C   UNL     1      10.338   7.508 -26.291  1.00  0.00     0.012 C 
ENDBRANCH  18  41
BRANCH  15  44
HETATM   44  C   UNL     1       4.754   4.259 -24.078  1.00  0.00     0.010 C 
HETATM   45  C   UNL     1       3.729   5.251 -23.535  1.00  0.00     0.012 C 
HETATM   46  C   UNL     1       4.155   2.859 -24.167  1.00  0.00     0.012 C 
ENDBRANCH  15  44
TORSDOF 7
ENDMDL
MODEL 7
REMARK VINA RESULT:    -3.376      2.530      7.017
REMARK INTER + INTRA:          -3.765
REMARK INTER:                  -5.221
REMARK INTRA:                   1.456
REMARK UNBOUND:                 0.992
REMARK  7 active torsions:
REMARK  status: ('A' for Active; 'I' for Inactive)
REMARK    1  A    between atoms: C_13  and  C_14 
REMARK    2  A    between atoms: C_14  and  C_19 
REMARK    3  A    between atoms: C_15  and  C_20 
REMARK    4  A    between atoms: C_16  and  C_21 
REMARK    5  A    between atoms: C_17  and  C_23 
REMARK    6  A    between atoms: C_18  and  C_26 
REMARK    7  A    between atoms: C_22  and  C_28 
ROOT
HETATM    1  O   UNL     1       6.509   3.475 -23.373  1.00  0.00    -0.304 OA
HETATM    2  O   UNL     1      11.674   3.686 -24.123  1.00  0.00    -0.304 OA
HETATM    3  O   UNL     1       9.240   7.719 -24.518  1.00  0.00    -0.304 OA
HETATM    4  O   UNL     1       9.127   2.044 -25.132  1.00  0.00    -0.270 OA
HETATM    5  O   UNL     1       8.072   4.234 -21.857  1.00  0.00    -0.263 OA
HETATM    6  O   UNL     1       7.656   4.581 -25.417  1.00  0.00    -0.270 OA
HETATM    7  O   UNL     1      12.408   7.576 -25.192  1.00  0.00    -0.270 OA
HETATM    8  O   UNL     1      13.896   3.219 -23.769  1.00  0.00    -0.263 OA
HETATM    9  O   UNL     1       9.892   7.959 -26.712  1.00  0.00    -0.263 OA
HETATM   10  N   UNL     1       9.525   2.000 -22.846  1.00  0.00    -0.340 N 
HETATM   11  N   UNL     1       6.870   6.730 -25.081  1.00  0.00    -0.340 N 
HETATM   12  N   UNL     1      11.857   6.250 -23.362  1.00  0.00    -0.340 N 
HETATM   13  C   UNL     1       8.077   1.907 -22.569  1.00  0.00     0.190 C 
HETATM   14  C   UNL     1       7.647   7.216 -26.242  1.00  0.00     0.190 C 
HETATM   15  C   UNL     1      13.117   5.483 -23.436  1.00  0.00     0.190 C 
HETATM   16  C   UNL     1      11.411   2.313 -24.473  1.00  0.00     0.227 C 
HETATM   17  C   UNL     1       6.059   4.819 -23.652  1.00  0.00     0.227 C 
HETATM   18  C   UNL     1      10.458   8.243 -23.959  1.00  0.00     0.227 C 
HETATM   19  C   UNL     1       9.925   2.105 -24.190  1.00  0.00     0.250 C 
HETATM   20  C   UNL     1       7.571   3.340 -22.525  1.00  0.00     0.283 C 
HETATM   21  C   UNL     1       6.933   5.360 -24.787  1.00  0.00     0.250 C 
HETATM   22  C   UNL     1      11.660   7.328 -24.242  1.00  0.00     0.250 C 
HETATM   23  C   UNL     1      12.953   4.004 -23.777  1.00  0.00     0.283 C 
HETATM   24  C   UNL     1       9.059   7.658 -25.865  1.00  0.00     0.283 C 
HETATM   25  C   UNL     1      10.442   2.014 -21.702  1.00  0.00     0.153 C 
HETATM   26  C   UNL     1       6.120   7.715 -24.298  1.00  0.00     0.153 C 
HETATM   27  C   UNL     1      10.951   5.959 -22.250  1.00  0.00     0.153 C 
ENDROOT
BRANCH  17  28
HETATM   28  C   UNL     1       4.607   4.715 -24.095  1.00  0.00     0.016 C 
HETATM   29  C   UNL     1       4.117   3.270 -24.001  1.00  0.00     0.012 C 
HETATM   30  C   UNL     1       3.720   5.636 -23.259  1.00  0.00     0.012 C 
ENDBRANCH  17  28
BRANCH  13  31
HETATM   31  C   UNL     1       7.687   1.172 -21.292  1.00  0.00     0.014 C 
HETATM   32  C   UNL     1       6.371   1.734 -20.750  1.00  0.00     0.012 C 
BRANCH  31  33
HETATM   33  C   UNL     1       7.609  -0.341 -21.560  1.00  0.00     0.002 C 
HETATM   34  C   UNL     1       7.299  -0.692 -23.008  1.00  0.00     0.005 C 
ENDBRANCH  31  33
ENDBRANCH  13  31
BRANCH  14  35
HETATM   35  C   UNL     1       6.951   8.328 -27.026  1.00  0.00     0.010 C 
HETATM   36  C   UNL     1       5.519   7.928 -27.375  1.00  0.00     0.012 C 
HETATM   37  C   UNL     1       6.963   9.636 -26.234  1.00  0.00     0.012 C 
ENDBRANCH  14  35
BRANCH  16  38
HETATM   38  C   UNL     1      11.737   2.113 -25.951  1.00  0.00     0.016 C 
HETATM   39  C   UNL     1      12.946   1.194 -26.117  1.00  0.00     0.012 C 
HETATM   40  C   UNL     1      11.988   3.457 -26.634  1.00  0.00     0.012 C 
ENDBRANCH  16  38
BRANCH  18  41
HETATM   41  C   UNL     1      10.704   9.689 -24.388  1.00  0.00     0.016 C 
HETATM   42  C   UNL     1      12.021  10.203 -23.812  1.00  0.00     0.012 C 
HETATM   43  C   UNL     1       9.543  10.581 -23.953  1.00  0.00     0.012 C 
ENDBRANCH  18  41
BRANCH  15  44
HETATM   44  C   UNL     1      13.944   5.649 -22.160  1.00  0.00     0.010 C 
HETATM   45  C   UNL     1      13.369   4.794 -21.035  1.00  0.00     0.012 C 
HETATM   46  C   UNL     1      14.000   7.117 -21.748  1.00  0.00     0.012 C 
ENDBRANCH  15  44
TORSDOF 7
ENDMDL
MODEL 8
REMARK VINA RESULT:    -3.341      2.013      6.307
REMARK INTER + INTRA:          -3.715
REMARK INTER:                  -6.915
REMARK INTRA:                   3.200
REMARK UNBOUND:                 0.992
REMARK  7 active torsions:
REMARK  status: ('A' for Active; 'I' for Inactive)
REMARK    1  A    between atoms: C_13  and  C_14 
REMARK    2  A    between atoms: C_14  and  C_19 
REMARK    3  A    between atoms: C_15  and  C_20 
REMARK    4  A    between atoms: C_16  and  C_21 
REMARK    5  A    between atoms: C_17  and  C_23 
REMARK    6  A    between atoms: C_18  and  C_26 
REMARK    7  A    between atoms: C_22  and  C_28 
ROOT
HETATM    1  O   UNL     1      12.091   9.112 -22.210  1.00  0.00    -0.304 OA
HETATM    2  O   UNL     1       8.067  10.500 -25.239  1.00  0.00    -0.304 OA
HETATM    3  O   UNL     1       8.451   5.937 -24.067  1.00  0.00    -0.304 OA
HETATM    4  O   UNL     1      11.244  10.805 -25.111  1.00  0.00    -0.270 OA
HETATM    5  O   UNL     1       9.909   9.399 -21.523  1.00  0.00    -0.263 OA
HETATM    6  O   UNL     1      11.450   7.945 -24.434  1.00  0.00    -0.270 OA
HETATM    7  O   UNL     1       6.183   6.971 -26.139  1.00  0.00    -0.270 OA
HETATM    8  O   UNL     1       6.321  11.786 -25.999  1.00  0.00    -0.263 OA
HETATM    9  O   UNL     1       8.648   5.331 -26.279  1.00  0.00    -0.263 OA
HETATM   10  N   UNL     1      10.069  11.624 -23.285  1.00  0.00    -0.340 N 
HETATM   11  N   UNL     1      11.030   5.844 -23.564  1.00  0.00    -0.340 N 
HETATM   12  N   UNL     1       6.514   8.481 -24.401  1.00  0.00    -0.340 N 
HETATM   13  C   UNL     1      11.187  11.284 -22.380  1.00  0.00     0.190 C 
HETATM   14  C   UNL     1      10.625   5.351 -24.899  1.00  0.00     0.190 C 
HETATM   15  C   UNL     1       5.846   9.584 -25.124  1.00  0.00     0.190 C 
HETATM   16  C   UNL     1       9.012  11.540 -25.560  1.00  0.00     0.227 C 
HETATM   17  C   UNL     1      11.980   7.675 -22.117  1.00  0.00     0.227 C 
HETATM   18  C   UNL     1       7.016   6.046 -24.086  1.00  0.00     0.227 C 
HETATM   19  C   UNL     1      10.207  11.291 -24.644  1.00  0.00     0.250 C 
HETATM   20  C   UNL     1      10.961   9.839 -21.968  1.00  0.00     0.283 C 
HETATM   21  C   UNL     1      11.463   7.174 -23.468  1.00  0.00     0.250 C 
HETATM   22  C   UNL     1       6.540   7.201 -24.980  1.00  0.00     0.250 C 
HETATM   23  C   UNL     1       6.753  10.755 -25.493  1.00  0.00     0.283 C 
HETATM   24  C   UNL     1       9.137   5.550 -25.176  1.00  0.00     0.283 C 
HETATM   25  C   UNL     1       8.880  12.250 -22.698  1.00  0.00     0.153 C 
HETATM   26  C   UNL     1      10.917   4.923 -22.431  1.00  0.00     0.153 C 
HETATM   27  C   UNL     1       6.958   8.741 -23.031  1.00  0.00     0.153 C 
ENDROOT
BRANCH  17  28
HETATM   28  C   UNL     1      13.379   7.142 -21.847  1.00  0.00     0.016 C 
HETATM   29  C   UNL     1      13.348   6.073 -20.754  1.00  0.00     0.012 C 
HETATM   30  C   UNL     1      14.000   6.581 -23.126  1.00  0.00     0.012 C 
ENDBRANCH  17  28
BRANCH  13  31
HETATM   31  C   UNL     1      11.340  12.166 -21.146  1.00  0.00     0.014 C 
HETATM   32  C   UNL     1      12.787  12.123 -20.653  1.00  0.00     0.012 C 
BRANCH  31  33
HETATM   33  C   UNL     1      10.874  13.598 -21.463  1.00  0.00     0.002 C 
HETATM   34  C   UNL     1      11.940  14.657 -21.217  1.00  0.00     0.005 C 
ENDBRANCH  31  33
ENDBRANCH  13  31
BRANCH  14  35
HETATM   35  C   UNL     1      11.008   3.895 -25.159  1.00  0.00     0.010 C 
HETATM   36  C   UNL     1       9.963   3.211 -26.037  1.00  0.00     0.012 C 
HETATM   37  C   UNL     1      12.390   3.806 -25.806  1.00  0.00     0.012 C 
ENDBRANCH  14  35
BRANCH  16  38
HETATM   38  C   UNL     1       9.394  11.416 -27.032  1.00  0.00     0.016 C 
HETATM   39  C   UNL     1       9.762   9.974 -27.375  1.00  0.00     0.012 C 
HETATM   40  C   UNL     1      10.548  12.358 -27.371  1.00  0.00     0.012 C 
ENDBRANCH  16  38
BRANCH  18  41
HETATM   41  C   UNL     1       6.350   4.716 -24.435  1.00  0.00     0.016 C 
HETATM   42  C   UNL     1       4.899   4.701 -23.960  1.00  0.00     0.012 C 
HETATM   43  C   UNL     1       7.126   3.551 -23.826  1.00  0.00     0.012 C 
ENDBRANCH  18  41
BRANCH  15  44
HETATM   44  C   UNL     1       4.614  10.080 -24.365  1.00  0.00     0.010 C 
HETATM   45  C   UNL     1       5.030  10.860 -23.122  1.00  0.00     0.012 C 
HETATM   46  C   UNL     1       3.711   8.908 -23.990  1.00  0.00     0.012 C 
ENDBRANCH  15  44
TORSDOF 7
ENDMDL
MODEL 9
REMARK VINA RESULT:    -3.287      2.154      6.674
REMARK INTER + INTRA:          -3.639
REMARK INTER:                  -4.979
REMARK INTRA:                   1.340
REMARK UNBOUND:                 0.992
REMARK  7 active torsions:
REMARK  status: ('A' for Active; 'I' for Inactive)
REMARK    1  A    between atoms: C_13  and  C_14 
REMARK    2  A    between atoms: C_14  and  C_19 
REMARK    3  A    between atoms: C_15  and  C_20 
REMARK    4  A    between atoms: C_16  and  C_21 
REMARK    5  A    between atoms: C_17  and  C_23 
REMARK    6  A    between atoms: C_18  and  C_26 
REMARK    7  A    between atoms: C_22  and  C_28 
ROOT
HETATM    1  O   UNL     1       9.196   9.549 -24.585  1.00  0.00    -0.304 OA
HETATM    2  O   UNL     1      12.099   5.424 -23.224  1.00  0.00    -0.304 OA
HETATM    3  O   UNL     1       8.009   4.585 -25.439  1.00  0.00    -0.304 OA
HETATM    4  O   UNL     1      10.862   8.071 -21.932  1.00  0.00    -0.270 OA
HETATM    5  O   UNL     1      10.541   8.310 -25.991  1.00  0.00    -0.263 OA
HETATM    6  O   UNL     1       8.311   7.489 -23.285  1.00  0.00    -0.270 OA
HETATM    7  O   UNL     1       9.838   2.172 -24.281  1.00  0.00    -0.270 OA
HETATM    8  O   UNL     1      14.000   4.173 -22.905  1.00  0.00    -0.263 OA
HETATM    9  O   UNL     1       7.216   3.394 -23.636  1.00  0.00    -0.263 OA
HETATM   10  N   UNL     1      12.278   8.389 -23.743  1.00  0.00    -0.340 N 
HETATM   11  N   UNL     1       6.736   6.805 -24.836  1.00  0.00    -0.340 N 
HETATM   12  N   UNL     1      11.135   3.876 -25.189  1.00  0.00    -0.340 N 
HETATM   13  C   UNL     1      11.517   9.584 -24.162  1.00  0.00     0.190 C 
HETATM   14  C   UNL     1       6.396   5.633 -24.002  1.00  0.00     0.190 C 
HETATM   15  C   UNL     1      12.364   3.411 -24.512  1.00  0.00     0.190 C 
HETATM   16  C   UNL     1      12.535   6.390 -22.247  1.00  0.00     0.227 C 
HETATM   17  C   UNL     1       7.998   8.965 -25.141  1.00  0.00     0.227 C 
HETATM   18  C   UNL     1       8.787   3.503 -25.981  1.00  0.00     0.227 C 
HETATM   19  C   UNL     1      11.817   7.686 -22.616  1.00  0.00     0.250 C 
HETATM   20  C   UNL     1      10.390   9.069 -25.043  1.00  0.00     0.283 C 
HETATM   21  C   UNL     1       7.703   7.693 -24.342  1.00  0.00     0.250 C 
HETATM   22  C   UNL     1       9.957   3.120 -25.063  1.00  0.00     0.250 C 
HETATM   23  C   UNL     1      12.929   4.373 -23.470  1.00  0.00     0.283 C 
HETATM   24  C   UNL     1       7.258   4.413 -24.318  1.00  0.00     0.283 C 
HETATM   25  C   UNL     1      13.438   7.998 -24.551  1.00  0.00     0.153 C 
HETATM   26  C   UNL     1       6.070   6.940 -26.133  1.00  0.00     0.153 C 
HETATM   27  C   UNL     1      11.256   5.010 -26.107  1.00  0.00     0.153 C 
ENDROOT
BRANCH  17  28
HETATM   28  C   UNL     1       6.884   9.986 -24.957  1.00  0.00     0.016 C 
HETATM   29  C   UNL     1       6.432  10.033 -23.498  1.00  0.00     0.012 C 
HETATM   30  C   UNL     1       7.338  11.370 -25.421  1.00  0.00     0.012 C 
ENDBRANCH  17  28
BRANCH  13  31
HETATM   31  C   UNL     1      12.310  10.658 -24.897  1.00  0.00     0.014 C 
HETATM   32  C   UNL     1      11.362  11.536 -25.716  1.00  0.00     0.012 C 
BRANCH  31  33
HETATM   33  C   UNL     1      13.142  11.476 -23.893  1.00  0.00     0.002 C 
HETATM   34  C   UNL     1      12.841  12.968 -23.921  1.00  0.00     0.005 C 
ENDBRANCH  31  33
ENDBRANCH  13  31
BRANCH  14  35
HETATM   35  C   UNL     1       4.918   5.247 -24.056  1.00  0.00     0.010 C 
HETATM   36  C   UNL     1       4.619   4.116 -23.075  1.00  0.00     0.012 C 
HETATM   37  C   UNL     1       4.033   6.458 -23.761  1.00  0.00     0.012 C 
ENDBRANCH  14  35
BRANCH  16  38
HETATM   38  C   UNL     1      12.133   5.898 -20.859  1.00  0.00     0.016 C 
HETATM   39  C   UNL     1      13.369   5.583 -20.019  1.00  0.00     0.012 C 
HETATM   40  C   UNL     1      11.230   4.670 -20.963  1.00  0.00     0.012 C 
ENDBRANCH  16  38
BRANCH  18  41
HETATM   41  C   UNL     1       7.913   2.306 -26.353  1.00  0.00     0.016 C 
HETATM   42  C   UNL     1       8.769   1.163 -26.894  1.00  0.00     0.012 C 
HETATM   43  C   UNL     1       6.853   2.712 -27.375  1.00  0.00     0.012 C 
ENDBRANCH  18  41
BRANCH  15  44
HETATM   44  C   UNL     1      13.443   3.024 -25.525  1.00  0.00     0.010 C 
HETATM   45  C   UNL     1      13.955   4.260 -26.259  1.00  0.00     0.012 C 
HETATM   46  C   UNL     1      12.903   1.995 -26.513  1.00  0.00     0.012 C 
ENDBRANCH  15  44
TORSDOF 7
ENDMDL
MODEL 10
REMARK VINA RESULT:    -3.244      1.918      6.590
REMARK INTER + INTRA:          -3.580
REMARK INTER:                  -5.375
REMARK INTRA:                   1.795
REMARK UNBOUND:                 0.992
REMARK  7 active torsions:
REMARK  status: ('A' for Active; 'I' for Inactive)
REMARK    1  A    between atoms: C_13  and  C_14 
REMARK    2  A    between atoms: C_14  and  C_19 
REMARK    3  A    between atoms: C_15  and  C_20 
REMARK    4  A    between atoms: C_16  and  C_21 
REMARK    5  A    between atoms: C_17  and  C_23 
REMARK    6  A    between atoms: C_18  and  C_26 
REMARK    7  A    between atoms: C_22  and  C_28 
ROOT
HETATM    1  O   UNL     1       6.412   6.352 -24.728  1.00  0.00    -0.304 OA
HETATM    2  O   UNL     1      11.374   4.721 -24.781  1.00  0.00    -0.304 OA
HETATM    3  O   UNL     1      10.587   9.306 -23.941  1.00  0.00    -0.304 OA
HETATM    4  O   UNL     1       8.745   4.597 -26.591  1.00  0.00    -0.270 OA
HETATM    5  O   UNL     1       7.728   5.947 -22.879  1.00  0.00    -0.263 OA
HETATM    6  O   UNL     1       8.313   7.467 -26.090  1.00  0.00    -0.270 OA
HETATM    7  O   UNL     1      13.591   8.133 -24.271  1.00  0.00    -0.270 OA
HETATM    8  O   UNL     1      13.162   3.335 -24.381  1.00  0.00    -0.263 OA
HETATM    9  O   UNL     1      11.785   9.909 -25.812  1.00  0.00    -0.263 OA
HETATM   10  N   UNL     1       8.548   3.724 -24.449  1.00  0.00    -0.340 N 
HETATM   11  N   UNL     1       8.230   9.547 -25.081  1.00  0.00    -0.340 N 
HETATM   12  N   UNL     1      12.211   6.655 -23.122  1.00  0.00    -0.340 N 
HETATM   13  C   UNL     1       7.129   4.132 -24.385  1.00  0.00     0.190 C 
HETATM   14  C   UNL     1       9.377  10.008 -25.893  1.00  0.00     0.190 C 
HETATM   15  C   UNL     1      13.124   5.512 -23.333  1.00  0.00     0.190 C 
HETATM   16  C   UNL     1      10.761   3.735 -25.634  1.00  0.00     0.227 C 
HETATM   17  C   UNL     1       6.514   7.781 -24.545  1.00  0.00     0.227 C 
HETATM   18  C   UNL     1      11.739   9.116 -23.101  1.00  0.00     0.227 C 
HETATM   19  C   UNL     1       9.269   4.056 -25.610  1.00  0.00     0.250 C 
HETATM   20  C   UNL     1       7.133   5.564 -23.878  1.00  0.00     0.283 C 
HETATM   21  C   UNL     1       7.762   8.244 -25.302  1.00  0.00     0.250 C 
HETATM   22  C   UNL     1      12.599   7.931 -23.564  1.00  0.00     0.250 C 
HETATM   23  C   UNL     1      12.564   4.392 -24.206  1.00  0.00     0.283 C 
HETATM   24  C   UNL     1      10.723   9.724 -25.229  1.00  0.00     0.283 C 
HETATM   25  C   UNL     1       9.116   3.035 -23.286  1.00  0.00     0.153 C 
HETATM   26  C   UNL     1       7.686  10.467 -24.080  1.00  0.00     0.153 C 
HETATM   27  C   UNL     1      11.022   6.428 -22.299  1.00  0.00     0.153 C 
ENDROOT
BRANCH  17  28
HETATM   28  C   UNL     1       5.260   8.394 -25.152  1.00  0.00     0.016 C 
HETATM   29  C   UNL     1       5.275   8.257 -26.673  1.00  0.00     0.012 C 
HETATM   30  C   UNL     1       4.006   7.745 -24.568  1.00  0.00     0.012 C 
ENDBRANCH  17  28
BRANCH  13  31
HETATM   31  C   UNL     1       6.224   3.267 -23.515  1.00  0.00     0.014 C 
HETATM   32  C   UNL     1       5.289   4.157 -22.694  1.00  0.00     0.012 C 
BRANCH  31  33
HETATM   33  C   UNL     1       5.455   2.263 -24.392  1.00  0.00     0.002 C 
HETATM   34  C   UNL     1       6.293   1.074 -24.839  1.00  0.00     0.005 C 
ENDBRANCH  31  33
ENDBRANCH  13  31
BRANCH  14  35
HETATM   35  C   UNL     1       9.299  11.482 -26.288  1.00  0.00     0.010 C 
HETATM   36  C   UNL     1      10.468  11.861 -27.194  1.00  0.00     0.012 C 
HETATM   37  C   UNL     1       7.968  11.787 -26.976  1.00  0.00     0.012 C 
ENDBRANCH  14  35
BRANCH  16  38
HETATM   38  C   UNL     1      11.345   3.871 -27.038  1.00  0.00     0.016 C 
HETATM   39  C   UNL     1      12.224   2.668 -27.375  1.00  0.00     0.012 C 
HETATM   40  C   UNL     1      12.141   5.168 -27.167  1.00  0.00     0.012 C 
ENDBRANCH  16  38
BRANCH  18  41
HETATM   41  C   UNL     1      12.546  10.405 -22.943  1.00  0.00     0.016 C 
HETATM   42  C   UNL     1      13.972  10.093 -22.496  1.00  0.00     0.012 C 
HETATM   43  C   UNL     1      11.866  11.345 -21.950  1.00  0.00     0.012 C 
ENDBRANCH  18  41
BRANCH  15  44
HETATM   44  C   UNL     1      13.629   4.952 -22.002  1.00  0.00     0.010 C 
HETATM   45  C   UNL     1      12.579   4.042 -21.372  1.00  0.00     0.012 C 
HETATM   46  C   UNL     1      13.999   6.087 -21.052  1.00  0.00     0.012 C 
ENDBRANCH  15  44
TORSDOF 7
ENDMDL
MODEL 11
REMARK VINA RESULT:    -3.017      4.368      8.503
REMARK INTER + INTRA:          -3.259
REMARK INTER:                  -5.676
REMARK INTRA:                   2.417
REMARK UNBOUND:                 0.992
REMARK  7 active torsions:
REMARK  status: ('A' for Active; 'I' for Inactive)
REMARK    1  A    between atoms: C_13  and  C_14 
REMARK    2  A    between atoms: C_14  and  C_19 
REMARK    3  A    between atoms: C_15  and  C_20 
REMARK    4  A    between atoms: C_16  and  C_21 
REMARK    5  A    between atoms: C_17  and  C_23 
REMARK    6  A    between atoms: C_18  and  C_26 
REMARK    7  A    between atoms: C_22  and  C_28 
ROOT
HETATM    1  O   UNL     1       9.950   3.931 -20.633  1.00  0.00    -0.304 OA
HETATM    2  O   UNL     1       7.261   1.253 -24.223  1.00  0.00    -0.304 OA
HETATM    3  O   UNL     1      11.773   2.282 -25.186  1.00  0.00    -0.304 OA
HETATM    4  O   UNL     1       7.021   3.919 -22.481  1.00  0.00    -0.270 OA
HETATM    5  O   UNL     1      10.087   1.662 -21.020  1.00  0.00    -0.263 OA
HETATM    6  O   UNL     1       9.819   4.557 -23.144  1.00  0.00    -0.270 OA
HETATM    7  O   UNL     1       9.854   0.855 -27.375  1.00  0.00    -0.270 OA
HETATM    8  O   UNL     1       5.792  -0.304 -25.056  1.00  0.00    -0.263 OA
HETATM    9  O   UNL     1      11.155   3.497 -27.041  1.00  0.00    -0.263 OA
HETATM   10  N   UNL     1       7.271   1.944 -21.288  1.00  0.00    -0.340 N 
HETATM   11  N   UNL     1      12.075   4.373 -23.621  1.00  0.00    -0.340 N 
HETATM   12  N   UNL     1       9.445   0.064 -25.226  1.00  0.00    -0.340 N 
HETATM   13  C   UNL     1       8.011   2.651 -20.223  1.00  0.00     0.190 C 
HETATM   14  C   UNL     1      11.818   4.678 -25.045  1.00  0.00     0.190 C 
HETATM   15  C   UNL     1       8.137  -0.513 -25.600  1.00  0.00     0.190 C 
HETATM   16  C   UNL     1       6.191   1.949 -23.554  1.00  0.00     0.227 C 
HETATM   17  C   UNL     1      11.233   4.161 -21.255  1.00  0.00     0.227 C 
HETATM   18  C   UNL     1      11.690   0.999 -25.834  1.00  0.00     0.227 C 
HETATM   19  C   UNL     1       6.857   2.696 -22.402  1.00  0.00     0.250 C 
HETATM   20  C   UNL     1       9.466   2.654 -20.662  1.00  0.00     0.283 C 
HETATM   21  C   UNL     1      10.976   4.376 -22.750  1.00  0.00     0.250 C 
HETATM   22  C   UNL     1      10.247   0.646 -26.223  1.00  0.00     0.250 C 
HETATM   23  C   UNL     1       6.930   0.135 -24.927  1.00  0.00     0.283 C 
HETATM   24  C   UNL     1      11.527   3.429 -25.874  1.00  0.00     0.283 C 
HETATM   25  C   UNL     1       7.051   0.503 -21.130  1.00  0.00     0.153 C 
HETATM   26  C   UNL     1      13.448   4.052 -23.226  1.00  0.00     0.153 C 
HETATM   27  C   UNL     1       9.919  -0.162 -23.860  1.00  0.00     0.153 C 
ENDROOT
BRANCH  17  28
HETATM   28  C   UNL     1      11.810   5.420 -20.623  1.00  0.00     0.016 C 
HETATM   29  C   UNL     1      13.267   5.201 -20.220  1.00  0.00     0.012 C 
HETATM   30  C   UNL     1      11.690   6.607 -21.578  1.00  0.00     0.012 C 
ENDBRANCH  17  28
BRANCH  13  31
HETATM   31  C   UNL     1       7.886   2.066 -18.821  1.00  0.00     0.014 C 
HETATM   32  C   UNL     1       8.702   2.901 -17.834  1.00  0.00     0.012 C 
BRANCH  31  33
HETATM   33  C   UNL     1       6.402   1.974 -18.421  1.00  0.00     0.002 C 
HETATM   34  C   UNL     1       5.748   3.328 -18.183  1.00  0.00     0.005 C 
ENDBRANCH  31  33
ENDBRANCH  13  31
BRANCH  14  35
HETATM   35  C   UNL     1      12.930   5.490 -25.710  1.00  0.00     0.010 C 
HETATM   36  C   UNL     1      12.856   5.362 -27.230  1.00  0.00     0.012 C 
HETATM   37  C   UNL     1      12.850   6.958 -25.293  1.00  0.00     0.012 C 
ENDBRANCH  14  35
BRANCH  16  38
HETATM   38  C   UNL     1       5.536   2.908 -24.545  1.00  0.00     0.016 C 
HETATM   39  C   UNL     1       6.595   3.656 -25.352  1.00  0.00     0.012 C 
HETATM   40  C   UNL     1       4.622   3.893 -23.818  1.00  0.00     0.012 C 
ENDBRANCH  16  38
BRANCH  18  41
HETATM   41  C   UNL     1      12.661   0.892 -27.009  1.00  0.00     0.016 C 
HETATM   42  C   UNL     1      12.906  -0.571 -27.371  1.00  0.00     0.012 C 
HETATM   43  C   UNL     1      13.979   1.591 -26.681  1.00  0.00     0.012 C 
ENDBRANCH  18  41
BRANCH  15  44
HETATM   44  C   UNL     1       8.118  -2.028 -25.389  1.00  0.00     0.010 C 
HETATM   45  C   UNL     1       7.453  -2.724 -26.573  1.00  0.00     0.012 C 
HETATM   46  C   UNL     1       7.404  -2.377 -24.087  1.00  0.00     0.012 C 
ENDBRANCH  15  44
TORSDOF 7
ENDMDL
MODEL 12
REMARK VINA RESULT:    -2.658      2.105      6.549
REMARK INTER + INTRA:          -2.753
REMARK INTER:                  -5.155
REMARK INTRA:                   2.402
REMARK UNBOUND:                 0.992
REMARK  7 active torsions:
REMARK  status: ('A' for Active; 'I' for Inactive)
REMARK    1  A    between atoms: C_13  and  C_14 
REMARK    2  A    between atoms: C_14  and  C_19 
REMARK    3  A    between atoms: C_15  and  C_20 
REMARK    4  A    between atoms: C_16  and  C_21 
REMARK    5  A    between atoms: C_17  and  C_23 
REMARK    6  A    between atoms: C_18  and  C_26 
REMARK    7  A    between atoms: C_22  and  C_28 
ROOT
HETATM    1  O   UNL     1       7.603   9.236 -25.060  1.00  0.00    -0.304 OA
HETATM    2  O   UNL     1       8.085   4.038 -24.866  1.00  0.00    -0.304 OA
HETATM    3  O   UNL     1      11.711   6.632 -23.293  1.00  0.00    -0.304 OA
HETATM    4  O   UNL     1       7.333   6.343 -26.945  1.00  0.00    -0.270 OA
HETATM    5  O   UNL     1       7.361   7.918 -23.183  1.00  0.00    -0.263 OA
HETATM    6  O   UNL     1       9.632   7.911 -25.978  1.00  0.00    -0.270 OA
HETATM    7  O   UNL     1      11.899   3.402 -23.500  1.00  0.00    -0.270 OA
HETATM    8  O   UNL     1       7.454   1.854 -24.534  1.00  0.00    -0.263 OA
HETATM    9  O   UNL     1      13.114   5.728 -24.878  1.00  0.00    -0.263 OA
HETATM   10  N   UNL     1       6.020   6.229 -25.035  1.00  0.00    -0.340 N 
HETATM   11  N   UNL     1      11.250   8.854 -24.621  1.00  0.00    -0.340 N 
HETATM   12  N   UNL     1       9.793   4.099 -22.800  1.00  0.00    -0.340 N 
HETATM   13  C   UNL     1       5.820   7.693 -25.054  1.00  0.00     0.190 C 
HETATM   14  C   UNL     1      12.282   7.969 -25.203  1.00  0.00     0.190 C 
HETATM   15  C   UNL     1       9.168   2.797 -23.115  1.00  0.00     0.190 C 
HETATM   16  C   UNL     1       7.143   4.178 -25.948  1.00  0.00     0.227 C 
HETATM   17  C   UNL     1       8.886   9.725 -24.608  1.00  0.00     0.227 C 
HETATM   18  C   UNL     1      11.811   5.524 -22.379  1.00  0.00     0.227 C 
HETATM   19  C   UNL     1       6.845   5.672 -26.029  1.00  0.00     0.250 C 
HETATM   20  C   UNL     1       6.998   8.281 -24.295  1.00  0.00     0.283 C 
HETATM   21  C   UNL     1       9.947   8.749 -25.127  1.00  0.00     0.250 C 
HETATM   22  C   UNL     1      11.182   4.247 -22.955  1.00  0.00     0.250 C 
HETATM   23  C   UNL     1       8.131   2.833 -24.234  1.00  0.00     0.283 C 
HETATM   24  C   UNL     1      12.411   6.642 -24.459  1.00  0.00     0.283 C 
HETATM   25  C   UNL     1       5.378   5.463 -23.962  1.00  0.00     0.153 C 
HETATM   26  C   UNL     1      11.651   9.750 -23.534  1.00  0.00     0.153 C 
HETATM   27  C   UNL     1       8.953   5.117 -22.167  1.00  0.00     0.153 C 
ENDROOT
BRANCH  17  28
HETATM   28  C   UNL     1       9.075  11.102 -25.226  1.00  0.00     0.016 C 
HETATM   29  C   UNL     1       7.832  11.516 -26.012  1.00  0.00     0.012 C 
HETATM   30  C   UNL     1       9.396  12.137 -24.149  1.00  0.00     0.012 C 
ENDBRANCH  17  28
BRANCH  13  31
HETATM   31  C   UNL     1       4.508   8.195 -24.461  1.00  0.00     0.014 C 
HETATM   32  C   UNL     1       4.698   9.605 -23.899  1.00  0.00     0.012 C 
BRANCH  31  33
HETATM   33  C   UNL     1       3.395   8.134 -25.521  1.00  0.00     0.002 C 
HETATM   34  C   UNL     1       3.795   8.730 -26.864  1.00  0.00     0.005 C 
ENDBRANCH  31  33
ENDBRANCH  13  31
BRANCH  14  35
HETATM   35  C   UNL     1      13.657   8.625 -25.328  1.00  0.00     0.010 C 
HETATM   36  C   UNL     1      13.709   9.541 -26.549  1.00  0.00     0.012 C 
HETATM   37  C   UNL     1      14.000   9.405 -24.059  1.00  0.00     0.012 C 
ENDBRANCH  14  35
BRANCH  16  38
HETATM   38  C   UNL     1       7.790   3.660 -27.230  1.00  0.00     0.016 C 
HETATM   39  C   UNL     1       7.572   2.155 -27.375  1.00  0.00     0.012 C 
HETATM   40  C   UNL     1       9.281   3.990 -27.252  1.00  0.00     0.012 C 
ENDBRANCH  16  38
BRANCH  18  41
HETATM   41  C   UNL     1      13.247   5.311 -21.901  1.00  0.00     0.016 C 
HETATM   42  C   UNL     1      13.275   4.392 -20.682  1.00  0.00     0.012 C 
HETATM   43  C   UNL     1      13.909   6.649 -21.580  1.00  0.00     0.012 C 
ENDBRANCH  18  41
BRANCH  15  44
HETATM   44  C   UNL     1       8.582   2.144 -21.862  1.00  0.00     0.010 C 
HETATM   45  C   UNL     1       7.182   2.684 -21.584  1.00  0.00     0.012 C 
HETATM   46  C   UNL     1       9.497   2.374 -20.663  1.00  0.00     0.012 C 
ENDBRANCH  15  44
TORSDOF 7
ENDMDL
MODEL 13
REMARK VINA RESULT:    -2.533      2.574      7.298
REMARK INTER + INTRA:          -2.578
REMARK INTER:                  -4.781
REMARK INTRA:                   2.203
REMARK UNBOUND:                 0.992
REMARK  7 active torsions:
REMARK  status: ('A' for Active; 'I' for Inactive)
REMARK    1  A    between atoms: C_13  and  C_14 
REMARK    2  A    between atoms: C_14  and  C_19 
REMARK    3  A    between atoms: C_15  and  C_20 
REMARK    4  A    between atoms: C_16  and  C_21 
REMARK    5  A    between atoms: C_17  and  C_23 
REMARK    6  A    between atoms: C_18  and  C_26 
REMARK    7  A    between atoms: C_22  and  C_28 
ROOT
HETATM    1  O   UNL     1       9.249   7.768 -24.388  1.00  0.00    -0.304 OA
HETATM    2  O   UNL     1      12.136   3.493 -23.564  1.00  0.00    -0.304 OA
HETATM    3  O   UNL     1       7.688   2.878 -25.040  1.00  0.00    -0.304 OA
HETATM    4  O   UNL     1      11.273   6.180 -22.069  1.00  0.00    -0.270 OA
HETATM    5  O   UNL     1      10.267   6.482 -26.010  1.00  0.00    -0.263 OA
HETATM    6  O   UNL     1       8.501   5.738 -22.961  1.00  0.00    -0.270 OA
HETATM    7  O   UNL     1       9.568   0.366 -24.225  1.00  0.00    -0.270 OA
HETATM    8  O   UNL     1      13.999   2.148 -23.583  1.00  0.00    -0.263 OA
HETATM    9  O   UNL     1       7.161   1.705 -23.130  1.00  0.00    -0.263 OA
HETATM   10  N   UNL     1      12.369   6.452 -24.097  1.00  0.00    -0.340 N 
HETATM   11  N   UNL     1       6.650   5.149 -24.218  1.00  0.00    -0.340 N 
HETATM   12  N   UNL     1      10.771   2.016 -25.338  1.00  0.00    -0.340 N 
HETATM   13  C   UNL     1      11.606   7.687 -24.373  1.00  0.00     0.190 C 
HETATM   14  C   UNL     1       6.402   3.985 -23.341  1.00  0.00     0.190 C 
HETATM   15  C   UNL     1      12.074   1.485 -24.886  1.00  0.00     0.190 C 
HETATM   16  C   UNL     1      12.781   4.425 -22.674  1.00  0.00     0.227 C 
HETATM   17  C   UNL     1       7.945   7.250 -24.730  1.00  0.00     0.227 C 
HETATM   18  C   UNL     1       8.306   1.766 -25.713  1.00  0.00     0.227 C 
HETATM   19  C   UNL     1      12.076   5.758 -22.909  1.00  0.00     0.250 C 
HETATM   20  C   UNL     1      10.321   7.236 -25.047  1.00  0.00     0.283 C 
HETATM   21  C   UNL     1       7.730   5.984 -23.896  1.00  0.00     0.250 C 
HETATM   22  C   UNL     1       9.597   1.317 -25.012  1.00  0.00     0.250 C 
HETATM   23  C   UNL     1      12.858   2.405 -23.954  1.00  0.00     0.283 C 
HETATM   24  C   UNL     1       7.135   2.728 -23.806  1.00  0.00     0.283 C 
HETATM   25  C   UNL     1      13.351   6.015 -25.094  1.00  0.00     0.153 C 
HETATM   26  C   UNL     1       5.777   5.331 -25.380  1.00  0.00     0.153 C 
HETATM   27  C   UNL     1      10.787   3.153 -26.259  1.00  0.00     0.153 C 
ENDROOT
BRANCH  17  28
HETATM   28  C   UNL     1       6.932   8.321 -24.352  1.00  0.00     0.016 C 
HETATM   29  C   UNL     1       7.599   9.431 -23.542  1.00  0.00     0.012 C 
HETATM   30  C   UNL     1       6.264   8.896 -25.600  1.00  0.00     0.012 C 
ENDBRANCH  17  28
BRANCH  13  31
HETATM   31  C   UNL     1      12.313   8.730 -25.231  1.00  0.00     0.014 C 
HETATM   32  C   UNL     1      11.289   9.480 -26.085  1.00  0.00     0.012 C 
BRANCH  31  33
HETATM   33  C   UNL     1      13.133   9.677 -24.337  1.00  0.00     0.002 C 
HETATM   34  C   UNL     1      12.759   9.604 -22.863  1.00  0.00     0.005 C 
ENDBRANCH  31  33
ENDBRANCH  13  31
BRANCH  14  35
HETATM   35  C   UNL     1       4.920   3.671 -23.140  1.00  0.00     0.010 C 
HETATM   36  C   UNL     1       4.078   4.940 -23.256  1.00  0.00     0.012 C 
HETATM   37  C   UNL     1       4.447   2.623 -24.147  1.00  0.00     0.012 C 
ENDBRANCH  14  35
BRANCH  16  38
HETATM   38  C   UNL     1      12.601   3.936 -21.239  1.00  0.00     0.016 C 
HETATM   39  C   UNL     1      11.143   3.567 -20.974  1.00  0.00     0.012 C 
HETATM   40  C   UNL     1      13.074   4.996 -20.246  1.00  0.00     0.012 C 
ENDBRANCH  16  38
BRANCH  18  41
HETATM   41  C   UNL     1       7.322   0.616 -25.931  1.00  0.00     0.016 C 
HETATM   42  C   UNL     1       8.047  -0.614 -26.473  1.00  0.00     0.012 C 
HETATM   43  C   UNL     1       6.203   1.041 -26.879  1.00  0.00     0.012 C 
ENDBRANCH  18  41
BRANCH  15  44
HETATM   44  C   UNL     1      12.941   1.058 -26.071  1.00  0.00     0.010 C 
HETATM   45  C   UNL     1      13.436   2.281 -26.839  1.00  0.00     0.012 C 
HETATM   46  C   UNL     1      12.164   0.122 -26.991  1.00  0.00     0.012 C 
ENDBRANCH  15  44
TORSDOF 7
ENDMDL
MODEL 14
REMARK VINA RESULT:    -2.517      6.609     11.270
REMARK INTER + INTRA:          -2.555
REMARK INTER:                  -3.981
REMARK INTRA:                   1.426
REMARK UNBOUND:                 0.992
REMARK  7 active torsions:
REMARK  status: ('A' for Active; 'I' for Inactive)
REMARK    1  A    between atoms: C_13  and  C_14 
REMARK    2  A    between atoms: C_14  and  C_19 
REMARK    3  A    between atoms: C_15  and  C_20 
REMARK    4  A    between atoms: C_16  and  C_21 
REMARK    5  A    between atoms: C_17  and  C_23 
REMARK    6  A    between atoms: C_18  and  C_26 
REMARK    7  A    between atoms: C_22  and  C_28 
ROOT
HETATM    1  O   UNL     1      10.471   1.581 -23.136  1.00  0.00    -0.304 OA
HETATM    2  O   UNL     1       6.714  -1.656 -24.780  1.00  0.00    -0.304 OA
HETATM    3  O   UNL     1      10.996  -3.496 -23.989  1.00  0.00    -0.304 OA
HETATM    4  O   UNL     1       8.055   1.131 -25.577  1.00  0.00    -0.270 OA
HETATM    5  O   UNL     1       9.281   0.104 -21.825  1.00  0.00    -0.263 OA
HETATM    6  O   UNL     1      10.710  -0.063 -25.127  1.00  0.00    -0.270 OA
HETATM    7  O   UNL     1       8.594  -5.269 -25.253  1.00  0.00    -0.270 OA
HETATM    8  O   UNL     1       4.613  -2.573 -24.932  1.00  0.00    -0.263 OA
HETATM    9  O   UNL     1      11.177  -4.155 -26.187  1.00  0.00    -0.263 OA
HETATM   10  N   UNL     1       7.134   1.017 -23.450  1.00  0.00    -0.340 N 
HETATM   11  N   UNL     1      12.450  -1.324 -24.271  1.00  0.00    -0.340 N 
HETATM   12  N   UNL     1       7.817  -3.807 -23.619  1.00  0.00    -0.340 N 
HETATM   13  C   UNL     1       8.152   1.955 -22.931  1.00  0.00     0.190 C 
HETATM   14  C   UNL     1      12.407  -2.216 -25.450  1.00  0.00     0.190 C 
HETATM   15  C   UNL     1       6.413  -3.931 -24.061  1.00  0.00     0.190 C 
HETATM   16  C   UNL     1       6.240  -0.405 -25.315  1.00  0.00     0.227 C 
HETATM   17  C   UNL     1      11.651   0.749 -23.082  1.00  0.00     0.227 C 
HETATM   18  C   UNL     1      10.189  -4.616 -23.581  1.00  0.00     0.227 C 
HETATM   19  C   UNL     1       7.220   0.647 -24.804  1.00  0.00     0.250 C 
HETATM   20  C   UNL     1       9.343   1.096 -22.539  1.00  0.00     0.283 C 
HETATM   21  C   UNL     1      11.556  -0.243 -24.244  1.00  0.00     0.250 C 
HETATM   22  C   UNL     1       8.802  -4.594 -24.240  1.00  0.00     0.250 C 
HETATM   23  C   UNL     1       5.799  -2.653 -24.625  1.00  0.00     0.283 C 
HETATM   24  C   UNL     1      11.448  -3.390 -25.268  1.00  0.00     0.283 C 
HETATM   25  C   UNL     1       6.129   0.509 -22.511  1.00  0.00     0.153 C 
HETATM   26  C   UNL     1      13.394  -1.649 -23.200  1.00  0.00     0.153 C 
HETATM   27  C   UNL     1       8.083  -2.997 -22.429  1.00  0.00     0.153 C 
ENDROOT
BRANCH  17  28
HETATM   28  C   UNL     1      12.849   1.672 -23.261  1.00  0.00     0.016 C 
HETATM   29  C   UNL     1      13.273   1.727 -24.727  1.00  0.00     0.012 C 
HETATM   30  C   UNL     1      12.531   3.074 -22.743  1.00  0.00     0.012 C 
ENDBRANCH  17  28
BRANCH  13  31
HETATM   31  C   UNL     1       7.720   2.825 -21.756  1.00  0.00     0.014 C 
HETATM   32  C   UNL     1       8.773   2.761 -20.648  1.00  0.00     0.012 C 
BRANCH  31  33
HETATM   33  C   UNL     1       7.464   4.265 -22.235  1.00  0.00     0.002 C 
HETATM   34  C   UNL     1       8.441   4.738 -23.302  1.00  0.00     0.005 C 
ENDBRANCH  31  33
ENDBRANCH  13  31
BRANCH  14  35
HETATM   35  C   UNL     1      13.780  -2.734 -25.880  1.00  0.00     0.010 C 
HETATM   36  C   UNL     1      13.929  -4.215 -25.539  1.00  0.00     0.012 C 
HETATM   37  C   UNL     1      14.000  -2.505 -27.375  1.00  0.00     0.012 C 
ENDBRANCH  14  35
BRANCH  16  38
HETATM   38  C   UNL     1       6.248  -0.490 -26.839  1.00  0.00     0.016 C 
HETATM   39  C   UNL     1       4.837  -0.733 -27.373  1.00  0.00     0.012 C 
HETATM   40  C   UNL     1       7.196  -1.590 -27.313  1.00  0.00     0.012 C 
ENDBRANCH  16  38
BRANCH  18  41
HETATM   41  C   UNL     1      10.918  -5.944 -23.782  1.00  0.00     0.016 C 
HETATM   42  C   UNL     1       9.943  -7.114 -23.666  1.00  0.00     0.012 C 
HETATM   43  C   UNL     1      12.054  -6.091 -22.772  1.00  0.00     0.012 C 
ENDBRANCH  18  41
BRANCH  15  44
HETATM   44  C   UNL     1       5.530  -4.505 -22.952  1.00  0.00     0.010 C 
HETATM   45  C   UNL     1       6.338  -5.438 -22.054  1.00  0.00     0.012 C 
HETATM   46  C   UNL     1       4.331  -5.236 -23.548  1.00  0.00     0.012 C 
ENDBRANCH  15  44
TORSDOF 7
ENDMDL
MODEL 15
REMARK VINA RESULT:    -2.365      4.822      7.469
REMARK INTER + INTRA:          -2.341
REMARK INTER:                  -6.624
REMARK INTRA:                   4.283
REMARK UNBOUND:                 0.992
REMARK  7 active torsions:
REMARK  status: ('A' for Active; 'I' for Inactive)
REMARK    1  A    between atoms: C_13  and  C_14 
REMARK    2  A    between atoms: C_14  and  C_19 
REMARK    3  A    between atoms: C_15  and  C_20 
REMARK    4  A    between atoms: C_16  and  C_21 
REMARK    5  A    between atoms: C_17  and  C_23 
REMARK    6  A    between atoms: C_18  and  C_26 
REMARK    7  A    between atoms: C_22  and  C_28 
ROOT
HETATM    1  O   UNL     1       5.572   1.322 -24.684  1.00  0.00    -0.304 OA
HETATM    2  O   UNL     1       9.308   2.711 -21.308  1.00  0.00    -0.304 OA
HETATM    3  O   UNL     1      10.268  -0.818 -24.302  1.00  0.00    -0.304 OA
HETATM    4  O   UNL     1       6.220   1.897 -21.331  1.00  0.00    -0.270 OA
HETATM    5  O   UNL     1       7.423   2.611 -25.161  1.00  0.00    -0.263 OA
HETATM    6  O   UNL     1       6.861  -0.326 -23.155  1.00  0.00    -0.270 OA
HETATM    7  O   UNL     1      12.343   0.032 -21.961  1.00  0.00    -0.270 OA
HETATM    8  O   UNL     1      10.629   4.113 -20.055  1.00  0.00    -0.263 OA
HETATM    9  O   UNL     1      10.590  -2.283 -22.556  1.00  0.00    -0.263 OA
HETATM   10  N   UNL     1       6.796   3.734 -22.626  1.00  0.00    -0.340 N 
HETATM   11  N   UNL     1       7.815  -1.608 -24.826  1.00  0.00    -0.340 N 
HETATM   12  N   UNL     1      11.299   1.886 -22.902  1.00  0.00    -0.340 N 
HETATM   13  C   UNL     1       5.735   3.412 -23.602  1.00  0.00     0.190 C 
HETATM   14  C   UNL     1       8.540  -2.414 -23.820  1.00  0.00     0.190 C 
HETATM   15  C   UNL     1      11.667   2.767 -21.774  1.00  0.00     0.190 C 
HETATM   16  C   UNL     1       8.131   3.128 -20.588  1.00  0.00     0.227 C 
HETATM   17  C   UNL     1       6.130   0.183 -25.375  1.00  0.00     0.227 C 
HETATM   18  C   UNL     1      11.577  -0.226 -24.222  1.00  0.00     0.227 C 
HETATM   19  C   UNL     1       6.965   2.861 -21.537  1.00  0.00     0.250 C 
HETATM   20  C   UNL     1       6.359   2.434 -24.584  1.00  0.00     0.283 C 
HETATM   21  C   UNL     1       6.965  -0.597 -24.356  1.00  0.00     0.250 C 
HETATM   22  C   UNL     1      11.772   0.563 -22.919  1.00  0.00     0.250 C 
HETATM   23  C   UNL     1      10.489   3.289 -20.954  1.00  0.00     0.283 C 
HETATM   24  C   UNL     1       9.907  -1.830 -23.469  1.00  0.00     0.283 C 
HETATM   25  C   UNL     1       7.623   4.918 -22.880  1.00  0.00     0.153 C 
HETATM   26  C   UNL     1       8.062  -1.895 -26.241  1.00  0.00     0.153 C 
HETATM   27  C   UNL     1      10.608   2.496 -24.039  1.00  0.00     0.153 C 
ENDROOT
BRANCH  17  28
HETATM   28  C   UNL     1       4.956  -0.655 -25.861  1.00  0.00     0.016 C 
HETATM   29  C   UNL     1       5.026  -0.854 -27.375  1.00  0.00     0.012 C 
HETATM   30  C   UNL     1       4.923  -2.005 -25.146  1.00  0.00     0.012 C 
ENDBRANCH  17  28
BRANCH  13  31
HETATM   31  C   UNL     1       5.133   4.596 -24.350  1.00  0.00     0.014 C 
HETATM   32  C   UNL     1       3.947   5.158 -23.564  1.00  0.00     0.012 C 
BRANCH  31  33
HETATM   33  C   UNL     1       6.216   5.658 -24.610  1.00  0.00     0.002 C 
HETATM   34  C   UNL     1       5.665   7.068 -24.770  1.00  0.00     0.005 C 
ENDBRANCH  31  33
ENDBRANCH  13  31
BRANCH  14  35
HETATM   35  C   UNL     1       8.692  -3.886 -24.204  1.00  0.00     0.010 C 
HETATM   36  C   UNL     1      10.141  -4.201 -24.571  1.00  0.00     0.012 C 
HETATM   37  C   UNL     1       8.218  -4.792 -23.068  1.00  0.00     0.012 C 
ENDBRANCH  14  35
BRANCH  16  38
HETATM   38  C   UNL     1       8.020   2.301 -19.310  1.00  0.00     0.016 C 
HETATM   39  C   UNL     1       7.630   0.860 -19.632  1.00  0.00     0.012 C 
HETATM   40  C   UNL     1       7.010   2.927 -18.350  1.00  0.00     0.012 C 
ENDBRANCH  16  38
BRANCH  18  41
HETATM   41  C   UNL     1      12.681  -1.255 -24.460  1.00  0.00     0.016 C 
HETATM   42  C   UNL     1      14.000  -0.776 -23.858  1.00  0.00     0.012 C 
HETATM   43  C   UNL     1      12.843  -1.534 -25.953  1.00  0.00     0.012 C 
ENDBRANCH  18  41
BRANCH  15  44
HETATM   44  C   UNL     1      12.552   3.924 -22.237  1.00  0.00     0.010 C 
HETATM   45  C   UNL     1      13.608   3.429 -23.221  1.00  0.00     0.012 C 
HETATM   46  C   UNL     1      13.208   4.607 -21.041  1.00  0.00     0.012 C 
ENDBRANCH  15  44
TORSDOF 7
ENDMDL
MODEL 16
REMARK VINA RESULT:    -2.183      5.057      9.103
REMARK INTER + INTRA:          -2.084
REMARK INTER:                  -5.437
REMARK INTRA:                   3.352
REMARK UNBOUND:                 0.992
REMARK  7 active torsions:
REMARK  status: ('A' for Active; 'I' for Inactive)
REMARK    1  A    between atoms: C_13  and  C_14 
REMARK    2  A    between atoms: C_14  and  C_19 
REMARK    3  A    between atoms: C_15  and  C_20 
REMARK    4  A    between atoms: C_16  and  C_21 
REMARK    5  A    between atoms: C_17  and  C_23 
REMARK    6  A    between atoms: C_18  and  C_26 
REMARK    7  A    between atoms: C_22  and  C_28 
ROOT
HETATM    1  O   UNL     1       9.874   4.136 -20.958  1.00  0.00    -0.304 OA
HETATM    2  O   UNL     1       7.177   0.672 -23.790  1.00  0.00    -0.304 OA
HETATM    3  O   UNL     1      11.797   1.109 -24.689  1.00  0.00    -0.304 OA
HETATM    4  O   UNL     1       7.050   3.744 -22.925  1.00  0.00    -0.270 OA
HETATM    5  O   UNL     1       9.859   1.850 -20.654  1.00  0.00    -0.263 OA
HETATM    6  O   UNL     1       9.919   3.995 -23.546  1.00  0.00    -0.270 OA
HETATM    7  O   UNL     1       9.889  -0.791 -26.495  1.00  0.00    -0.270 OA
HETATM    8  O   UNL     1       5.638  -0.976 -24.232  1.00  0.00    -0.263 OA
HETATM    9  O   UNL     1      11.368   1.752 -26.857  1.00  0.00    -0.263 OA
HETATM   10  N   UNL     1       7.090   2.201 -21.192  1.00  0.00    -0.340 N 
HETATM   11  N   UNL     1      12.176   3.549 -23.786  1.00  0.00    -0.340 N 
HETATM   12  N   UNL     1       9.313  -0.884 -24.243  1.00  0.00    -0.340 N 
HETATM   13  C   UNL     1       7.826   3.149 -20.331  1.00  0.00     0.190 C 
HETATM   14  C   UNL     1      12.016   3.432 -25.252  1.00  0.00     0.190 C 
HETATM   15  C   UNL     1       7.986  -1.470 -24.523  1.00  0.00     0.190 C 
HETATM   16  C   UNL     1       6.130   1.595 -23.431  1.00  0.00     0.227 C 
HETATM   17  C   UNL     1      11.201   4.098 -21.529  1.00  0.00     0.227 C 
HETATM   18  C   UNL     1      11.650  -0.301 -24.937  1.00  0.00     0.227 C 
HETATM   19  C   UNL     1       6.791   2.611 -22.504  1.00  0.00     0.250 C 
HETATM   20  C   UNL     1       9.298   2.938 -20.647  1.00  0.00     0.283 C 
HETATM   21  C   UNL     1      11.038   3.874 -23.034  1.00  0.00     0.250 C 
HETATM   22  C   UNL     1      10.206  -0.671 -25.307  1.00  0.00     0.250 C 
HETATM   23  C   UNL     1       6.799  -0.584 -24.157  1.00  0.00     0.283 C 
HETATM   24  C   UNL     1      11.673   2.012 -25.698  1.00  0.00     0.283 C 
HETATM   25  C   UNL     1       6.754   0.887 -20.635  1.00  0.00     0.153 C 
HETATM   26  C   UNL     1      13.499   3.282 -23.218  1.00  0.00     0.153 C 
HETATM   27  C   UNL     1       9.698  -0.721 -22.840  1.00  0.00     0.153 C 
ENDROOT
BRANCH  17  28
HETATM   28  C   UNL     1      11.838   5.452 -21.253  1.00  0.00     0.016 C 
HETATM   29  C   UNL     1      13.238   5.279 -20.663  1.00  0.00     0.012 C 
HETATM   30  C   UNL     1      11.895   6.292 -22.528  1.00  0.00     0.012 C 
ENDBRANCH  17  28
BRANCH  13  31
HETATM   31  C   UNL     1       7.585   3.014 -18.831  1.00  0.00     0.014 C 
HETATM   32  C   UNL     1       6.083   2.950 -18.550  1.00  0.00     0.012 C 
BRANCH  31  33
HETATM   33  C   UNL     1       8.334   1.784 -18.288  1.00  0.00     0.002 C 
HETATM   34  C   UNL     1       8.396   1.727 -16.768  1.00  0.00     0.005 C 
ENDBRANCH  31  33
ENDBRANCH  13  31
BRANCH  14  35
HETATM   35  C   UNL     1      13.218   3.945 -26.045  1.00  0.00     0.010 C 
HETATM   36  C   UNL     1      13.982   2.784 -26.679  1.00  0.00     0.012 C 
HETATM   37  C   UNL     1      12.773   4.941 -27.116  1.00  0.00     0.012 C 
ENDBRANCH  14  35
BRANCH  16  38
HETATM   38  C   UNL     1       5.601   2.253 -24.703  1.00  0.00     0.016 C 
HETATM   39  C   UNL     1       4.244   1.666 -25.089  1.00  0.00     0.012 C 
HETATM   40  C   UNL     1       6.599   2.092 -25.849  1.00  0.00     0.012 C 
ENDBRANCH  16  38
BRANCH  18  41
HETATM   41  C   UNL     1      12.669  -0.808 -25.957  1.00  0.00     0.016 C 
HETATM   42  C   UNL     1      12.135  -2.041 -26.682  1.00  0.00     0.012 C 
HETATM   43  C   UNL     1      14.000  -1.119 -25.276  1.00  0.00     0.012 C 
ENDBRANCH  18  41
BRANCH  15  44
HETATM   44  C   UNL     1       7.842  -2.851 -23.880  1.00  0.00     0.010 C 
HETATM   45  C   UNL     1       7.279  -3.852 -24.885  1.00  0.00     0.012 C 
HETATM   46  C   UNL     1       6.954  -2.772 -22.642  1.00  0.00     0.012 C 
ENDBRANCH  15  44
TORSDOF 7
ENDMDL
MODEL 17
REMARK VINA RESULT:    -2.144      6.844     12.125
REMARK INTER + INTRA:          -2.028
REMARK INTER:                  -5.400
REMARK INTRA:                   3.372
REMARK UNBOUND:                 0.992
REMARK  7 active torsions:
REMARK  status: ('A' for Active; 'I' for Inactive)
REMARK    1  A    between atoms: C_13  and  C_14 
REMARK    2  A    between atoms: C_14  and  C_19 
REMARK    3  A    between atoms: C_15  and  C_20 
REMARK    4  A    between atoms: C_16  and  C_21 
REMARK    5  A    between atoms: C_17  and  C_23 
REMARK    6  A    between atoms: C_18  and  C_26 
REMARK    7  A    between atoms: C_22  and  C_28 
ROOT
HETATM    1  O   UNL     1      12.111  -2.803 -24.302  1.00  0.00    -0.304 OA
HETATM    2  O   UNL     1       6.927  -3.446 -24.346  1.00  0.00    -0.304 OA
HETATM    3  O   UNL     1       8.593   0.936 -24.953  1.00  0.00    -0.304 OA
HETATM    4  O   UNL     1       9.460  -4.163 -22.537  1.00  0.00    -0.270 OA
HETATM    5  O   UNL     1      10.765  -2.856 -26.173  1.00  0.00    -0.263 OA
HETATM    6  O   UNL     1      10.442  -1.409 -22.891  1.00  0.00    -0.270 OA
HETATM    7  O   UNL     1       5.415   0.350 -24.691  1.00  0.00    -0.270 OA
HETATM    8  O   UNL     1       4.911  -4.441 -24.821  1.00  0.00    -0.263 OA
HETATM    9  O   UNL     1       7.509   1.667 -23.058  1.00  0.00    -0.263 OA
HETATM   10  N   UNL     1       9.512  -4.953 -24.719  1.00  0.00    -0.340 N 
HETATM   11  N   UNL     1      10.938   0.662 -23.794  1.00  0.00    -0.340 N 
HETATM   12  N   UNL     1       6.500  -1.310 -25.909  1.00  0.00    -0.340 N 
HETATM   13  C   UNL     1      10.983  -4.824 -24.757  1.00  0.00     0.190 C 
HETATM   14  C   UNL     1       9.890   1.296 -22.965  1.00  0.00     0.190 C 
HETATM   15  C   UNL     1       5.381  -2.264 -25.759  1.00  0.00     0.190 C 
HETATM   16  C   UNL     1       7.328  -4.572 -23.542  1.00  0.00     0.227 C 
HETATM   17  C   UNL     1      12.288  -1.373 -24.413  1.00  0.00     0.227 C 
HETATM   18  C   UNL     1       7.437   1.013 -25.806  1.00  0.00     0.227 C 
HETATM   19  C   UNL     1       8.854  -4.545 -23.545  1.00  0.00     0.250 C 
HETATM   20  C   UNL     1      11.262  -3.394 -25.193  1.00  0.00     0.283 C 
HETATM   21  C   UNL     1      11.143  -0.716 -23.637  1.00  0.00     0.250 C 
HETATM   22  C   UNL     1       6.359  -0.005 -25.405  1.00  0.00     0.250 C 
HETATM   23  C   UNL     1       5.704  -3.512 -24.941  1.00  0.00     0.283 C 
HETATM   24  C   UNL     1       8.524   1.310 -23.646  1.00  0.00     0.283 C 
HETATM   25  C   UNL     1       8.837  -5.461 -25.917  1.00  0.00     0.153 C 
HETATM   26  C   UNL     1      11.662   1.508 -24.746  1.00  0.00     0.153 C 
HETATM   27  C   UNL     1       7.633  -1.720 -26.739  1.00  0.00     0.153 C 
ENDROOT
BRANCH  17  28
HETATM   28  C   UNL     1      13.629  -1.044 -23.773  1.00  0.00     0.016 C 
HETATM   29  C   UNL     1      14.000   0.418 -24.019  1.00  0.00     0.012 C 
HETATM   30  C   UNL     1      13.599  -1.343 -22.274  1.00  0.00     0.012 C 
ENDBRANCH  17  28
BRANCH  13  31
HETATM   31  C   UNL     1      11.716  -5.803 -25.667  1.00  0.00     0.014 C 
HETATM   32  C   UNL     1      12.698  -5.045 -26.562  1.00  0.00     0.012 C 
BRANCH  31  33
HETATM   33  C   UNL     1      12.412  -6.885 -24.822  1.00  0.00     0.002 C 
HETATM   34  C   UNL     1      11.578  -7.373 -23.646  1.00  0.00     0.005 C 
ENDBRANCH  31  33
ENDBRANCH  13  31
BRANCH  14  35
HETATM   35  C   UNL     1      10.246   2.706 -22.495  1.00  0.00     0.010 C 
HETATM   36  C   UNL     1       9.038   3.382 -21.850  1.00  0.00     0.012 C 
HETATM   37  C   UNL     1      11.423   2.670 -21.520  1.00  0.00     0.012 C 
ENDBRANCH  14  35
BRANCH  16  38
HETATM   38  C   UNL     1       6.763  -4.395 -22.135  1.00  0.00     0.016 C 
HETATM   39  C   UNL     1       5.570  -5.323 -21.912  1.00  0.00     0.012 C 
HETATM   40  C   UNL     1       6.361  -2.940 -21.895  1.00  0.00     0.012 C 
ENDBRANCH  16  38
BRANCH  18  41
HETATM   41  C   UNL     1       6.895   2.439 -25.901  1.00  0.00     0.016 C 
HETATM   42  C   UNL     1       6.424   2.740 -27.322  1.00  0.00     0.012 C 
HETATM   43  C   UNL     1       7.956   3.446 -25.463  1.00  0.00     0.012 C 
ENDBRANCH  18  41
BRANCH  15  44
HETATM   44  C   UNL     1       4.795  -2.650 -27.117  1.00  0.00     0.010 C 
HETATM   45  C   UNL     1       3.318  -2.272 -27.189  1.00  0.00     0.012 C 
HETATM   46  C   UNL     1       4.983  -4.142 -27.375  1.00  0.00     0.012 C 
ENDBRANCH  15  44
TORSDOF 7
ENDMDL
MODEL 18
REMARK VINA RESULT:    -2.111      5.309      7.871
REMARK INTER + INTRA:          -1.983
REMARK INTER:                  -6.369
REMARK INTRA:                   4.386
REMARK UNBOUND:                 0.992
REMARK  7 active torsions:
REMARK  status: ('A' for Active; 'I' for Inactive)
REMARK    1  A    between atoms: C_13  and  C_14 
REMARK    2  A    between atoms: C_14  and  C_19 
REMARK    3  A    between atoms: C_15  and  C_20 
REMARK    4  A    between atoms: C_16  and  C_21 
REMARK    5  A    between atoms: C_17  and  C_23 
REMARK    6  A    between atoms: C_18  and  C_26 
REMARK    7  A    between atoms: C_22  and  C_28 
ROOT
HETATM    1  O   UNL     1       6.528  -0.385 -23.508  1.00  0.00    -0.304 OA
HETATM    2  O   UNL     1      10.860   2.525 -23.748  1.00  0.00    -0.304 OA
HETATM    3  O   UNL     1      11.131  -1.932 -25.298  1.00  0.00    -0.304 OA
HETATM    4  O   UNL     1       8.612   1.663 -21.648  1.00  0.00    -0.270 OA
HETATM    5  O   UNL     1       7.384   0.625 -25.396  1.00  0.00    -0.263 OA
HETATM    6  O   UNL     1       8.844  -1.114 -22.601  1.00  0.00    -0.270 OA
HETATM    7  O   UNL     1      13.754  -0.036 -25.118  1.00  0.00    -0.270 OA
HETATM    8  O   UNL     1      12.151   4.393 -24.100  1.00  0.00    -0.263 OA
HETATM    9  O   UNL     1      12.728  -2.439 -23.720  1.00  0.00    -0.263 OA
HETATM   10  N   UNL     1       7.858   2.742 -23.560  1.00  0.00    -0.340 N 
HETATM   11  N   UNL     1       9.127  -2.972 -23.950  1.00  0.00    -0.340 N 
HETATM   12  N   UNL     1      11.878   1.152 -25.813  1.00  0.00    -0.340 N 
HETATM   13  C   UNL     1       6.597   1.972 -23.529  1.00  0.00     0.190 C 
HETATM   14  C   UNL     1      10.469  -3.209 -23.375  1.00  0.00     0.190 C 
HETATM   15  C   UNL     1      12.495   2.461 -25.510  1.00  0.00     0.190 C 
HETATM   16  C   UNL     1      10.163   3.174 -22.665  1.00  0.00     0.227 C 
HETATM   17  C   UNL     1       6.958  -1.690 -23.955  1.00  0.00     0.227 C 
HETATM   18  C   UNL     1      12.047  -1.315 -26.220  1.00  0.00     0.227 C 
HETATM   19  C   UNL     1       8.817   2.461 -22.570  1.00  0.00     0.250 C 
HETATM   20  C   UNL     1       6.881   0.683 -24.282  1.00  0.00     0.283 C 
HETATM   21  C   UNL     1       8.387  -1.893 -23.445  1.00  0.00     0.250 C 
HETATM   22  C   UNL     1      12.642  -0.017 -25.656  1.00  0.00     0.250 C 
HETATM   23  C   UNL     1      11.819   3.248 -24.390  1.00  0.00     0.283 C 
HETATM   24  C   UNL     1      11.574  -2.474 -24.131  1.00  0.00     0.283 C 
HETATM   25  C   UNL     1       8.038   3.718 -24.640  1.00  0.00     0.153 C 
HETATM   26  C   UNL     1       8.679  -3.855 -25.029  1.00  0.00     0.153 C 
HETATM   27  C   UNL     1      10.554   1.156 -26.437  1.00  0.00     0.153 C 
ENDROOT
BRANCH  17  28
HETATM   28  C   UNL     1       6.014  -2.704 -23.325  1.00  0.00     0.016 C 
HETATM   29  C   UNL     1       5.392  -3.600 -24.396  1.00  0.00     0.012 C 
HETATM   30  C   UNL     1       6.746  -3.547 -22.282  1.00  0.00     0.012 C 
ENDBRANCH  17  28
BRANCH  13  31
HETATM   31  C   UNL     1       5.375   2.668 -24.117  1.00  0.00     0.014 C 
HETATM   32  C   UNL     1       4.440   1.633 -24.744  1.00  0.00     0.012 C 
BRANCH  31  33
HETATM   33  C   UNL     1       4.675   3.506 -23.033  1.00  0.00     0.002 C 
HETATM   34  C   UNL     1       4.376   4.936 -23.463  1.00  0.00     0.005 C 
ENDBRANCH  31  33
ENDBRANCH  13  31
BRANCH  14  35
HETATM   35  C   UNL     1      10.830  -4.688 -23.244  1.00  0.00     0.010 C 
HETATM   36  C   UNL     1      11.395  -5.224 -24.558  1.00  0.00     0.012 C 
HETATM   37  C   UNL     1      11.827  -4.902 -22.106  1.00  0.00     0.012 C 
ENDBRANCH  14  35
BRANCH  16  38
HETATM   38  C   UNL     1      10.982   3.007 -21.387  1.00  0.00     0.016 C 
HETATM   39  C   UNL     1      11.655   4.323 -21.002  1.00  0.00     0.012 C 
HETATM   40  C   UNL     1      12.023   1.901 -21.554  1.00  0.00     0.012 C 
ENDBRANCH  16  38
BRANCH  18  41
HETATM   41  C   UNL     1      13.116  -2.295 -26.701  1.00  0.00     0.016 C 
HETATM   42  C   UNL     1      12.472  -3.504 -27.375  1.00  0.00     0.012 C 
HETATM   43  C   UNL     1      14.000  -2.738 -25.536  1.00  0.00     0.012 C 
ENDBRANCH  18  41
BRANCH  15  44
HETATM   44  C   UNL     1      12.621   3.320 -26.768  1.00  0.00     0.010 C 
HETATM   45  C   UNL     1      13.987   4.000 -26.817  1.00  0.00     0.012 C 
HETATM   46  C   UNL     1      11.502   4.356 -26.822  1.00  0.00     0.012 C 
ENDBRANCH  15  44
TORSDOF 7
ENDMDL
