MODEL 1
REMARK VINA RESULT:    -5.389      0.000      0.000
REMARK INTER + INTRA:          -7.833
REMARK INTER:                  -8.225
REMARK INTRA:                   0.392
REMARK UNBOUND:                 0.392
REMARK  9 active torsions:
REMARK  status: ('A' for Active; 'I' for Inactive)
REMARK    1  A    between atoms: C_13  and  C_16 
REMARK    2  A    between atoms: C_14  and  C_17 
REMARK    3  A    between atoms: C_15  and  C_18 
REMARK    4  A    between atoms: C_16  and  C_22 
REMARK    5  A    between atoms: C_17  and  C_23 
REMARK    6  A    between atoms: C_18  and  C_24 
REMARK    7  A    between atoms: C_19  and  C_25 
REMARK    8  A    between atoms: C_20  and  C_26 
REMARK    9  A    between atoms: C_21  and  C_27 
ROOT
HETATM    1  O   UNL     1       7.995  12.345  -2.245  1.00  0.00    -0.304 OA
HETATM    2  O   UNL     1      10.623   8.812   0.280  1.00  0.00    -0.304 OA
HETATM    3  O   UNL     1       9.219   9.100  -4.347  1.00  0.00    -0.304 OA
HETATM    4  O   UNL     1       9.426  12.120  -0.095  1.00  0.00    -0.270 OA
HETATM    5  O   UNL     1       7.125   9.713  -7.016  1.00  0.00    -0.270 OA
HETATM    6  O   UNL     1      11.151  10.030  -1.995  1.00  0.00    -0.270 OA
HETATM    7  O   UNL     1       6.118  12.330  -3.585  1.00  0.00    -0.263 OA
HETATM    8  O   UNL     1       8.461   8.242  -0.296  1.00  0.00    -0.263 OA
HETATM    9  O   UNL     1      10.129   9.095  -6.460  1.00  0.00    -0.263 OA
HETATM   10  N   UNL     1       7.829  10.727   0.849  1.00  0.00    -0.340 N 
HETATM   11  N   UNL     1       7.708  11.555  -5.734  1.00  0.00    -0.340 N 
HETATM   12  N   UNL     1      11.426   8.106  -3.263  1.00  0.00    -0.340 N 
HETATM   13  C   UNL     1       8.877   9.883   1.458  1.00  0.00     0.190 C 
HETATM   14  C   UNL     1       8.357  12.150  -4.547  1.00  0.00     0.190 C 
HETATM   15  C   UNL     1      11.578   8.880  -4.517  1.00  0.00     0.190 C 
HETATM   16  C   UNL     1       7.230  12.271  -1.023  1.00  0.00     0.227 C 
HETATM   17  C   UNL     1      11.160   7.976  -0.764  1.00  0.00     0.227 C 
HETATM   18  C   UNL     1       7.861   9.220  -4.780  1.00  0.00     0.227 C 
HETATM   19  C   UNL     1       8.255  11.727  -0.036  1.00  0.00     0.250 C 
HETATM   20  C   UNL     1       7.548  10.177  -5.950  1.00  0.00     0.250 C 
HETATM   21  C   UNL     1      11.240   8.798  -2.056  1.00  0.00     0.250 C 
HETATM   22  C   UNL     1       7.330  12.288  -3.434  1.00  0.00     0.283 C 
HETATM   23  C   UNL     1       9.261   8.877   0.380  1.00  0.00     0.283 C 
HETATM   24  C   UNL     1      10.238   8.994  -5.245  1.00  0.00     0.283 C 
HETATM   25  C   UNL     1       6.423  10.392   1.084  1.00  0.00     0.153 C 
HETATM   26  C   UNL     1       7.195  12.469  -6.754  1.00  0.00     0.153 C 
HETATM   27  C   UNL     1      11.408   6.646  -3.396  1.00  0.00     0.153 C 
ENDROOT
BRANCH  16  28
HETATM   28  C   UNL     1       6.765  13.655  -0.608  1.00  0.00     0.016 C 
HETATM   29  C   UNL     1       5.270  13.823  -0.872  1.00  0.00     0.012 C 
HETATM   30  C   UNL     1       7.562  14.733  -1.341  1.00  0.00     0.012 C 
ENDBRANCH  16  28
BRANCH  14  31
HETATM   31  C   UNL     1       9.048  13.490  -4.792  1.00  0.00     0.014 C 
HETATM   32  C   UNL     1       8.052  14.632  -4.575  1.00  0.00     0.012 C 
BRANCH  31  33
HETATM   33  C   UNL     1      10.276  13.690  -3.886  1.00  0.00     0.002 C 
HETATM   34  C   UNL     1      10.587  15.151  -3.596  1.00  0.00     0.005 C 
ENDBRANCH  31  33
ENDBRANCH  14  31
BRANCH  13  35
HETATM   35  C   UNL     1       8.501   9.148   2.737  1.00  0.00     0.014 C 
HETATM   36  C   UNL     1       9.403   7.923   2.916  1.00  0.00     0.012 C 
BRANCH  35  37
HETATM   37  C   UNL     1       8.593  10.048   3.981  1.00  0.00     0.002 C 
HETATM   38  C   UNL     1       7.292  10.135   4.768  1.00  0.00     0.005 C 
ENDBRANCH  35  37
ENDBRANCH  13  35
BRANCH  18  39
HETATM   39  C   UNL     1       7.340   7.808  -5.057  1.00  0.00     0.016 C 
HETATM   40  C   UNL     1       7.929   6.813  -4.060  1.00  0.00     0.012 C 
HETATM   41  C   UNL     1       5.814   7.780  -5.006  1.00  0.00     0.012 C 
ENDBRANCH  18  39
BRANCH  17  42
HETATM   42  C   UNL     1      12.555   7.554  -0.325  1.00  0.00     0.016 C 
HETATM   43  C   UNL     1      12.634   6.037  -0.160  1.00  0.00     0.012 C 
HETATM   44  C   UNL     1      12.946   8.254   0.976  1.00  0.00     0.012 C 
ENDBRANCH  17  42
BRANCH  15  45
HETATM   45  C   UNL     1      12.669   8.337  -5.437  1.00  0.00     0.014 C 
HETATM   46  C   UNL     1      13.025   9.381  -6.502  1.00  0.00     0.012 C 
BRANCH  45  47
HETATM   47  C   UNL     1      13.941   7.926  -4.670  1.00  0.00     0.002 C 
HETATM   48  C   UNL     1      15.169   8.737  -5.054  1.00  0.00     0.005 C 
ENDBRANCH  45  47
ENDBRANCH  15  45
TORSDOF 9
ENDMDL
MODEL 2
REMARK VINA RESULT:    -5.205      2.276      7.244
REMARK INTER + INTRA:          -7.552
REMARK INTER:                  -7.541
REMARK INTRA:                  -0.011
REMARK UNBOUND:                 0.392
REMARK  9 active torsions:
REMARK  status: ('A' for Active; 'I' for Inactive)
REMARK    1  A    between atoms: C_13  and  C_16 
REMARK    2  A    between atoms: C_14  and  C_17 
REMARK    3  A    between atoms: C_15  and  C_18 
REMARK    4  A    between atoms: C_16  and  C_22 
REMARK    5  A    between atoms: C_17  and  C_23 
REMARK    6  A    between atoms: C_18  and  C_24 
REMARK    7  A    between atoms: C_19  and  C_25 
REMARK    8  A    between atoms: C_20  and  C_26 
REMARK    9  A    between atoms: C_21  and  C_27 
ROOT
HETATM    1  O   UNL     1       6.345  11.788  -6.008  1.00  0.00    -0.304 OA
HETATM    2  O   UNL     1      10.461   9.390  -4.255  1.00  0.00    -0.304 OA
HETATM    3  O   UNL     1       7.687  12.866  -2.336  1.00  0.00    -0.304 OA
HETATM    4  O   UNL     1       7.646   9.578  -6.389  1.00  0.00    -0.270 OA
HETATM    5  O   UNL     1       5.827  15.766  -2.219  1.00  0.00    -0.270 OA
HETATM    6  O   UNL     1       8.121   9.813  -3.122  1.00  0.00    -0.270 OA
HETATM    7  O   UNL     1       5.741  13.997  -6.282  1.00  0.00    -0.263 OA
HETATM    8  O   UNL     1      10.771  11.585  -4.901  1.00  0.00    -0.263 OA
HETATM    9  O   UNL     1       6.406  13.256  -0.465  1.00  0.00    -0.263 OA
HETATM   10  N   UNL     1       9.452  10.761  -7.239  1.00  0.00    -0.340 N 
HETATM   11  N   UNL     1       5.013  14.087  -3.597  1.00  0.00    -0.340 N 
HETATM   12  N   UNL     1       8.941  10.824  -1.201  1.00  0.00    -0.340 N 
HETATM   13  C   UNL     1      10.405   9.850  -6.572  1.00  0.00     0.190 C 
HETATM   14  C   UNL     1       5.156  12.770  -4.251  1.00  0.00     0.190 C 
HETATM   15  C   UNL     1       7.579  11.138  -0.711  1.00  0.00     0.190 C 
HETATM   16  C   UNL     1       7.168  11.776  -7.194  1.00  0.00     0.227 C 
HETATM   17  C   UNL     1      10.501   9.755  -2.862  1.00  0.00     0.227 C 
HETATM   18  C   UNL     1       7.452  14.143  -2.936  1.00  0.00     0.227 C 
HETATM   19  C   UNL     1       8.094  10.596  -6.929  1.00  0.00     0.250 C 
HETATM   20  C   UNL     1       6.025  14.731  -2.868  1.00  0.00     0.250 C 
HETATM   21  C   UNL     1       9.084  10.134  -2.415  1.00  0.00     0.250 C 
HETATM   22  C   UNL     1       5.763  12.962  -5.631  1.00  0.00     0.283 C 
HETATM   23  C   UNL     1      10.575  10.405  -5.164  1.00  0.00     0.283 C 
HETATM   24  C   UNL     1       7.176  12.557  -1.112  1.00  0.00     0.283 C 
HETATM   25  C   UNL     1       9.973  11.857  -8.058  1.00  0.00     0.153 C 
HETATM   26  C   UNL     1       3.723  14.768  -3.720  1.00  0.00     0.153 C 
HETATM   27  C   UNL     1      10.057  11.333  -0.398  1.00  0.00     0.153 C 
ENDROOT
BRANCH  16  28
HETATM   28  C   UNL     1       6.315  11.524  -8.424  1.00  0.00     0.016 C 
HETATM   29  C   UNL     1       6.730  10.225  -9.111  1.00  0.00     0.012 C 
HETATM   30  C   UNL     1       6.411  12.698  -9.397  1.00  0.00     0.012 C 
ENDBRANCH  16  28
BRANCH  14  31
HETATM   31  C   UNL     1       3.866  11.957  -4.355  1.00  0.00     0.014 C 
HETATM   32  C   UNL     1       3.444  11.843  -5.822  1.00  0.00     0.012 C 
BRANCH  31  33
HETATM   33  C   UNL     1       4.009  10.552  -3.743  1.00  0.00     0.002 C 
HETATM   34  C   UNL     1       4.214  10.563  -2.235  1.00  0.00     0.005 C 
ENDBRANCH  31  33
ENDBRANCH  14  31
BRANCH  13  35
HETATM   35  C   UNL     1      11.767   9.690  -7.232  1.00  0.00     0.014 C 
HETATM   36  C   UNL     1      12.784   9.183  -6.205  1.00  0.00     0.012 C 
BRANCH  35  37
HETATM   37  C   UNL     1      11.729   8.736  -8.439  1.00  0.00     0.002 C 
HETATM   38  C   UNL     1      12.826   9.004  -9.461  1.00  0.00     0.005 C 
ENDBRANCH  35  37
ENDBRANCH  13  35
BRANCH  18  39
HETATM   39  C   UNL     1       8.485  15.117  -2.367  1.00  0.00     0.016 C 
HETATM   40  C   UNL     1       9.869  14.472  -2.335  1.00  0.00     0.012 C 
HETATM   41  C   UNL     1       8.513  16.408  -3.183  1.00  0.00     0.012 C 
ENDBRANCH  18  39
BRANCH  17  42
HETATM   42  C   UNL     1      10.984   8.533  -2.093  1.00  0.00     0.016 C 
HETATM   43  C   UNL     1      12.446   8.698  -1.680  1.00  0.00     0.012 C 
HETATM   44  C   UNL     1      10.804   7.265  -2.927  1.00  0.00     0.012 C 
ENDBRANCH  17  42
BRANCH  15  45
HETATM   45  C   UNL     1       7.406  10.910   0.790  1.00  0.00     0.014 C 
HETATM   46  C   UNL     1       5.929  10.662   1.116  1.00  0.00     0.012 C 
BRANCH  45  47
HETATM   47  C   UNL     1       8.256   9.736   1.312  1.00  0.00     0.002 C 
HETATM   48  C   UNL     1       8.750   9.933   2.738  1.00  0.00     0.005 C 
ENDBRANCH  45  47
ENDBRANCH  15  45
TORSDOF 9
ENDMDL
MODEL 3
REMARK VINA RESULT:    -5.128      2.178      3.907
REMARK INTER + INTRA:          -7.434
REMARK INTER:                  -7.516
REMARK INTRA:                   0.082
REMARK UNBOUND:                 0.392
REMARK  9 active torsions:
REMARK  status: ('A' for Active; 'I' for Inactive)
REMARK    1  A    between atoms: C_13  and  C_16 
REMARK    2  A    between atoms: C_14  and  C_17 
REMARK    3  A    between atoms: C_15  and  C_18 
REMARK    4  A    between atoms: C_16  and  C_22 
REMARK    5  A    between atoms: C_17  and  C_23 
REMARK    6  A    between atoms: C_18  and  C_24 
REMARK    7  A    between atoms: C_19  and  C_25 
REMARK    8  A    between atoms: C_20  and  C_26 
REMARK    9  A    between atoms: C_21  and  C_27 
ROOT
HETATM    1  O   UNL     1       6.512  13.456  -2.691  1.00  0.00    -0.304 OA
HETATM    2  O   UNL     1       6.403  10.902   1.695  1.00  0.00    -0.304 OA
HETATM    3  O   UNL     1       7.598   9.550  -2.800  1.00  0.00    -0.304 OA
HETATM    4  O   UNL     1       6.569  13.921  -0.141  1.00  0.00    -0.270 OA
HETATM    5  O   UNL     1       7.363   9.309  -6.231  1.00  0.00    -0.270 OA
HETATM    6  O   UNL     1       8.306  11.105  -0.115  1.00  0.00    -0.270 OA
HETATM    7  O   UNL     1       5.620  13.121  -4.791  1.00  0.00    -0.263 OA
HETATM    8  O   UNL     1       4.742  10.377   0.180  1.00  0.00    -0.263 OA
HETATM    9  O   UNL     1       9.379   8.651  -3.947  1.00  0.00    -0.263 OA
HETATM   10  N   UNL     1       4.388  13.160   0.071  1.00  0.00    -0.340 N 
HETATM   11  N   UNL     1       7.752  11.432  -5.382  1.00  0.00    -0.340 N 
HETATM   12  N   UNL     1       8.591   8.826  -0.450  1.00  0.00    -0.340 N 
HETATM   13  C   UNL     1       4.705  12.510   1.358  1.00  0.00     0.190 C 
HETATM   14  C   UNL     1       7.878  12.365  -4.243  1.00  0.00     0.190 C 
HETATM   15  C   UNL     1       9.555   9.046  -1.553  1.00  0.00     0.190 C 
HETATM   16  C   UNL     1       5.263  13.928  -2.141  1.00  0.00     0.227 C 
HETATM   17  C   UNL     1       7.112   9.683   1.397  1.00  0.00     0.227 C 
HETATM   18  C   UNL     1       6.729   9.632  -3.933  1.00  0.00     0.227 C 
HETATM   19  C   UNL     1       5.463  13.701  -0.649  1.00  0.00     0.250 C 
HETATM   20  C   UNL     1       7.324  10.099  -5.280  1.00  0.00     0.250 C 
HETATM   21  C   UNL     1       8.050   9.939   0.211  1.00  0.00     0.250 C 
HETATM   22  C   UNL     1       6.530  13.018  -3.982  1.00  0.00     0.283 C 
HETATM   23  C   UNL     1       5.254  11.137   0.992  1.00  0.00     0.283 C 
HETATM   24  C   UNL     1       8.844   9.009  -2.906  1.00  0.00     0.283 C 
HETATM   25  C   UNL     1       3.020  13.082  -0.446  1.00  0.00     0.153 C 
HETATM   26  C   UNL     1       8.097  11.937  -6.712  1.00  0.00     0.153 C 
HETATM   27  C   UNL     1       8.215   7.435  -0.180  1.00  0.00     0.153 C 
ENDROOT
BRANCH  16  28
HETATM   28  C   UNL     1       5.082  15.405  -2.441  1.00  0.00     0.016 C 
HETATM   29  C   UNL     1       5.036  16.216  -1.147  1.00  0.00     0.012 C 
HETATM   30  C   UNL     1       3.816  15.638  -3.264  1.00  0.00     0.012 C 
ENDBRANCH  16  28
BRANCH  14  31
HETATM   31  C   UNL     1       8.957  13.435  -4.400  1.00  0.00     0.014 C 
HETATM   32  C   UNL     1       8.306  14.819  -4.471  1.00  0.00     0.012 C 
BRANCH  31  33
HETATM   33  C   UNL     1       9.987  13.400  -3.258  1.00  0.00     0.002 C 
HETATM   34  C   UNL     1       9.896  14.594  -2.319  1.00  0.00     0.005 C 
ENDBRANCH  31  33
ENDBRANCH  14  31
BRANCH  13  35
HETATM   35  C   UNL     1       3.555  12.358   2.345  1.00  0.00     0.014 C 
HETATM   36  C   UNL     1       3.832  11.184   3.287  1.00  0.00     0.012 C 
BRANCH  35  37
HETATM   37  C   UNL     1       3.311  13.637   3.165  1.00  0.00     0.002 C 
HETATM   38  C   UNL     1       1.920  14.227   2.972  1.00  0.00     0.005 C 
ENDBRANCH  35  37
ENDBRANCH  13  35
BRANCH  18  39
HETATM   39  C   UNL     1       6.025   8.281  -4.072  1.00  0.00     0.016 C 
HETATM   40  C   UNL     1       5.730   7.686  -2.697  1.00  0.00     0.012 C 
HETATM   41  C   UNL     1       4.737   8.428  -4.881  1.00  0.00     0.012 C 
ENDBRANCH  18  39
BRANCH  17  42
HETATM   42  C   UNL     1       7.920   9.322   2.635  1.00  0.00     0.016 C 
HETATM   43  C   UNL     1       7.038   9.349   3.883  1.00  0.00     0.012 C 
HETATM   44  C   UNL     1       9.108  10.269   2.800  1.00  0.00     0.012 C 
ENDBRANCH  17  42
BRANCH  15  45
HETATM   45  C   UNL     1      10.744   8.087  -1.520  1.00  0.00     0.014 C 
HETATM   46  C   UNL     1      11.912   8.672  -2.323  1.00  0.00     0.012 C 
BRANCH  45  47
HETATM   47  C   UNL     1      11.210   7.771  -0.085  1.00  0.00     0.002 C 
HETATM   48  C   UNL     1      12.108   8.844   0.511  1.00  0.00     0.005 C 
ENDBRANCH  45  47
ENDBRANCH  15  45
TORSDOF 9
ENDMDL
MODEL 4
REMARK VINA RESULT:    -5.013      3.161      5.619
REMARK INTER + INTRA:          -7.258
REMARK INTER:                  -7.259
REMARK INTRA:                   0.001
REMARK UNBOUND:                 0.392
REMARK  9 active torsions:
REMARK  status: ('A' for Active; 'I' for Inactive)
REMARK    1  A    between atoms: C_13  and  C_16 
REMARK    2  A    between atoms: C_14  and  C_17 
REMARK    3  A    between atoms: C_15  and  C_18 
REMARK    4  A    between atoms: C_16  and  C_22 
REMARK    5  A    between atoms: C_17  and  C_23 
REMARK    6  A    between atoms: C_18  and  C_24 
REMARK    7  A    between atoms: C_19  and  C_25 
REMARK    8  A    between atoms: C_20  and  C_26 
REMARK    9  A    between atoms: C_21  and  C_27 
ROOT
HETATM    1  O   UNL     1       3.677  11.827   0.562  1.00  0.00    -0.304 OA
HETATM    2  O   UNL     1       8.266   9.707   0.098  1.00  0.00    -0.304 OA
HETATM    3  O   UNL     1       5.743  12.619  -2.837  1.00  0.00    -0.304 OA
HETATM    4  O   UNL     1       5.539  10.821   2.058  1.00  0.00    -0.270 OA
HETATM    5  O   UNL     1       3.003  13.854  -4.527  1.00  0.00    -0.270 OA
HETATM    6  O   UNL     1       7.502  12.208  -0.217  1.00  0.00    -0.270 OA
HETATM    7  O   UNL     1       1.777  11.897  -0.744  1.00  0.00    -0.263 OA
HETATM    8  O   UNL     1       6.605   8.821  -1.239  1.00  0.00    -0.263 OA
HETATM    9  O   UNL     1       5.943  14.661  -3.879  1.00  0.00    -0.263 OA
HETATM   10  N   UNL     1       5.154   8.716   1.162  1.00  0.00    -0.340 N 
HETATM   11  N   UNL     1       2.912  13.972  -2.212  1.00  0.00    -0.340 N 
HETATM   12  N   UNL     1       8.348  12.471  -2.362  1.00  0.00    -0.340 N 
HETATM   13  C   UNL     1       6.599   8.414   1.163  1.00  0.00     0.190 C 
HETATM   14  C   UNL     1       3.468  13.657  -0.880  1.00  0.00     0.190 C 
HETATM   15  C   UNL     1       7.761  13.824  -2.495  1.00  0.00     0.190 C 
HETATM   16  C   UNL     1       3.401  10.494   1.043  1.00  0.00     0.227 C 
HETATM   17  C   UNL     1       8.849  10.400  -1.023  1.00  0.00     0.227 C 
HETATM   18  C   UNL     1       4.445  12.322  -3.360  1.00  0.00     0.227 C 
HETATM   19  C   UNL     1       4.778  10.026   1.494  1.00  0.00     0.250 C 
HETATM   20  C   UNL     1       3.404  13.461  -3.424  1.00  0.00     0.250 C 
HETATM   21  C   UNL     1       8.169  11.767  -1.161  1.00  0.00     0.250 C 
HETATM   22  C   UNL     1       2.841  12.368  -0.371  1.00  0.00     0.283 C 
HETATM   23  C   UNL     1       7.131   8.984  -0.145  1.00  0.00     0.283 C 
HETATM   24  C   UNL     1       6.403  13.756  -3.194  1.00  0.00     0.283 C 
HETATM   25  C   UNL     1       4.216   7.696   0.686  1.00  0.00     0.153 C 
HETATM   26  C   UNL     1       1.766  14.880  -2.270  1.00  0.00     0.153 C 
HETATM   27  C   UNL     1       9.021  11.932  -3.548  1.00  0.00     0.153 C 
ENDROOT
BRANCH  16  28
HETATM   28  C   UNL     1       2.441  10.548   2.217  1.00  0.00     0.016 C 
HETATM   29  C   UNL     1       3.134  10.098   3.502  1.00  0.00     0.012 C 
HETATM   30  C   UNL     1       1.208   9.688   1.945  1.00  0.00     0.012 C 
ENDBRANCH  16  28
BRANCH  14  31
HETATM   31  C   UNL     1       3.312  14.762   0.163  1.00  0.00     0.014 C 
HETATM   32  C   UNL     1       2.552  14.223   1.378  1.00  0.00     0.012 C 
BRANCH  31  33
HETATM   33  C   UNL     1       4.666  15.341   0.609  1.00  0.00     0.002 C 
HETATM   34  C   UNL     1       5.373  16.141  -0.475  1.00  0.00     0.005 C 
ENDBRANCH  31  33
ENDBRANCH  14  31
BRANCH  13  35
HETATM   35  C   UNL     1       6.988   6.947   1.283  1.00  0.00     0.014 C 
HETATM   36  C   UNL     1       8.427   6.751   0.798  1.00  0.00     0.012 C 
BRANCH  35  37
HETATM   37  C   UNL     1       6.846   6.415   2.720  1.00  0.00     0.002 C 
HETATM   38  C   UNL     1       6.260   5.012   2.794  1.00  0.00     0.005 C 
ENDBRANCH  35  37
ENDBRANCH  13  35
BRANCH  18  39
HETATM   39  C   UNL     1       4.639  11.664  -4.728  1.00  0.00     0.016 C 
HETATM   40  C   UNL     1       5.882  10.779  -4.725  1.00  0.00     0.012 C 
HETATM   41  C   UNL     1       3.403  10.854  -5.112  1.00  0.00     0.012 C 
ENDBRANCH  18  39
BRANCH  17  42
HETATM   42  C   UNL     1      10.329  10.580  -0.714  1.00  0.00     0.016 C 
HETATM   43  C   UNL     1      11.177   9.629  -1.558  1.00  0.00     0.012 C 
HETATM   44  C   UNL     1      10.601  10.362   0.774  1.00  0.00     0.012 C 
ENDBRANCH  17  42
BRANCH  15  45
HETATM   45  C   UNL     1       8.691  14.826  -3.176  1.00  0.00     0.014 C 
HETATM   46  C   UNL     1       8.115  16.241  -3.059  1.00  0.00     0.012 C 
BRANCH  45  47
HETATM   47  C   UNL     1      10.118  14.798  -2.595  1.00  0.00     0.002 C 
HETATM   48  C   UNL     1      11.142  15.508  -3.467  1.00  0.00     0.005 C 
ENDBRANCH  45  47
ENDBRANCH  15  45
TORSDOF 9
ENDMDL
MODEL 5
REMARK VINA RESULT:    -4.944      2.499      8.408
REMARK INTER + INTRA:          -7.153
REMARK INTER:                  -7.949
REMARK INTRA:                   0.796
REMARK UNBOUND:                 0.392
REMARK  9 active torsions:
REMARK  status: ('A' for Active; 'I' for Inactive)
REMARK    1  A    between atoms: C_13  and  C_16 
REMARK    2  A    between atoms: C_14  and  C_17 
REMARK    3  A    between atoms: C_15  and  C_18 
REMARK    4  A    between atoms: C_16  and  C_22 
REMARK    5  A    between atoms: C_17  and  C_23 
REMARK    6  A    between atoms: C_18  and  C_24 
REMARK    7  A    between atoms: C_19  and  C_25 
REMARK    8  A    between atoms: C_20  and  C_26 
REMARK    9  A    between atoms: C_21  and  C_27 
ROOT
HETATM    1  O   UNL     1       9.306   9.230   0.117  1.00  0.00    -0.304 OA
HETATM    2  O   UNL     1       7.501  13.427  -2.096  1.00  0.00    -0.304 OA
HETATM    3  O   UNL     1       5.275   9.613  -0.107  1.00  0.00    -0.304 OA
HETATM    4  O   UNL     1      10.071  11.642  -0.445  1.00  0.00    -0.270 OA
HETATM    5  O   UNL     1       4.657   6.301   0.628  1.00  0.00    -0.270 OA
HETATM    6  O   UNL     1       6.902  12.327   0.222  1.00  0.00    -0.270 OA
HETATM    7  O   UNL     1       8.965   6.966  -0.166  1.00  0.00    -0.263 OA
HETATM    8  O   UNL     1       7.280  11.473  -3.306  1.00  0.00    -0.263 OA
HETATM    9  O   UNL     1       3.755   9.138   1.555  1.00  0.00    -0.263 OA
HETATM   10  N   UNL     1      10.006  11.160  -2.713  1.00  0.00    -0.340 N 
HETATM   11  N   UNL     1       6.670   7.158   1.397  1.00  0.00    -0.340 N 
HETATM   12  N   UNL     1       4.615  12.181  -0.142  1.00  0.00    -0.340 N 
HETATM   13  C   UNL     1       9.470  12.502  -3.017  1.00  0.00     0.190 C 
HETATM   14  C   UNL     1       7.670   8.244   1.466  1.00  0.00     0.190 C 
HETATM   15  C   UNL     1       4.398  11.444   1.125  1.00  0.00     0.190 C 
HETATM   16  C   UNL     1      10.187   9.327  -1.022  1.00  0.00     0.227 C 
HETATM   17  C   UNL     1       6.101  13.416  -1.754  1.00  0.00     0.227 C 
HETATM   18  C   UNL     1       5.452   8.256  -0.526  1.00  0.00     0.227 C 
HETATM   19  C   UNL     1      10.113  10.811  -1.359  1.00  0.00     0.250 C 
HETATM   20  C   UNL     1       5.543   7.161   0.559  1.00  0.00     0.250 C 
HETATM   21  C   UNL     1       5.915  12.592  -0.475  1.00  0.00     0.250 C 
HETATM   22  C   UNL     1       8.713   8.030   0.380  1.00  0.00     0.283 C 
HETATM   23  C   UNL     1       7.961  12.381  -2.847  1.00  0.00     0.283 C 
HETATM   24  C   UNL     1       4.388   9.936   0.876  1.00  0.00     0.283 C 
HETATM   25  C   UNL     1      10.258  10.230  -3.816  1.00  0.00     0.153 C 
HETATM   26  C   UNL     1       6.871   5.996   2.263  1.00  0.00     0.153 C 
HETATM   27  C   UNL     1       3.440  12.362  -1.002  1.00  0.00     0.153 C 
ENDROOT
BRANCH  16  28
HETATM   28  C   UNL     1      11.600   8.935  -0.629  1.00  0.00     0.016 C 
HETATM   29  C   UNL     1      11.932   7.534  -1.139  1.00  0.00     0.012 C 
HETATM   30  C   UNL     1      11.778   9.009   0.887  1.00  0.00     0.012 C 
ENDBRANCH  16  28
BRANCH  14  31
HETATM   31  C   UNL     1       8.352   8.409   2.822  1.00  0.00     0.014 C 
HETATM   32  C   UNL     1       9.631   7.570   2.864  1.00  0.00     0.012 C 
BRANCH  31  33
HETATM   33  C   UNL     1       8.682   9.879   3.137  1.00  0.00     0.002 C 
HETATM   34  C   UNL     1       8.501  10.243   4.603  1.00  0.00     0.005 C 
ENDBRANCH  31  33
ENDBRANCH  14  31
BRANCH  13  35
HETATM   35  C   UNL     1       9.790  13.066  -4.395  1.00  0.00     0.014 C 
HETATM   36  C   UNL     1       8.490  13.363  -5.148  1.00  0.00     0.012 C 
BRANCH  35  37
HETATM   37  C   UNL     1      10.652  14.338  -4.324  1.00  0.00     0.002 C 
HETATM   38  C   UNL     1      10.035  15.445  -3.479  1.00  0.00     0.005 C 
ENDBRANCH  35  37
ENDBRANCH  13  35
BRANCH  18  39
HETATM   39  C   UNL     1       4.355   7.943  -1.546  1.00  0.00     0.016 C 
HETATM   40  C   UNL     1       4.060   9.167  -2.409  1.00  0.00     0.012 C 
HETATM   41  C   UNL     1       4.759   6.755  -2.418  1.00  0.00     0.012 C 
ENDBRANCH  18  39
BRANCH  17  42
HETATM   42  C   UNL     1       5.690  14.862  -1.510  1.00  0.00     0.016 C 
HETATM   43  C   UNL     1       6.495  15.809  -2.399  1.00  0.00     0.012 C 
HETATM   44  C   UNL     1       5.867  15.232  -0.038  1.00  0.00     0.012 C 
ENDBRANCH  17  42
BRANCH  15  45
HETATM   45  C   UNL     1       3.150  11.895   1.882  1.00  0.00     0.014 C 
HETATM   46  C   UNL     1       3.138  11.279   3.286  1.00  0.00     0.012 C 
BRANCH  45  47
HETATM   47  C   UNL     1       3.044  13.428   1.989  1.00  0.00     0.002 C 
HETATM   48  C   UNL     1       2.537  13.908   3.341  1.00  0.00     0.005 C 
ENDBRANCH  45  47
ENDBRANCH  15  45
TORSDOF 9
ENDMDL
MODEL 6
REMARK VINA RESULT:    -4.842      3.512      9.212
REMARK INTER + INTRA:          -6.998
REMARK INTER:                  -7.027
REMARK INTRA:                   0.030
REMARK UNBOUND:                 0.392
REMARK  9 active torsions:
REMARK  status: ('A' for Active; 'I' for Inactive)
REMARK    1  A    between atoms: C_13  and  C_16 
REMARK    2  A    between atoms: C_14  and  C_17 
REMARK    3  A    between atoms: C_15  and  C_18 
REMARK    4  A    between atoms: C_16  and  C_22 
REMARK    5  A    between atoms: C_17  and  C_23 
REMARK    6  A    between atoms: C_18  and  C_24 
REMARK    7  A    between atoms: C_19  and  C_25 
REMARK    8  A    between atoms: C_20  and  C_26 
REMARK    9  A    between atoms: C_21  and  C_27 
ROOT
HETATM    1  O   UNL     1       7.140  10.053   0.156  1.00  0.00    -0.304 OA
HETATM    2  O   UNL     1       5.636  14.647  -1.393  1.00  0.00    -0.304 OA
HETATM    3  O   UNL     1       3.146  10.681  -0.154  1.00  0.00    -0.304 OA
HETATM    4  O   UNL     1       8.041  12.481   0.035  1.00  0.00    -0.270 OA
HETATM    5  O   UNL     1       2.343   7.332  -0.006  1.00  0.00    -0.270 OA
HETATM    6  O   UNL     1       4.880  13.214   0.684  1.00  0.00    -0.270 OA
HETATM    7  O   UNL     1       6.710   7.888  -0.512  1.00  0.00    -0.263 OA
HETATM    8  O   UNL     1       5.382  12.933  -2.920  1.00  0.00    -0.263 OA
HETATM    9  O   UNL     1       1.531  10.020   1.345  1.00  0.00    -0.263 OA
HETATM   10  N   UNL     1       8.061  12.382  -2.283  1.00  0.00    -0.340 N 
HETATM   11  N   UNL     1       4.356   7.941   0.971  1.00  0.00    -0.340 N 
HETATM   12  N   UNL     1       2.608  13.251   0.213  1.00  0.00    -0.340 N 
HETATM   13  C   UNL     1       7.602  13.782  -2.380  1.00  0.00     0.190 C 
HETATM   14  C   UNL     1       5.400   8.947   1.258  1.00  0.00     0.190 C 
HETATM   15  C   UNL     1       2.298  12.329   1.330  1.00  0.00     0.190 C 
HETATM   16  C   UNL     1       8.078  10.289  -0.916  1.00  0.00     0.227 C 
HETATM   17  C   UNL     1       4.222  14.655  -1.112  1.00  0.00     0.227 C 
HETATM   18  C   UNL     1       3.280   9.405  -0.787  1.00  0.00     0.227 C 
HETATM   19  C   UNL     1       8.088  11.810  -1.003  1.00  0.00     0.250 C 
HETATM   20  C   UNL     1       3.270   8.143   0.103  1.00  0.00     0.250 C 
HETATM   21  C   UNL     1       3.939  13.642   0.004  1.00  0.00     0.250 C 
HETATM   22  C   UNL     1       6.482   8.859   0.193  1.00  0.00     0.283 C 
HETATM   23  C   UNL     1       6.083  13.715  -2.290  1.00  0.00     0.283 C 
HETATM   24  C   UNL     1       2.231  10.885   0.833  1.00  0.00     0.283 C 
HETATM   25  C   UNL     1       8.321  11.634  -3.515  1.00  0.00     0.153 C 
HETATM   26  C   UNL     1       4.462   6.644   1.639  1.00  0.00     0.153 C 
HETATM   27  C   UNL     1       1.484  13.633  -0.648  1.00  0.00     0.153 C 
ENDROOT
BRANCH  16  28
HETATM   28  C   UNL     1       9.451   9.764  -0.539  1.00  0.00     0.016 C 
HETATM   29  C   UNL     1      10.377  10.911  -0.142  1.00  0.00     0.012 C 
HETATM   30  C   UNL     1      10.056   8.962  -1.691  1.00  0.00     0.012 C 
ENDBRANCH  16  28
BRANCH  14  31
HETATM   31  C   UNL     1       6.025   8.850   2.649  1.00  0.00     0.014 C 
HETATM   32  C   UNL     1       7.471   8.360   2.533  1.00  0.00     0.012 C 
BRANCH  31  33
HETATM   33  C   UNL     1       5.987  10.191   3.402  1.00  0.00     0.002 C 
HETATM   34  C   UNL     1       4.578  10.692   3.682  1.00  0.00     0.005 C 
ENDBRANCH  31  33
ENDBRANCH  14  31
BRANCH  13  35
HETATM   35  C   UNL     1       8.011  14.548  -3.631  1.00  0.00     0.014 C 
HETATM   36  C   UNL     1       6.817  15.343  -4.165  1.00  0.00     0.012 C 
BRANCH  35  37
HETATM   37  C   UNL     1       9.197  15.495  -3.379  1.00  0.00     0.002 C 
HETATM   38  C   UNL     1      10.516  14.982  -3.941  1.00  0.00     0.005 C 
ENDBRANCH  35  37
ENDBRANCH  13  35
BRANCH  18  39
HETATM   39  C   UNL     1       2.219   9.322  -1.886  1.00  0.00     0.016 C 
HETATM   40  C   UNL     1       2.025  10.684  -2.548  1.00  0.00     0.012 C 
HETATM   41  C   UNL     1       2.605   8.270  -2.925  1.00  0.00     0.012 C 
ENDBRANCH  18  39
BRANCH  17  42
HETATM   42  C   UNL     1       3.868  16.060  -0.646  1.00  0.00     0.016 C 
HETATM   43  C   UNL     1       3.182  16.843  -1.765  1.00  0.00     0.012 C 
HETATM   44  C   UNL     1       5.116  16.799  -0.163  1.00  0.00     0.012 C 
ENDBRANCH  17  42
BRANCH  15  45
HETATM   45  C   UNL     1       1.039  12.714   2.104  1.00  0.00     0.014 C 
HETATM   46  C   UNL     1       0.963  11.918   3.411  1.00  0.00     0.012 C 
BRANCH  45  47
HETATM   47  C   UNL     1       0.971  14.222   2.412  1.00  0.00     0.002 C 
HETATM   48  C   UNL     1       1.779  14.628   3.635  1.00  0.00     0.005 C 
ENDBRANCH  45  47
ENDBRANCH  15  45
TORSDOF 9
ENDMDL
MODEL 7
REMARK VINA RESULT:    -4.750      2.356      4.961
REMARK INTER + INTRA:          -6.857
REMARK INTER:                  -7.381
REMARK INTRA:                   0.524
REMARK UNBOUND:                 0.392
REMARK  9 active torsions:
REMARK  status: ('A' for Active; 'I' for Inactive)
REMARK    1  A    between atoms: C_13  and  C_16 
REMARK    2  A    between atoms: C_14  and  C_17 
REMARK    3  A    between atoms: C_15  and  C_18 
REMARK    4  A    between atoms: C_16  and  C_22 
REMARK    5  A    between atoms: C_17  and  C_23 
REMARK    6  A    between atoms: C_18  and  C_24 
REMARK    7  A    between atoms: C_19  and  C_25 
REMARK    8  A    between atoms: C_20  and  C_26 
REMARK    9  A    between atoms: C_21  and  C_27 
ROOT
HETATM    1  O   UNL     1       7.864  12.033  -3.146  1.00  0.00    -0.304 OA
HETATM    2  O   UNL     1      11.449   9.108  -5.234  1.00  0.00    -0.304 OA
HETATM    3  O   UNL     1       7.315  10.909  -7.003  1.00  0.00    -0.304 OA
HETATM    4  O   UNL     1      10.362  11.432  -2.799  1.00  0.00    -0.270 OA
HETATM    5  O   UNL     1       3.983  11.792  -7.061  1.00  0.00    -0.270 OA
HETATM    6  O   UNL     1      10.338  11.332  -6.107  1.00  0.00    -0.270 OA
HETATM    7  O   UNL     1       5.572  11.891  -2.925  1.00  0.00    -0.263 OA
HETATM    8  O   UNL     1       9.448   8.062  -4.752  1.00  0.00    -0.263 OA
HETATM    9  O   UNL     1       6.577  12.238  -8.730  1.00  0.00    -0.263 OA
HETATM   10  N   UNL     1       9.784   9.257  -2.233  1.00  0.00    -0.340 N 
HETATM   11  N   UNL     1       5.304  12.896  -5.507  1.00  0.00    -0.340 N 
HETATM   12  N   UNL     1       9.663  10.497  -8.164  1.00  0.00    -0.340 N 
HETATM   13  C   UNL     1      10.957   8.723  -2.956  1.00  0.00     0.190 C 
HETATM   14  C   UNL     1       6.590  13.080  -4.803  1.00  0.00     0.190 C 
HETATM   15  C   UNL     1       8.949  11.748  -8.507  1.00  0.00     0.190 C 
HETATM   16  C   UNL     1       8.112  11.108  -2.065  1.00  0.00     0.227 C 
HETATM   17  C   UNL     1      11.136   9.138  -6.641  1.00  0.00     0.227 C 
HETATM   18  C   UNL     1       6.018  10.663  -6.451  1.00  0.00     0.227 C 
HETATM   19  C   UNL     1       9.525  10.629  -2.372  1.00  0.00     0.250 C 
HETATM   20  C   UNL     1       5.017  11.838  -6.384  1.00  0.00     0.250 C 
HETATM   21  C   UNL     1      10.344  10.417  -6.939  1.00  0.00     0.250 C 
HETATM   22  C   UNL     1       6.573  12.271  -3.516  1.00  0.00     0.283 C 
HETATM   23  C   UNL     1      10.504   8.573  -4.402  1.00  0.00     0.283 C 
HETATM   24  C   UNL     1       7.469  11.642  -8.141  1.00  0.00     0.283 C 
HETATM   25  C   UNL     1       8.891   8.325  -1.543  1.00  0.00     0.153 C 
HETATM   26  C   UNL     1       4.255  13.889  -5.271  1.00  0.00     0.153 C 
HETATM   27  C   UNL     1       9.538   9.391  -9.119  1.00  0.00     0.153 C 
ENDROOT
BRANCH  16  28
HETATM   28  C   UNL     1       8.066  11.831  -0.732  1.00  0.00     0.016 C 
HETATM   29  C   UNL     1       8.669  13.230  -0.857  1.00  0.00     0.012 C 
HETATM   30  C   UNL     1       8.797  11.028   0.343  1.00  0.00     0.012 C 
ENDBRANCH  16  28
BRANCH  14  31
HETATM   31  C   UNL     1       6.961  14.532  -4.503  1.00  0.00     0.014 C 
HETATM   32  C   UNL     1       6.383  14.944  -3.147  1.00  0.00     0.012 C 
BRANCH  31  33
HETATM   33  C   UNL     1       8.482  14.761  -4.515  1.00  0.00     0.002 C 
HETATM   34  C   UNL     1       8.954  15.769  -3.476  1.00  0.00     0.005 C 
ENDBRANCH  31  33
ENDBRANCH  14  31
BRANCH  13  35
HETATM   35  C   UNL     1      11.521   7.402  -2.453  1.00  0.00     0.014 C 
HETATM   36  C   UNL     1      12.215   6.664  -3.601  1.00  0.00     0.012 C 
BRANCH  35  37
HETATM   37  C   UNL     1      12.506   7.589  -1.285  1.00  0.00     0.002 C 
HETATM   38  C   UNL     1      13.010   6.277  -0.698  1.00  0.00     0.005 C 
ENDBRANCH  35  37
ENDBRANCH  13  35
BRANCH  18  39
HETATM   39  C   UNL     1       5.422   9.463  -7.190  1.00  0.00     0.016 C 
HETATM   40  C   UNL     1       6.511   8.448  -7.530  1.00  0.00     0.012 C 
HETATM   41  C   UNL     1       4.322   8.812  -6.355  1.00  0.00     0.012 C 
ENDBRANCH  18  39
BRANCH  17  42
HETATM   42  C   UNL     1      12.460   9.155  -7.392  1.00  0.00     0.016 C 
HETATM   43  C   UNL     1      12.650   7.860  -8.181  1.00  0.00     0.012 C 
HETATM   44  C   UNL     1      13.625   9.369  -6.428  1.00  0.00     0.012 C 
ENDBRANCH  17  42
BRANCH  15  45
HETATM   45  C   UNL     1       9.136  12.174  -9.963  1.00  0.00     0.014 C 
HETATM   46  C   UNL     1       8.317  13.437 -10.249  1.00  0.00     0.012 C 
BRANCH  45  47
HETATM   47  C   UNL     1      10.614  12.422 -10.322  1.00  0.00     0.002 C 
HETATM   48  C   UNL     1      11.043  11.756 -11.620  1.00  0.00     0.005 C 
ENDBRANCH  45  47
ENDBRANCH  15  45
TORSDOF 9
ENDMDL
MODEL 8
REMARK VINA RESULT:    -4.662      9.625     14.857
REMARK INTER + INTRA:          -6.724
REMARK INTER:                  -7.052
REMARK INTRA:                   0.329
REMARK UNBOUND:                 0.392
REMARK  9 active torsions:
REMARK  status: ('A' for Active; 'I' for Inactive)
REMARK    1  A    between atoms: C_13  and  C_16 
REMARK    2  A    between atoms: C_14  and  C_17 
REMARK    3  A    between atoms: C_15  and  C_18 
REMARK    4  A    between atoms: C_16  and  C_22 
REMARK    5  A    between atoms: C_17  and  C_23 
REMARK    6  A    between atoms: C_18  and  C_24 
REMARK    7  A    between atoms: C_19  and  C_25 
REMARK    8  A    between atoms: C_20  and  C_26 
REMARK    9  A    between atoms: C_21  and  C_27 
ROOT
HETATM    1  O   UNL     1      19.510   4.451   7.586  1.00  0.00    -0.304 OA
HETATM    2  O   UNL     1      18.734   9.463   7.809  1.00  0.00    -0.304 OA
HETATM    3  O   UNL     1      16.801   6.017   5.006  1.00  0.00    -0.304 OA
HETATM    4  O   UNL     1      19.815   6.417   9.248  1.00  0.00    -0.270 OA
HETATM    5  O   UNL     1      16.703   3.216   2.998  1.00  0.00    -0.270 OA
HETATM    6  O   UNL     1      17.014   7.467   7.830  1.00  0.00    -0.270 OA
HETATM    7  O   UNL     1      20.036   2.959   5.907  1.00  0.00    -0.263 OA
HETATM    8  O   UNL     1      19.898   8.703   5.965  1.00  0.00    -0.263 OA
HETATM    9  O   UNL     1      14.743   5.138   4.474  1.00  0.00    -0.263 OA
HETATM   10  N   UNL     1      21.442   7.350   7.881  1.00  0.00    -0.340 N 
HETATM   11  N   UNL     1      17.346   2.871   5.199  1.00  0.00    -0.340 N 
HETATM   12  N   UNL     1      15.731   8.209   6.046  1.00  0.00    -0.340 N 
HETATM   13  C   UNL     1      20.946   8.712   8.165  1.00  0.00     0.190 C 
HETATM   14  C   UNL     1      17.713   3.387   6.534  1.00  0.00     0.190 C 
HETATM   15  C   UNL     1      14.900   6.982   6.052  1.00  0.00     0.190 C 
HETATM   16  C   UNL     1      20.869   4.923   7.710  1.00  0.00     0.227 C 
HETATM   17  C   UNL     1      17.542   9.658   7.022  1.00  0.00     0.227 C 
HETATM   18  C   UNL     1      17.549   5.157   4.141  1.00  0.00     0.227 C 
HETATM   19  C   UNL     1      20.677   6.281   8.371  1.00  0.00     0.250 C 
HETATM   20  C   UNL     1      17.144   3.669   4.062  1.00  0.00     0.250 C 
HETATM   21  C   UNL     1      16.747   8.347   7.003  1.00  0.00     0.250 C 
HETATM   22  C   UNL     1      19.223   3.542   6.610  1.00  0.00     0.283 C 
HETATM   23  C   UNL     1      19.824   8.950   7.162  1.00  0.00     0.283 C 
HETATM   24  C   UNL     1      15.441   5.961   5.052  1.00  0.00     0.283 C 
HETATM   25  C   UNL     1      22.600   7.186   7.001  1.00  0.00     0.153 C 
HETATM   26  C   UNL     1      17.182   1.424   5.055  1.00  0.00     0.153 C 
HETATM   27  C   UNL     1      15.467   9.170   4.970  1.00  0.00     0.153 C 
ENDROOT
BRANCH  16  28
HETATM   28  C   UNL     1      21.667   3.996   8.609  1.00  0.00     0.016 C 
HETATM   29  C   UNL     1      22.157   4.739   9.850  1.00  0.00     0.012 C 
HETATM   30  C   UNL     1      22.845   3.390   7.848  1.00  0.00     0.012 C 
ENDBRANCH  16  28
BRANCH  14  31
HETATM   31  C   UNL     1      17.213   2.551   7.711  1.00  0.00     0.014 C 
HETATM   32  C   UNL     1      18.400   1.906   8.429  1.00  0.00     0.012 C 
BRANCH  31  33
HETATM   33  C   UNL     1      16.387   3.381   8.710  1.00  0.00     0.002 C 
HETATM   34  C   UNL     1      15.076   3.897   8.135  1.00  0.00     0.005 C 
ENDBRANCH  31  33
ENDBRANCH  14  31
BRANCH  13  35
HETATM   35  C   UNL     1      21.965   9.839   8.076  1.00  0.00     0.014 C 
HETATM   36  C   UNL     1      21.243  11.188   8.022  1.00  0.00     0.012 C 
BRANCH  35  37
HETATM   37  C   UNL     1      22.959   9.828   9.250  1.00  0.00     0.002 C 
HETATM   38  C   UNL     1      22.318   9.479  10.587  1.00  0.00     0.005 C 
ENDBRANCH  35  37
ENDBRANCH  13  35
BRANCH  18  39
HETATM   39  C   UNL     1      17.572   5.805   2.755  1.00  0.00     0.016 C 
HETATM   40  C   UNL     1      17.728   7.319   2.873  1.00  0.00     0.012 C 
HETATM   41  C   UNL     1      18.695   5.213   1.906  1.00  0.00     0.012 C 
ENDBRANCH  18  39
BRANCH  17  42
HETATM   42  C   UNL     1      16.732  10.752   7.702  1.00  0.00     0.016 C 
HETATM   43  C   UNL     1      16.888  12.080   6.961  1.00  0.00     0.012 C 
HETATM   44  C   UNL     1      17.151  10.905   9.164  1.00  0.00     0.012 C 
ENDBRANCH  17  42
BRANCH  15  45
HETATM   45  C   UNL     1      13.414   7.254   5.827  1.00  0.00     0.014 C 
HETATM   46  C   UNL     1      12.890   8.219   6.896  1.00  0.00     0.012 C 
BRANCH  45  47
HETATM   47  C   UNL     1      13.123   7.825   4.426  1.00  0.00     0.002 C 
HETATM   48  C   UNL     1      11.650   7.784   4.049  1.00  0.00     0.005 C 
ENDBRANCH  45  47
ENDBRANCH  15  45
TORSDOF 9
ENDMDL
MODEL 9
REMARK VINA RESULT:    -4.547     10.736     15.194
REMARK INTER + INTRA:          -6.547
REMARK INTER:                  -6.962
REMARK INTRA:                   0.415
REMARK UNBOUND:                 0.392
REMARK  9 active torsions:
REMARK  status: ('A' for Active; 'I' for Inactive)
REMARK    1  A    between atoms: C_13  and  C_16 
REMARK    2  A    between atoms: C_14  and  C_17 
REMARK    3  A    between atoms: C_15  and  C_18 
REMARK    4  A    between atoms: C_16  and  C_22 
REMARK    5  A    between atoms: C_17  and  C_23 
REMARK    6  A    between atoms: C_18  and  C_24 
REMARK    7  A    between atoms: C_19  and  C_25 
REMARK    8  A    between atoms: C_20  and  C_26 
REMARK    9  A    between atoms: C_21  and  C_27 
ROOT
HETATM    1  O   UNL     1      17.464   5.808   4.870  1.00  0.00    -0.304 OA
HETATM    2  O   UNL     1      21.075   8.064   7.634  1.00  0.00    -0.304 OA
HETATM    3  O   UNL     1      19.694   3.435   7.287  1.00  0.00    -0.304 OA
HETATM    4  O   UNL     1      18.872   7.985   4.867  1.00  0.00    -0.270 OA
HETATM    5  O   UNL     1      17.537   0.753   7.080  1.00  0.00    -0.270 OA
HETATM    6  O   UNL     1      21.198   5.956   6.060  1.00  0.00    -0.270 OA
HETATM    7  O   UNL     1      15.705   4.391   5.336  1.00  0.00    -0.263 OA
HETATM    8  O   UNL     1      19.220   7.335   8.800  1.00  0.00    -0.263 OA
HETATM    9  O   UNL     1      20.574   1.376   6.757  1.00  0.00    -0.263 OA
HETATM   10  N   UNL     1      17.806   8.705   6.798  1.00  0.00    -0.340 N 
HETATM   11  N   UNL     1      17.479   2.247   5.307  1.00  0.00    -0.340 N 
HETATM   12  N   UNL     1      22.094   4.506   7.635  1.00  0.00    -0.340 N 
HETATM   13  C   UNL     1      19.066   9.268   7.324  1.00  0.00     0.190 C 
HETATM   14  C   UNL     1      17.889   3.518   4.675  1.00  0.00     0.190 C 
HETATM   15  C   UNL     1      21.997   3.348   6.716  1.00  0.00     0.190 C 
HETATM   16  C   UNL     1      16.754   6.980   5.326  1.00  0.00     0.227 C 
HETATM   17  C   UNL     1      21.864   6.963   8.128  1.00  0.00     0.227 C 
HETATM   18  C   UNL     1      18.374   2.956   7.562  1.00  0.00     0.227 C 
HETATM   19  C   UNL     1      17.891   7.950   5.620  1.00  0.00     0.250 C 
HETATM   20  C   UNL     1      17.777   1.880   6.629  1.00  0.00     0.250 C 
HETATM   21  C   UNL     1      21.683   5.769   7.182  1.00  0.00     0.250 C 
HETATM   22  C   UNL     1      16.863   4.591   5.002  1.00  0.00     0.283 C 
HETATM   23  C   UNL     1      19.765   8.108   8.022  1.00  0.00     0.283 C 
HETATM   24  C   UNL     1      20.699   2.577   6.956  1.00  0.00     0.283 C 
HETATM   25  C   UNL     1      16.583   8.839   7.592  1.00  0.00     0.153 C 
HETATM   26  C   UNL     1      16.706   1.306   4.496  1.00  0.00     0.153 C 
HETATM   27  C   UNL     1      22.553   4.220   8.998  1.00  0.00     0.153 C 
ENDROOT
BRANCH  16  28
HETATM   28  C   UNL     1      15.861   7.517   4.222  1.00  0.00     0.016 C 
HETATM   29  C   UNL     1      16.591   7.493   2.880  1.00  0.00     0.012 C 
HETATM   30  C   UNL     1      15.389   8.932   4.550  1.00  0.00     0.012 C 
ENDBRANCH  16  28
BRANCH  14  31
HETATM   31  C   UNL     1      18.109   3.447   3.165  1.00  0.00     0.014 C 
HETATM   32  C   UNL     1      16.856   3.938   2.436  1.00  0.00     0.012 C 
BRANCH  31  33
HETATM   33  C   UNL     1      19.331   4.266   2.712  1.00  0.00     0.002 C 
HETATM   34  C   UNL     1      20.642   3.789   3.320  1.00  0.00     0.005 C 
ENDBRANCH  31  33
ENDBRANCH  14  31
BRANCH  13  35
HETATM   35  C   UNL     1      18.938  10.444   8.282  1.00  0.00     0.014 C 
HETATM   36  C   UNL     1      19.412  10.031   9.678  1.00  0.00     0.012 C 
BRANCH  35  37
HETATM   37  C   UNL     1      19.727  11.677   7.808  1.00  0.00     0.002 C 
HETATM   38  C   UNL     1      21.059  11.859   8.525  1.00  0.00     0.005 C 
ENDBRANCH  35  37
ENDBRANCH  13  35
BRANCH  18  39
HETATM   39  C   UNL     1      18.342   2.508   9.025  1.00  0.00     0.016 C 
HETATM   40  C   UNL     1      19.220   3.415   9.883  1.00  0.00     0.012 C 
HETATM   41  C   UNL     1      16.908   2.495   9.550  1.00  0.00     0.012 C 
ENDBRANCH  18  39
BRANCH  17  42
HETATM   42  C   UNL     1      23.316   7.418   8.125  1.00  0.00     0.016 C 
HETATM   43  C   UNL     1      23.463   8.760   8.842  1.00  0.00     0.012 C 
HETATM   44  C   UNL     1      23.850   7.514   6.696  1.00  0.00     0.012 C 
ENDBRANCH  17  42
BRANCH  15  45
HETATM   45  C   UNL     1      23.214   2.427   6.770  1.00  0.00     0.014 C 
HETATM   46  C   UNL     1      23.133   1.385   5.648  1.00  0.00     0.012 C 
BRANCH  45  47
HETATM   47  C   UNL     1      24.545   3.196   6.667  1.00  0.00     0.002 C 
HETATM   48  C   UNL     1      25.606   2.706   7.640  1.00  0.00     0.005 C 
ENDBRANCH  45  47
ENDBRANCH  15  45
TORSDOF 9
ENDMDL
MODEL 10
REMARK VINA RESULT:    -4.389      7.591     12.888
REMARK INTER + INTRA:          -6.306
REMARK INTER:                  -6.616
REMARK INTRA:                   0.310
REMARK UNBOUND:                 0.392
REMARK  9 active torsions:
REMARK  status: ('A' for Active; 'I' for Inactive)
REMARK    1  A    between atoms: C_13  and  C_16 
REMARK    2  A    between atoms: C_14  and  C_17 
REMARK    3  A    between atoms: C_15  and  C_18 
REMARK    4  A    between atoms: C_16  and  C_22 
REMARK    5  A    between atoms: C_17  and  C_23 
REMARK    6  A    between atoms: C_18  and  C_24 
REMARK    7  A    between atoms: C_19  and  C_25 
REMARK    8  A    between atoms: C_20  and  C_26 
REMARK    9  A    between atoms: C_21  and  C_27 
ROOT
HETATM    1  O   UNL     1      17.998   5.719   5.906  1.00  0.00    -0.304 OA
HETATM    2  O   UNL     1      18.631   4.136   1.125  1.00  0.00    -0.304 OA
HETATM    3  O   UNL     1      14.673   4.587   3.879  1.00  0.00    -0.304 OA
HETATM    4  O   UNL     1      19.715   5.929   3.975  1.00  0.00    -0.270 OA
HETATM    5  O   UNL     1      12.706   4.374   6.703  1.00  0.00    -0.270 OA
HETATM    6  O   UNL     1      16.970   5.919   2.126  1.00  0.00    -0.270 OA
HETATM    7  O   UNL     1      16.977   4.855   7.785  1.00  0.00    -0.263 OA
HETATM    8  O   UNL     1      18.122   2.499   2.671  1.00  0.00    -0.263 OA
HETATM    9  O   UNL     1      12.639   5.663   3.866  1.00  0.00    -0.263 OA
HETATM   10  N   UNL     1      20.211   3.668   4.139  1.00  0.00    -0.340 N 
HETATM   11  N   UNL     1      14.534   5.795   6.838  1.00  0.00    -0.340 N 
HETATM   12  N   UNL     1      15.029   4.971   1.280  1.00  0.00    -0.340 N 
HETATM   13  C   UNL     1      20.320   3.552   2.671  1.00  0.00     0.190 C 
HETATM   14  C   UNL     1      15.779   6.356   6.273  1.00  0.00     0.190 C 
HETATM   15  C   UNL     1      14.169   5.942   1.995  1.00  0.00     0.190 C 
HETATM   16  C   UNL     1      19.170   4.890   6.056  1.00  0.00     0.227 C 
HETATM   17  C   UNL     1      17.291   4.105   0.596  1.00  0.00     0.227 C 
HETATM   18  C   UNL     1      14.475   3.929   5.134  1.00  0.00     0.227 C 
HETATM   19  C   UNL     1      19.746   4.890   4.646  1.00  0.00     0.250 C 
HETATM   20  C   UNL     1      13.815   4.725   6.281  1.00  0.00     0.250 C 
HETATM   21  C   UNL     1      16.423   5.076   1.405  1.00  0.00     0.250 C 
HETATM   22  C   UNL     1      16.963   5.547   6.777  1.00  0.00     0.283 C 
HETATM   23  C   UNL     1      18.899   3.307   2.179  1.00  0.00     0.283 C 
HETATM   24  C   UNL     1      13.698   5.363   3.329  1.00  0.00     0.283 C 
HETATM   25  C   UNL     1      20.450   2.483   4.964  1.00  0.00     0.153 C 
HETATM   26  C   UNL     1      14.016   6.398   8.067  1.00  0.00     0.153 C 
HETATM   27  C   UNL     1      14.339   3.909   0.540  1.00  0.00     0.153 C 
ENDROOT
BRANCH  16  28
HETATM   28  C   UNL     1      20.142   5.524   7.034  1.00  0.00     0.016 C 
HETATM   29  C   UNL     1      21.425   5.946   6.321  1.00  0.00     0.012 C 
HETATM   30  C   UNL     1      20.458   4.565   8.180  1.00  0.00     0.012 C 
ENDBRANCH  16  28
BRANCH  14  31
HETATM   31  C   UNL     1      16.003   7.841   6.552  1.00  0.00     0.014 C 
HETATM   32  C   UNL     1      17.257   8.023   7.410  1.00  0.00     0.012 C 
BRANCH  31  33
HETATM   33  C   UNL     1      16.131   8.666   5.259  1.00  0.00     0.002 C 
HETATM   34  C   UNL     1      14.865   8.673   4.413  1.00  0.00     0.005 C 
ENDBRANCH  31  33
ENDBRANCH  14  31
BRANCH  13  35
HETATM   35  C   UNL     1      21.243   2.463   2.141  1.00  0.00     0.014 C 
HETATM   36  C   UNL     1      20.739   1.972   0.781  1.00  0.00     0.012 C 
BRANCH  35  37
HETATM   37  C   UNL     1      22.701   2.938   2.016  1.00  0.00     0.002 C 
HETATM   38  C   UNL     1      22.984   3.701   0.728  1.00  0.00     0.005 C 
ENDBRANCH  35  37
ENDBRANCH  13  35
BRANCH  18  39
HETATM   39  C   UNL     1      13.727   2.624   4.857  1.00  0.00     0.016 C 
HETATM   40  C   UNL     1      14.158   2.032   3.517  1.00  0.00     0.012 C 
HETATM   41  C   UNL     1      13.960   1.622   5.986  1.00  0.00     0.012 C 
ENDBRANCH  18  39
BRANCH  17  42
HETATM   42  C   UNL     1      17.373   4.560  -0.854  1.00  0.00     0.016 C 
HETATM   43  C   UNL     1      17.028   3.411  -1.801  1.00  0.00     0.012 C 
HETATM   44  C   UNL     1      18.762   5.114  -1.169  1.00  0.00     0.012 C 
ENDBRANCH  17  42
BRANCH  15  45
HETATM   45  C   UNL     1      12.995   6.445   1.157  1.00  0.00     0.014 C 
HETATM   46  C   UNL     1      11.702   5.747   1.595  1.00  0.00     0.012 C 
BRANCH  45  47
HETATM   47  C   UNL     1      12.814   7.972   1.248  1.00  0.00     0.002 C 
HETATM   48  C   UNL     1      11.559   8.391   1.998  1.00  0.00     0.005 C 
ENDBRANCH  45  47
ENDBRANCH  15  45
TORSDOF 9
ENDMDL
MODEL 11
REMARK VINA RESULT:    -4.313      9.290     14.367
REMARK INTER + INTRA:          -6.190
REMARK INTER:                  -6.421
REMARK INTRA:                   0.231
REMARK UNBOUND:                 0.392
REMARK  9 active torsions:
REMARK  status: ('A' for Active; 'I' for Inactive)
REMARK    1  A    between atoms: C_13  and  C_16 
REMARK    2  A    between atoms: C_14  and  C_17 
REMARK    3  A    between atoms: C_15  and  C_18 
REMARK    4  A    between atoms: C_16  and  C_22 
REMARK    5  A    between atoms: C_17  and  C_23 
REMARK    6  A    between atoms: C_18  and  C_24 
REMARK    7  A    between atoms: C_19  and  C_25 
REMARK    8  A    between atoms: C_20  and  C_26 
REMARK    9  A    between atoms: C_21  and  C_27 
ROOT
HETATM    1  O   UNL     1      14.907   6.765   6.189  1.00  0.00    -0.304 OA
HETATM    2  O   UNL     1      19.768   5.382   5.715  1.00  0.00    -0.304 OA
HETATM    3  O   UNL     1      17.658   8.967   8.197  1.00  0.00    -0.304 OA
HETATM    4  O   UNL     1      16.306   4.678   5.548  1.00  0.00    -0.270 OA
HETATM    5  O   UNL     1      15.499  11.582   8.815  1.00  0.00    -0.270 OA
HETATM    6  O   UNL     1      18.337   5.875   7.871  1.00  0.00    -0.270 OA
HETATM    7  O   UNL     1      13.741   8.735   5.909  1.00  0.00    -0.263 OA
HETATM    8  O   UNL     1      19.161   7.324   4.624  1.00  0.00    -0.263 OA
HETATM    9  O   UNL     1      17.487   9.742  10.356  1.00  0.00    -0.263 OA
HETATM   10  N   UNL     1      17.062   5.745   3.632  1.00  0.00    -0.340 N 
HETATM   11  N   UNL     1      14.517   9.510   8.467  1.00  0.00    -0.340 N 
HETATM   12  N   UNL     1      19.766   7.465   8.775  1.00  0.00    -0.340 N 
HETATM   13  C   UNL     1      18.407   5.159   3.797  1.00  0.00     0.190 C 
HETATM   14  C   UNL     1      14.610   8.082   8.098  1.00  0.00     0.190 C 
HETATM   15  C   UNL     1      18.828   7.769   9.881  1.00  0.00     0.190 C 
HETATM   16  C   UNL     1      14.969   6.499   4.771  1.00  0.00     0.227 C 
HETATM   17  C   UNL     1      20.437   6.130   6.750  1.00  0.00     0.227 C 
HETATM   18  C   UNL     1      16.847   9.992   7.615  1.00  0.00     0.227 C 
HETATM   19  C   UNL     1      16.148   5.541   4.676  1.00  0.00     0.250 C 
HETATM   20  C   UNL     1      15.572  10.431   8.368  1.00  0.00     0.250 C 
HETATM   21  C   UNL     1      19.417   6.477   7.841  1.00  0.00     0.250 C 
HETATM   22  C   UNL     1      14.345   7.935   6.608  1.00  0.00     0.283 C 
HETATM   23  C   UNL     1      19.146   6.105   4.735  1.00  0.00     0.283 C 
HETATM   24  C   UNL     1      17.950   8.969   9.527  1.00  0.00     0.283 C 
HETATM   25  C   UNL     1      16.801   6.610   2.479  1.00  0.00     0.153 C 
HETATM   26  C   UNL     1      13.233   9.997   8.971  1.00  0.00     0.153 C 
HETATM   27  C   UNL     1      20.976   8.289   8.700  1.00  0.00     0.153 C 
ENDROOT
BRANCH  16  28
HETATM   28  C   UNL     1      13.690   5.826   4.307  1.00  0.00     0.016 C 
HETATM   29  C   UNL     1      13.984   4.433   3.755  1.00  0.00     0.012 C 
HETATM   30  C   UNL     1      12.983   6.680   3.255  1.00  0.00     0.012 C 
ENDBRANCH  16  28
BRANCH  14  31
HETATM   31  C   UNL     1      13.693   7.149   8.888  1.00  0.00     0.014 C 
HETATM   32  C   UNL     1      12.651   6.533   7.951  1.00  0.00     0.012 C 
BRANCH  31  33
HETATM   33  C   UNL     1      14.472   6.035   9.607  1.00  0.00     0.002 C 
HETATM   34  C   UNL     1      15.384   6.545  10.714  1.00  0.00     0.005 C 
ENDBRANCH  31  33
ENDBRANCH  14  31
BRANCH  13  35
HETATM   35  C   UNL     1      19.221   4.954   2.526  1.00  0.00     0.014 C 
HETATM   36  C   UNL     1      20.506   4.188   2.851  1.00  0.00     0.012 C 
BRANCH  35  37
HETATM   37  C   UNL     1      18.432   4.208   1.436  1.00  0.00     0.002 C 
HETATM   38  C   UNL     1      18.773   4.658   0.022  1.00  0.00     0.005 C 
ENDBRANCH  35  37
ENDBRANCH  13  35
BRANCH  18  39
HETATM   39  C   UNL     1      17.758  11.185   7.315  1.00  0.00     0.016 C 
HETATM   40  C   UNL     1      19.066  10.715   6.684  1.00  0.00     0.012 C 
HETATM   41  C   UNL     1      17.049  12.184   6.402  1.00  0.00     0.012 C 
ENDBRANCH  18  39
BRANCH  17  42
HETATM   42  C   UNL     1      21.526   5.230   7.318  1.00  0.00     0.016 C 
HETATM   43  C   UNL     1      22.886   5.580   6.716  1.00  0.00     0.012 C 
HETATM   44  C   UNL     1      21.194   3.759   7.069  1.00  0.00     0.012 C 
ENDBRANCH  17  42
BRANCH  15  45
HETATM   45  C   UNL     1      19.521   7.960  11.229  1.00  0.00     0.014 C 
HETATM   46  C   UNL     1      18.480   7.989  12.353  1.00  0.00     0.012 C 
BRANCH  45  47
HETATM   47  C   UNL     1      20.565   6.864  11.518  1.00  0.00     0.002 C 
HETATM   48  C   UNL     1      21.841   7.395  12.152  1.00  0.00     0.005 C 
ENDBRANCH  45  47
ENDBRANCH  15  45
TORSDOF 9
ENDMDL
MODEL 12
REMARK VINA RESULT:    -4.262      7.839     10.983
REMARK INTER + INTRA:          -6.112
REMARK INTER:                  -6.366
REMARK INTRA:                   0.254
REMARK UNBOUND:                 0.392
REMARK  9 active torsions:
REMARK  status: ('A' for Active; 'I' for Inactive)
REMARK    1  A    between atoms: C_13  and  C_16 
REMARK    2  A    between atoms: C_14  and  C_17 
REMARK    3  A    between atoms: C_15  and  C_18 
REMARK    4  A    between atoms: C_16  and  C_22 
REMARK    5  A    between atoms: C_17  and  C_23 
REMARK    6  A    between atoms: C_18  and  C_24 
REMARK    7  A    between atoms: C_19  and  C_25 
REMARK    8  A    between atoms: C_20  and  C_26 
REMARK    9  A    between atoms: C_21  and  C_27 
ROOT
HETATM    1  O   UNL     1      14.341   6.236   3.355  1.00  0.00    -0.304 OA
HETATM    2  O   UNL     1      19.096   4.506   2.947  1.00  0.00    -0.304 OA
HETATM    3  O   UNL     1      14.811   2.379   2.193  1.00  0.00    -0.304 OA
HETATM    4  O   UNL     1      16.747   7.150   3.044  1.00  0.00    -0.270 OA
HETATM    5  O   UNL     1      11.521   1.528   2.778  1.00  0.00    -0.270 OA
HETATM    6  O   UNL     1      17.087   4.391   1.247  1.00  0.00    -0.270 OA
HETATM    7  O   UNL     1      12.440   5.527   4.452  1.00  0.00    -0.263 OA
HETATM    8  O   UNL     1      17.884   3.711   4.743  1.00  0.00    -0.263 OA
HETATM    9  O   UNL     1      13.658   1.298   0.521  1.00  0.00    -0.263 OA
HETATM   10  N   UNL     1      17.321   6.428   5.173  1.00  0.00    -0.340 N 
HETATM   11  N   UNL     1      11.934   3.770   2.353  1.00  0.00    -0.340 N 
HETATM   12  N   UNL     1      17.132   2.091   0.945  1.00  0.00    -0.340 N 
HETATM   13  C   UNL     1      18.662   6.020   4.709  1.00  0.00     0.190 C 
HETATM   14  C   UNL     1      12.870   4.892   2.131  1.00  0.00     0.190 C 
HETATM   15  C   UNL     1      15.912   2.115   0.106  1.00  0.00     0.190 C 
HETATM   16  C   UNL     1      14.928   6.793   4.550  1.00  0.00     0.227 C 
HETATM   17  C   UNL     1      18.945   3.257   2.244  1.00  0.00     0.227 C 
HETATM   18  C   UNL     1      13.780   2.253   3.177  1.00  0.00     0.227 C 
HETATM   19  C   UNL     1      16.407   6.837   4.191  1.00  0.00     0.250 C 
HETATM   20  C   UNL     1      12.316   2.475   2.737  1.00  0.00     0.250 C 
HETATM   21  C   UNL     1      17.639   3.302   1.441  1.00  0.00     0.250 C 
HETATM   22  C   UNL     1      13.153   5.575   3.460  1.00  0.00     0.283 C 
HETATM   23  C   UNL     1      18.489   4.607   4.168  1.00  0.00     0.283 C 
HETATM   24  C   UNL     1      14.670   1.834   0.953  1.00  0.00     0.283 C 
HETATM   25  C   UNL     1      16.975   6.253   6.585  1.00  0.00     0.153 C 
HETATM   26  C   UNL     1      10.507   4.031   2.160  1.00  0.00     0.153 C 
HETATM   27  C   UNL     1      17.683   0.769   1.258  1.00  0.00     0.153 C 
ENDROOT
BRANCH  16  28
HETATM   28  C   UNL     1      14.393   8.192   4.796  1.00  0.00     0.016 C 
HETATM   29  C   UNL     1      15.535   9.205   4.846  1.00  0.00     0.012 C 
HETATM   30  C   UNL     1      13.578   8.239   6.088  1.00  0.00     0.012 C 
ENDBRANCH  16  28
BRANCH  14  31
HETATM   31  C   UNL     1      12.412   5.922   1.100  1.00  0.00     0.014 C 
HETATM   32  C   UNL     1      13.091   7.266   1.375  1.00  0.00     0.012 C 
BRANCH  31  33
HETATM   33  C   UNL     1      12.703   5.475  -0.343  1.00  0.00     0.002 C 
HETATM   34  C   UNL     1      14.179   5.220  -0.616  1.00  0.00     0.005 C 
ENDBRANCH  31  33
ENDBRANCH  14  31
BRANCH  13  35
HETATM   35  C   UNL     1      19.777   6.041   5.746  1.00  0.00     0.014 C 
HETATM   36  C   UNL     1      20.874   5.050   5.348  1.00  0.00     0.012 C 
BRANCH  35  37
HETATM   37  C   UNL     1      20.384   7.443   5.928  1.00  0.00     0.002 C 
HETATM   38  C   UNL     1      21.685   7.445   6.719  1.00  0.00     0.005 C 
ENDBRANCH  35  37
ENDBRANCH  13  35
BRANCH  18  39
HETATM   39  C   UNL     1      13.958   0.895   3.860  1.00  0.00     0.016 C 
HETATM   40  C   UNL     1      15.439   0.545   3.979  1.00  0.00     0.012 C 
HETATM   41  C   UNL     1      13.295   0.896   5.236  1.00  0.00     0.012 C 
ENDBRANCH  18  39
BRANCH  17  42
HETATM   42  C   UNL     1      20.135   3.127   1.304  1.00  0.00     0.016 C 
HETATM   43  C   UNL     1      21.432   3.504   2.018  1.00  0.00     0.012 C 
HETATM   44  C   UNL     1      19.938   3.994   0.061  1.00  0.00     0.012 C 
ENDBRANCH  17  42
BRANCH  15  45
HETATM   45  C   UNL     1      15.988   1.183  -1.102  1.00  0.00     0.014 C 
HETATM   46  C   UNL     1      14.826   1.471  -2.060  1.00  0.00     0.012 C 
BRANCH  45  47
HETATM   47  C   UNL     1      17.324   1.303  -1.859  1.00  0.00     0.002 C 
HETATM   48  C   UNL     1      17.521   2.653  -2.531  1.00  0.00     0.005 C 
ENDBRANCH  45  47
ENDBRANCH  15  45
TORSDOF 9
ENDMDL
MODEL 13
REMARK VINA RESULT:    -4.222      7.041     12.620
REMARK INTER + INTRA:          -6.052
REMARK INTER:                  -7.396
REMARK INTRA:                   1.344
REMARK UNBOUND:                 0.392
REMARK  9 active torsions:
REMARK  status: ('A' for Active; 'I' for Inactive)
REMARK    1  A    between atoms: C_13  and  C_16 
REMARK    2  A    between atoms: C_14  and  C_17 
REMARK    3  A    between atoms: C_15  and  C_18 
REMARK    4  A    between atoms: C_16  and  C_22 
REMARK    5  A    between atoms: C_17  and  C_23 
REMARK    6  A    between atoms: C_18  and  C_24 
REMARK    7  A    between atoms: C_19  and  C_25 
REMARK    8  A    between atoms: C_20  and  C_26 
REMARK    9  A    between atoms: C_21  and  C_27 
ROOT
HETATM    1  O   UNL     1      17.445   7.528   5.700  1.00  0.00    -0.304 OA
HETATM    2  O   UNL     1      14.667   6.208   1.662  1.00  0.00    -0.304 OA
HETATM    3  O   UNL     1      13.618   6.376   6.387  1.00  0.00    -0.304 OA
HETATM    4  O   UNL     1      17.405   7.896   3.134  1.00  0.00    -0.270 OA
HETATM    5  O   UNL     1      14.078   5.951   9.777  1.00  0.00    -0.270 OA
HETATM    6  O   UNL     1      14.132   7.876   3.629  1.00  0.00    -0.270 OA
HETATM    7  O   UNL     1      17.958   6.535   7.717  1.00  0.00    -0.263 OA
HETATM    8  O   UNL     1      15.328   4.478   3.041  1.00  0.00    -0.263 OA
HETATM    9  O   UNL     1      12.118   7.375   7.817  1.00  0.00    -0.263 OA
HETATM   10  N   UNL     1      17.866   5.650   2.781  1.00  0.00    -0.340 N 
HETATM   11  N   UNL     1      15.525   7.430   8.730  1.00  0.00    -0.340 N 
HETATM   12  N   UNL     1      12.124   6.900   4.260  1.00  0.00    -0.340 N 
HETATM   13  C   UNL     1      16.953   5.611   1.621  1.00  0.00     0.190 C 
HETATM   14  C   UNL     1      16.063   8.064   7.508  1.00  0.00     0.190 C 
HETATM   15  C   UNL     1      11.981   7.803   5.426  1.00  0.00     0.190 C 
HETATM   16  C   UNL     1      18.404   6.736   4.968  1.00  0.00     0.227 C 
HETATM   17  C   UNL     1      13.322   6.153   2.177  1.00  0.00     0.227 C 
HETATM   18  C   UNL     1      14.317   5.650   7.403  1.00  0.00     0.227 C 
HETATM   19  C   UNL     1      17.874   6.828   3.543  1.00  0.00     0.250 C 
HETATM   20  C   UNL     1      14.611   6.363   8.740  1.00  0.00     0.250 C 
HETATM   21  C   UNL     1      13.236   7.050   3.417  1.00  0.00     0.250 C 
HETATM   22  C   UNL     1      17.271   7.275   7.029  1.00  0.00     0.283 C 
HETATM   23  C   UNL     1      15.572   5.339   2.205  1.00  0.00     0.283 C 
HETATM   24  C   UNL     1      12.533   7.142   6.689  1.00  0.00     0.283 C 
HETATM   25  C   UNL     1      18.593   4.435   3.154  1.00  0.00     0.153 C 
HETATM   26  C   UNL     1      15.978   7.952  10.019  1.00  0.00     0.153 C 
HETATM   27  C   UNL     1      11.109   5.852   4.118  1.00  0.00     0.153 C 
ENDROOT
BRANCH  16  28
HETATM   28  C   UNL     1      19.785   7.357   5.069  1.00  0.00     0.016 C 
HETATM   29  C   UNL     1      20.682   6.530   5.987  1.00  0.00     0.012 C 
HETATM   30  C   UNL     1      19.693   8.799   5.566  1.00  0.00     0.012 C 
ENDBRANCH  16  28
BRANCH  14  31
HETATM   31  C   UNL     1      16.425   9.541   7.652  1.00  0.00     0.014 C 
HETATM   32  C   UNL     1      15.267  10.296   8.309  1.00  0.00     0.012 C 
BRANCH  31  33
HETATM   33  C   UNL     1      17.714   9.750   8.467  1.00  0.00     0.002 C 
HETATM   34  C   UNL     1      18.408  11.074   8.179  1.00  0.00     0.005 C 
ENDBRANCH  31  33
ENDBRANCH  14  31
BRANCH  13  35
HETATM   35  C   UNL     1      17.268   4.584   0.542  1.00  0.00     0.014 C 
HETATM   36  C   UNL     1      16.160   4.587  -0.515  1.00  0.00     0.012 C 
BRANCH  35  37
HETATM   37  C   UNL     1      18.629   4.835  -0.130  1.00  0.00     0.002 C 
HETATM   38  C   UNL     1      18.548   4.946  -1.646  1.00  0.00     0.005 C 
ENDBRANCH  35  37
ENDBRANCH  13  35
BRANCH  18  39
HETATM   39  C   UNL     1      13.570   4.333   7.624  1.00  0.00     0.016 C 
HETATM   40  C   UNL     1      12.966   3.832   6.315  1.00  0.00     0.012 C 
HETATM   41  C   UNL     1      14.503   3.282   8.222  1.00  0.00     0.012 C 
ENDBRANCH  18  39
BRANCH  17  42
HETATM   42  C   UNL     1      12.404   6.682   1.084  1.00  0.00     0.016 C 
HETATM   43  C   UNL     1      12.209   5.635  -0.012  1.00  0.00     0.012 C 
HETATM   44  C   UNL     1      12.959   7.977   0.492  1.00  0.00     0.012 C 
ENDBRANCH  17  42
BRANCH  15  45
HETATM   45  C   UNL     1      10.552   8.303   5.635  1.00  0.00     0.014 C 
HETATM   46  C   UNL     1      10.008   8.893   4.329  1.00  0.00     0.012 C 
BRANCH  45  47
HETATM   47  C   UNL     1       9.605   7.196   6.137  1.00  0.00     0.002 C 
HETATM   48  C   UNL     1       8.591   7.685   7.160  1.00  0.00     0.005 C 
ENDBRANCH  45  47
ENDBRANCH  15  45
TORSDOF 9
ENDMDL
MODEL 14
REMARK VINA RESULT:    -4.187      4.333      6.655
REMARK INTER + INTRA:          -5.999
REMARK INTER:                  -6.577
REMARK INTRA:                   0.578
REMARK UNBOUND:                 0.392
REMARK  9 active torsions:
REMARK  status: ('A' for Active; 'I' for Inactive)
REMARK    1  A    between atoms: C_13  and  C_16 
REMARK    2  A    between atoms: C_14  and  C_17 
REMARK    3  A    between atoms: C_15  and  C_18 
REMARK    4  A    between atoms: C_16  and  C_22 
REMARK    5  A    between atoms: C_17  and  C_23 
REMARK    6  A    between atoms: C_18  and  C_24 
REMARK    7  A    between atoms: C_19  and  C_25 
REMARK    8  A    between atoms: C_20  and  C_26 
REMARK    9  A    between atoms: C_21  and  C_27 
ROOT
HETATM    1  O   UNL     1       3.894  14.776  -7.401  1.00  0.00    -0.304 OA
HETATM    2  O   UNL     1       7.100  13.748  -3.602  1.00  0.00    -0.304 OA
HETATM    3  O   UNL     1       6.231  11.485  -7.795  1.00  0.00    -0.304 OA
HETATM    4  O   UNL     1       5.065  15.989  -5.431  1.00  0.00    -0.270 OA
HETATM    5  O   UNL     1       4.380  10.160 -10.385  1.00  0.00    -0.270 OA
HETATM    6  O   UNL     1       7.525  13.912  -6.197  1.00  0.00    -0.270 OA
HETATM    7  O   UNL     1       2.271  13.586  -8.527  1.00  0.00    -0.263 OA
HETATM    8  O   UNL     1       5.274  12.347  -3.788  1.00  0.00    -0.263 OA
HETATM    9  O   UNL     1       7.348  10.812  -9.691  1.00  0.00    -0.263 OA
HETATM   10  N   UNL     1       3.830  14.752  -3.905  1.00  0.00    -0.340 N 
HETATM   11  N   UNL     1       4.258  12.460 -10.118  1.00  0.00    -0.340 N 
HETATM   12  N   UNL     1       8.485  11.813  -6.437  1.00  0.00    -0.340 N 
HETATM   13  C   UNL     1       4.995  14.638  -3.005  1.00  0.00     0.190 C 
HETATM   14  C   UNL     1       4.566  13.691  -9.360  1.00  0.00     0.190 C 
HETATM   15  C   UNL     1       8.557  11.947  -7.911  1.00  0.00     0.190 C 
HETATM   16  C   UNL     1       3.042  15.026  -6.262  1.00  0.00     0.227 C 
HETATM   17  C   UNL     1       7.973  12.743  -4.156  1.00  0.00     0.227 C 
HETATM   18  C   UNL     1       4.956  10.974  -8.196  1.00  0.00     0.227 C 
HETATM   19  C   UNL     1       4.055  15.326  -5.165  1.00  0.00     0.250 C 
HETATM   20  C   UNL     1       4.524  11.157  -9.667  1.00  0.00     0.250 C 
HETATM   21  C   UNL     1       7.968  12.878  -5.683  1.00  0.00     0.250 C 
HETATM   22  C   UNL     1       3.418  13.990  -8.409  1.00  0.00     0.283 C 
HETATM   23  C   UNL     1       5.774  13.429  -3.506  1.00  0.00     0.283 C 
HETATM   24  C   UNL     1       7.336  11.306  -8.571  1.00  0.00     0.283 C 
HETATM   25  C   UNL     1       2.560  14.145  -3.503  1.00  0.00     0.153 C 
HETATM   26  C   UNL     1       3.631  12.613 -11.431  1.00  0.00     0.153 C 
HETATM   27  C   UNL     1       8.899  10.522  -5.878  1.00  0.00     0.153 C 
ENDROOT
BRANCH  16  28
HETATM   28  C   UNL     1       2.157  16.231  -6.522  1.00  0.00     0.016 C 
HETATM   29  C   UNL     1       2.389  17.308  -5.464  1.00  0.00     0.012 C 
HETATM   30  C   UNL     1       0.686  15.822  -6.556  1.00  0.00     0.012 C 
ENDBRANCH  16  28
BRANCH  14  31
HETATM   31  C   UNL     1       4.871  14.918 -10.216  1.00  0.00     0.014 C 
HETATM   32  C   UNL     1       3.739  15.939 -10.078  1.00  0.00     0.012 C 
BRANCH  31  33
HETATM   33  C   UNL     1       6.212  15.573  -9.845  1.00  0.00     0.002 C 
HETATM   34  C   UNL     1       7.185  15.674 -11.011  1.00  0.00     0.005 C 
ENDBRANCH  31  33
ENDBRANCH  14  31
BRANCH  13  35
HETATM   35  C   UNL     1       4.695  14.479  -1.521  1.00  0.00     0.014 C 
HETATM   36  C   UNL     1       5.976  14.106  -0.770  1.00  0.00     0.012 C 
BRANCH  35  37
HETATM   37  C   UNL     1       4.082  15.749  -0.905  1.00  0.00     0.002 C 
HETATM   38  C   UNL     1       5.109  16.665  -0.251  1.00  0.00     0.005 C 
ENDBRANCH  35  37
ENDBRANCH  13  35
BRANCH  18  39
HETATM   39  C   UNL     1       4.895   9.504  -7.774  1.00  0.00     0.016 C 
HETATM   40  C   UNL     1       5.661   9.288  -6.471  1.00  0.00     0.012 C 
HETATM   41  C   UNL     1       3.445   9.049  -7.626  1.00  0.00     0.012 C 
ENDBRANCH  18  39
BRANCH  17  42
HETATM   42  C   UNL     1       9.368  13.014  -3.610  1.00  0.00     0.016 C 
HETATM   43  C   UNL     1       9.678  12.089  -2.434  1.00  0.00     0.012 C 
HETATM   44  C   UNL     1       9.509  14.477  -3.191  1.00  0.00     0.012 C 
ENDBRANCH  17  42
BRANCH  15  45
HETATM   45  C   UNL     1       9.859  11.414  -8.506  1.00  0.00     0.014 C 
HETATM   46  C   UNL     1       9.684   9.949  -8.922  1.00  0.00     0.012 C 
BRANCH  45  47
HETATM   47  C   UNL     1      10.341  12.241  -9.713  1.00  0.00     0.002 C 
HETATM   48  C   UNL     1      10.822  11.390 -10.878  1.00  0.00     0.005 C 
ENDBRANCH  45  47
ENDBRANCH  15  45
TORSDOF 9
ENDMDL
MODEL 15
REMARK VINA RESULT:    -4.169      5.194      9.971
REMARK INTER + INTRA:          -5.970
REMARK INTER:                  -5.796
REMARK INTRA:                  -0.175
REMARK UNBOUND:                 0.392
REMARK  9 active torsions:
REMARK  status: ('A' for Active; 'I' for Inactive)
REMARK    1  A    between atoms: C_13  and  C_16 
REMARK    2  A    between atoms: C_14  and  C_17 
REMARK    3  A    between atoms: C_15  and  C_18 
REMARK    4  A    between atoms: C_16  and  C_22 
REMARK    5  A    between atoms: C_17  and  C_23 
REMARK    6  A    between atoms: C_18  and  C_24 
REMARK    7  A    between atoms: C_19  and  C_25 
REMARK    8  A    between atoms: C_20  and  C_26 
REMARK    9  A    between atoms: C_21  and  C_27 
ROOT
HETATM    1  O   UNL     1      12.097   2.325   3.335  1.00  0.00    -0.304 OA
HETATM    2  O   UNL     1       9.902   6.891   3.642  1.00  0.00    -0.304 OA
HETATM    3  O   UNL     1      13.815   5.345   1.243  1.00  0.00    -0.304 OA
HETATM    4  O   UNL     1       9.797   3.367   3.922  1.00  0.00    -0.270 OA
HETATM    5  O   UNL     1      16.766   3.644   0.705  1.00  0.00    -0.270 OA
HETATM    6  O   UNL     1      10.651   5.496   1.537  1.00  0.00    -0.270 OA
HETATM    7  O   UNL     1      14.235   1.522   3.659  1.00  0.00    -0.263 OA
HETATM    8  O   UNL     1      11.909   6.660   4.759  1.00  0.00    -0.263 OA
HETATM    9  O   UNL     1      14.627   5.239  -0.907  1.00  0.00    -0.263 OA
HETATM   10  N   UNL     1      10.703   4.355   5.816  1.00  0.00    -0.340 N 
HETATM   11  N   UNL     1      14.888   2.335   1.079  1.00  0.00    -0.340 N 
HETATM   12  N   UNL     1      11.981   7.145   0.591  1.00  0.00    -0.340 N 
HETATM   13  C   UNL     1       9.898   5.575   5.604  1.00  0.00     0.190 C 
HETATM   14  C   UNL     1      13.462   2.195   1.441  1.00  0.00     0.190 C 
HETATM   15  C   UNL     1      12.450   6.238  -0.482  1.00  0.00     0.190 C 
HETATM   16  C   UNL     1      11.813   2.386   4.749  1.00  0.00     0.227 C 
HETATM   17  C   UNL     1      10.534   7.644   2.588  1.00  0.00     0.227 C 
HETATM   18  C   UNL     1      14.959   4.740   1.854  1.00  0.00     0.227 C 
HETATM   19  C   UNL     1      10.666   3.387   4.802  1.00  0.00     0.250 C 
HETATM   20  C   UNL     1      15.615   3.535   1.146  1.00  0.00     0.250 C 
HETATM   21  C   UNL     1      11.059   6.664   1.533  1.00  0.00     0.250 C 
HETATM   22  C   UNL     1      13.349   1.957   2.938  1.00  0.00     0.283 C 
HETATM   23  C   UNL     1      10.711   6.434   4.645  1.00  0.00     0.283 C 
HETATM   24  C   UNL     1      13.779   5.589  -0.096  1.00  0.00     0.283 C 
HETATM   25  C   UNL     1      11.590   4.283   6.979  1.00  0.00     0.153 C 
HETATM   26  C   UNL     1      15.591   1.137   0.619  1.00  0.00     0.153 C 
HETATM   27  C   UNL     1      12.586   8.480   0.627  1.00  0.00     0.153 C 
ENDROOT
BRANCH  16  28
HETATM   28  C   UNL     1      11.364   1.027   5.254  1.00  0.00     0.016 C 
HETATM   29  C   UNL     1       9.976   1.118   5.886  1.00  0.00     0.012 C 
HETATM   30  C   UNL     1      12.371   0.464   6.255  1.00  0.00     0.012 C 
ENDBRANCH  16  28
BRANCH  14  31
HETATM   31  C   UNL     1      12.706   1.108   0.679  1.00  0.00     0.014 C 
HETATM   32  C   UNL     1      12.279   0.001   1.647  1.00  0.00     0.012 C 
BRANCH  31  33
HETATM   33  C   UNL     1      11.474   1.659  -0.060  1.00  0.00     0.002 C 
HETATM   34  C   UNL     1      11.817   2.669  -1.146  1.00  0.00     0.005 C 
ENDBRANCH  31  33
ENDBRANCH  14  31
BRANCH  13  35
HETATM   35  C   UNL     1       9.546   6.382   6.847  1.00  0.00     0.014 C 
HETATM   36  C   UNL     1       9.383   7.859   6.476  1.00  0.00     0.012 C 
BRANCH  35  37
HETATM   37  C   UNL     1       8.268   5.874   7.536  1.00  0.00     0.002 C 
HETATM   38  C   UNL     1       7.363   5.063   6.619  1.00  0.00     0.005 C 
ENDBRANCH  35  37
ENDBRANCH  13  35
BRANCH  18  39
HETATM   39  C   UNL     1      15.976   5.850   2.128  1.00  0.00     0.016 C 
HETATM   40  C   UNL     1      15.268   7.134   2.552  1.00  0.00     0.012 C 
HETATM   41  C   UNL     1      16.976   5.409   3.195  1.00  0.00     0.012 C 
ENDBRANCH  18  39
BRANCH  17  42
HETATM   42  C   UNL     1       9.466   8.544   1.981  1.00  0.00     0.016 C 
HETATM   43  C   UNL     1       9.564   9.959   2.551  1.00  0.00     0.012 C 
HETATM   44  C   UNL     1       8.072   7.966   2.222  1.00  0.00     0.012 C 
ENDBRANCH  17  42
BRANCH  15  45
HETATM   45  C   UNL     1      12.531   6.909  -1.852  1.00  0.00     0.014 C 
HETATM   46  C   UNL     1      12.699   5.849  -2.946  1.00  0.00     0.012 C 
BRANCH  45  47
HETATM   47  C   UNL     1      11.298   7.780  -2.159  1.00  0.00     0.002 C 
HETATM   48  C   UNL     1      10.131   6.995  -2.739  1.00  0.00     0.005 C 
ENDBRANCH  45  47
ENDBRANCH  15  45
TORSDOF 9
ENDMDL
MODEL 16
REMARK VINA RESULT:    -4.159      7.620     11.829
REMARK INTER + INTRA:          -5.956
REMARK INTER:                  -5.768
REMARK INTRA:                  -0.188
REMARK UNBOUND:                 0.392
REMARK  9 active torsions:
REMARK  status: ('A' for Active; 'I' for Inactive)
REMARK    1  A    between atoms: C_13  and  C_16 
REMARK    2  A    between atoms: C_14  and  C_17 
REMARK    3  A    between atoms: C_15  and  C_18 
REMARK    4  A    between atoms: C_16  and  C_22 
REMARK    5  A    between atoms: C_17  and  C_23 
REMARK    6  A    between atoms: C_18  and  C_24 
REMARK    7  A    between atoms: C_19  and  C_25 
REMARK    8  A    between atoms: C_20  and  C_26 
REMARK    9  A    between atoms: C_21  and  C_27 
ROOT
HETATM    1  O   UNL     1      16.879   3.314   2.948  1.00  0.00    -0.304 OA
HETATM    2  O   UNL     1      14.499   6.774   5.799  1.00  0.00    -0.304 OA
HETATM    3  O   UNL     1      12.996   4.081   2.064  1.00  0.00    -0.304 OA
HETATM    4  O   UNL     1      17.091   4.423   5.281  1.00  0.00    -0.270 OA
HETATM    5  O   UNL     1      13.121   2.545  -1.020  1.00  0.00    -0.270 OA
HETATM    6  O   UNL     1      13.786   4.326   5.137  1.00  0.00    -0.270 OA
HETATM    7  O   UNL     1      17.187   3.005   0.683  1.00  0.00    -0.263 OA
HETATM    8  O   UNL     1      15.011   7.423   3.644  1.00  0.00    -0.263 OA
HETATM    9  O   UNL     1      11.370   2.533   1.559  1.00  0.00    -0.263 OA
HETATM   10  N   UNL     1      17.570   6.466   4.292  1.00  0.00    -0.340 N 
HETATM   11  N   UNL     1      14.672   1.820   0.544  1.00  0.00    -0.340 N 
HETATM   12  N   UNL     1      11.720   4.889   4.244  1.00  0.00    -0.340 N 
HETATM   13  C   UNL     1      16.774   7.183   5.309  1.00  0.00     0.190 C 
HETATM   14  C   UNL     1      15.331   1.938   1.862  1.00  0.00     0.190 C 
HETATM   15  C   UNL     1      11.469   3.502   3.789  1.00  0.00     0.190 C 
HETATM   16  C   UNL     1      17.900   4.331   3.035  1.00  0.00     0.227 C 
HETATM   17  C   UNL     1      13.110   6.601   5.456  1.00  0.00     0.227 C 
HETATM   18  C   UNL     1      13.588   4.092   0.762  1.00  0.00     0.227 C 
HETATM   19  C   UNL     1      17.512   5.065   4.312  1.00  0.00     0.250 C 
HETATM   20  C   UNL     1      13.756   2.747   0.023  1.00  0.00     0.250 C 
HETATM   21  C   UNL     1      12.909   5.174   4.931  1.00  0.00     0.250 C 
HETATM   22  C   UNL     1      16.575   2.801   1.721  1.00  0.00     0.283 C 
HETATM   23  C   UNL     1      15.342   7.155   4.792  1.00  0.00     0.283 C 
HETATM   24  C   UNL     1      11.892   3.329   2.329  1.00  0.00     0.283 C 
HETATM   25  C   UNL     1      18.250   7.238   3.250  1.00  0.00     0.153 C 
HETATM   26  C   UNL     1      15.001   0.652  -0.274  1.00  0.00     0.153 C 
HETATM   27  C   UNL     1      10.716   5.890   3.868  1.00  0.00     0.153 C 
ENDROOT
BRANCH  16  28
HETATM   28  C   UNL     1      19.269   3.691   3.178  1.00  0.00     0.016 C 
HETATM   29  C   UNL     1      19.947   4.151   4.467  1.00  0.00     0.012 C 
HETATM   30  C   UNL     1      20.144   4.013   1.968  1.00  0.00     0.012 C 
ENDBRANCH  16  28
BRANCH  14  31
HETATM   31  C   UNL     1      15.687   0.611   2.529  1.00  0.00     0.014 C 
HETATM   32  C   UNL     1      17.207   0.487   2.654  1.00  0.00     0.012 C 
BRANCH  31  33
HETATM   33  C   UNL     1      15.035   0.458   3.914  1.00  0.00     0.002 C 
HETATM   34  C   UNL     1      13.524   0.277   3.859  1.00  0.00     0.005 C 
ENDBRANCH  31  33
ENDBRANCH  14  31
BRANCH  13  35
HETATM   35  C   UNL     1      17.186   8.617   5.609  1.00  0.00     0.014 C 
HETATM   36  C   UNL     1      16.000   9.384   6.202  1.00  0.00     0.012 C 
BRANCH  35  37
HETATM   37  C   UNL     1      18.388   8.696   6.567  1.00  0.00     0.002 C 
HETATM   38  C   UNL     1      19.608   9.373   5.957  1.00  0.00     0.005 C 
ENDBRANCH  35  37
ENDBRANCH  13  35
BRANCH  18  39
HETATM   39  C   UNL     1      12.815   5.104  -0.087  1.00  0.00     0.016 C 
HETATM   40  C   UNL     1      12.391   6.302   0.759  1.00  0.00     0.012 C 
HETATM   41  C   UNL     1      13.657   5.558  -1.278  1.00  0.00     0.012 C 
ENDBRANCH  18  39
BRANCH  17  42
HETATM   42  C   UNL     1      12.306   6.807   6.732  1.00  0.00     0.016 C 
HETATM   43  C   UNL     1      11.801   8.246   6.826  1.00  0.00     0.012 C 
HETATM   44  C   UNL     1      13.143   6.454   7.961  1.00  0.00     0.012 C 
ENDBRANCH  17  42
BRANCH  15  45
HETATM   45  C   UNL     1      10.031   3.039   4.013  1.00  0.00     0.014 C 
HETATM   46  C   UNL     1       9.926   1.526   3.791  1.00  0.00     0.012 C 
BRANCH  45  47
HETATM   47  C   UNL     1       9.508   3.394   5.419  1.00  0.00     0.002 C 
HETATM   48  C   UNL     1      10.222   2.650   6.537  1.00  0.00     0.005 C 
ENDBRANCH  45  47
ENDBRANCH  15  45
TORSDOF 9
ENDMDL
MODEL 17
REMARK VINA RESULT:    -4.154      7.522     12.002
REMARK INTER + INTRA:          -5.948
REMARK INTER:                  -5.994
REMARK INTRA:                   0.046
REMARK UNBOUND:                 0.392
REMARK  9 active torsions:
REMARK  status: ('A' for Active; 'I' for Inactive)
REMARK    1  A    between atoms: C_13  and  C_16 
REMARK    2  A    between atoms: C_14  and  C_17 
REMARK    3  A    between atoms: C_15  and  C_18 
REMARK    4  A    between atoms: C_16  and  C_22 
REMARK    5  A    between atoms: C_17  and  C_23 
REMARK    6  A    between atoms: C_18  and  C_24 
REMARK    7  A    between atoms: C_19  and  C_25 
REMARK    8  A    between atoms: C_20  and  C_26 
REMARK    9  A    between atoms: C_21  and  C_27 
ROOT
HETATM    1  O   UNL     1      12.733   2.179   3.059  1.00  0.00    -0.304 OA
HETATM    2  O   UNL     1      16.074   5.814   4.239  1.00  0.00    -0.304 OA
HETATM    3  O   UNL     1      11.262   5.568   4.733  1.00  0.00    -0.304 OA
HETATM    4  O   UNL     1      15.267   2.442   3.539  1.00  0.00    -0.270 OA
HETATM    5  O   UNL     1       7.994   4.888   3.870  1.00  0.00    -0.270 OA
HETATM    6  O   UNL     1      14.173   4.708   5.688  1.00  0.00    -0.270 OA
HETATM    7  O   UNL     1      10.777   2.101   1.839  1.00  0.00    -0.263 OA
HETATM    8  O   UNL     1      14.715   6.244   2.422  1.00  0.00    -0.263 OA
HETATM    9  O   UNL     1       9.657   5.704   6.376  1.00  0.00    -0.263 OA
HETATM   10  N   UNL     1      15.529   3.686   1.598  1.00  0.00    -0.340 N 
HETATM   11  N   UNL     1       9.400   3.054   4.062  1.00  0.00    -0.340 N 
HETATM   12  N   UNL     1      13.108   6.685   6.274  1.00  0.00    -0.340 N 
HETATM   13  C   UNL     1      16.493   4.584   2.265  1.00  0.00     0.190 C 
HETATM   14  C   UNL     1      10.745   2.471   4.254  1.00  0.00     0.190 C 
HETATM   15  C   UNL     1      12.007   5.963   6.953  1.00  0.00     0.190 C 
HETATM   16  C   UNL     1      13.569   2.161   1.882  1.00  0.00     0.227 C 
HETATM   17  C   UNL     1      15.315   6.718   5.066  1.00  0.00     0.227 C 
HETATM   18  C   UNL     1      10.342   5.364   3.656  1.00  0.00     0.227 C 
HETATM   19  C   UNL     1      14.873   2.746   2.407  1.00  0.00     0.250 C 
HETATM   20  C   UNL     1       9.140   4.423   3.889  1.00  0.00     0.250 C 
HETATM   21  C   UNL     1      14.151   5.945   5.697  1.00  0.00     0.250 C 
HETATM   22  C   UNL     1      11.379   2.225   2.895  1.00  0.00     0.283 C 
HETATM   23  C   UNL     1      15.645   5.647   2.951  1.00  0.00     0.283 C 
HETATM   24  C   UNL     1      10.822   5.775   6.005  1.00  0.00     0.283 C 
HETATM   25  C   UNL     1      15.208   3.911   0.188  1.00  0.00     0.153 C 
HETATM   26  C   UNL     1       8.260   2.137   4.051  1.00  0.00     0.153 C 
HETATM   27  C   UNL     1      12.980   8.144   6.194  1.00  0.00     0.153 C 
ENDROOT
BRANCH  16  28
HETATM   28  C   UNL     1      13.773   0.735   1.404  1.00  0.00     0.016 C 
HETATM   29  C   UNL     1      15.245   0.338   1.505  1.00  0.00     0.012 C 
HETATM   30  C   UNL     1      13.271   0.569  -0.029  1.00  0.00     0.012 C 
ENDBRANCH  16  28
BRANCH  14  31
HETATM   31  C   UNL     1      10.781   1.193   5.089  1.00  0.00     0.014 C 
HETATM   32  C   UNL     1      11.125   0.000   4.193  1.00  0.00     0.012 C 
BRANCH  31  33
HETATM   33  C   UNL     1      11.787   1.280   6.250  1.00  0.00     0.002 C 
HETATM   34  C   UNL     1      12.998   0.375   6.076  1.00  0.00     0.005 C 
ENDBRANCH  31  33
ENDBRANCH  14  31
BRANCH  13  35
HETATM   35  C   UNL     1      17.532   5.250   1.373  1.00  0.00     0.014 C 
HETATM   36  C   UNL     1      18.250   6.357   2.151  1.00  0.00     0.012 C 
BRANCH  35  37
HETATM   37  C   UNL     1      18.562   4.249   0.822  1.00  0.00     0.002 C 
HETATM   38  C   UNL     1      19.001   4.552  -0.605  1.00  0.00     0.005 C 
ENDBRANCH  35  37
ENDBRANCH  13  35
BRANCH  18  39
HETATM   39  C   UNL     1       9.888   6.742   3.171  1.00  0.00     0.016 C 
HETATM   40  C   UNL     1      11.032   7.748   3.264  1.00  0.00     0.012 C 
HETATM   41  C   UNL     1       9.360   6.660   1.740  1.00  0.00     0.012 C 
ENDBRANCH  18  39
BRANCH  17  42
HETATM   42  C   UNL     1      16.256   7.226   6.151  1.00  0.00     0.016 C 
HETATM   43  C   UNL     1      17.262   8.219   5.571  1.00  0.00     0.012 C 
HETATM   44  C   UNL     1      16.981   6.062   6.825  1.00  0.00     0.012 C 
ENDBRANCH  17  42
BRANCH  15  45
HETATM   45  C   UNL     1      11.575   6.612   8.267  1.00  0.00     0.014 C 
HETATM   46  C   UNL     1      10.824   5.594   9.132  1.00  0.00     0.012 C 
BRANCH  45  47
HETATM   47  C   UNL     1      12.763   7.189   9.060  1.00  0.00     0.002 C 
HETATM   48  C   UNL     1      13.599   6.127   9.758  1.00  0.00     0.005 C 
ENDBRANCH  45  47
ENDBRANCH  15  45
TORSDOF 9
ENDMDL
MODEL 18
REMARK VINA RESULT:    -4.145      9.036     13.542
REMARK INTER + INTRA:          -5.934
REMARK INTER:                  -5.946
REMARK INTRA:                   0.011
REMARK UNBOUND:                 0.392
REMARK  9 active torsions:
REMARK  status: ('A' for Active; 'I' for Inactive)
REMARK    1  A    between atoms: C_13  and  C_16 
REMARK    2  A    between atoms: C_14  and  C_17 
REMARK    3  A    between atoms: C_15  and  C_18 
REMARK    4  A    between atoms: C_16  and  C_22 
REMARK    5  A    between atoms: C_17  and  C_23 
REMARK    6  A    between atoms: C_18  and  C_24 
REMARK    7  A    between atoms: C_19  and  C_25 
REMARK    8  A    between atoms: C_20  and  C_26 
REMARK    9  A    between atoms: C_21  and  C_27 
ROOT
HETATM    1  O   UNL     1      14.954   2.894   2.172  1.00  0.00    -0.304 OA
HETATM    2  O   UNL     1      19.959   3.192   1.382  1.00  0.00    -0.304 OA
HETATM    3  O   UNL     1      17.105   5.134   4.779  1.00  0.00    -0.304 OA
HETATM    4  O   UNL     1      16.837   1.583   0.965  1.00  0.00    -0.270 OA
HETATM    5  O   UNL     1      14.343   6.711   6.110  1.00  0.00    -0.270 OA
HETATM    6  O   UNL     1      18.608   2.606   3.566  1.00  0.00    -0.270 OA
HETATM    7  O   UNL     1      13.259   4.430   2.468  1.00  0.00    -0.263 OA
HETATM    8  O   UNL     1      18.747   5.098   0.903  1.00  0.00    -0.263 OA
HETATM    9  O   UNL     1      16.879   5.174   7.069  1.00  0.00    -0.263 OA
HETATM   10  N   UNL     1      17.117   3.326  -0.541  1.00  0.00    -0.340 N 
HETATM   11  N   UNL     1      13.967   4.632   5.152  1.00  0.00    -0.340 N 
HETATM   12  N   UNL     1      19.589   4.216   4.919  1.00  0.00    -0.340 N 
HETATM   13  C   UNL     1      18.581   3.138  -0.537  1.00  0.00     0.190 C 
HETATM   14  C   UNL     1      14.435   3.462   4.380  1.00  0.00     0.190 C 
HETATM   15  C   UNL     1      18.687   3.902   6.052  1.00  0.00     0.190 C 
HETATM   16  C   UNL     1      14.984   3.075   0.740  1.00  0.00     0.227 C 
HETATM   17  C   UNL     1      20.462   3.774   2.601  1.00  0.00     0.227 C 
HETATM   18  C   UNL     1      15.996   5.999   4.514  1.00  0.00     0.227 C 
HETATM   19  C   UNL     1      16.378   2.573   0.383  1.00  0.00     0.250 C 
HETATM   20  C   UNL     1      14.707   5.810   5.344  1.00  0.00     0.250 C 
HETATM   21  C   UNL     1      19.468   3.480   3.731  1.00  0.00     0.250 C 
HETATM   22  C   UNL     1      14.114   3.677   2.909  1.00  0.00     0.283 C 
HETATM   23  C   UNL     1      19.088   3.949   0.650  1.00  0.00     0.283 C 
HETATM   24  C   UNL     1      17.480   4.841   6.055  1.00  0.00     0.283 C 
HETATM   25  C   UNL     1      16.537   4.368  -1.391  1.00  0.00     0.153 C 
HETATM   26  C   UNL     1      12.638   4.556   5.759  1.00  0.00     0.153 C 
HETATM   27  C   UNL     1      20.506   5.344   5.109  1.00  0.00     0.153 C 
ENDROOT
BRANCH  16  28
HETATM   28  C   UNL     1      13.919   2.219   0.079  1.00  0.00     0.016 C 
HETATM   29  C   UNL     1      14.556   1.193  -0.857  1.00  0.00     0.012 C 
HETATM   30  C   UNL     1      12.923   3.092  -0.683  1.00  0.00     0.012 C 
ENDBRANCH  16  28
BRANCH  14  31
HETATM   31  C   UNL     1      13.881   2.117   4.845  1.00  0.00     0.014 C 
HETATM   32  C   UNL     1      12.954   1.540   3.773  1.00  0.00     0.012 C 
BRANCH  31  33
HETATM   33  C   UNL     1      14.995   1.107   5.171  1.00  0.00     0.002 C 
HETATM   34  C   UNL     1      15.851   1.507   6.365  1.00  0.00     0.005 C 
ENDBRANCH  31  33
ENDBRANCH  14  31
BRANCH  13  35
HETATM   35  C   UNL     1      19.324   3.553  -1.799  1.00  0.00     0.014 C 
HETATM   36  C   UNL     1      20.833   3.546  -1.539  1.00  0.00     0.012 C 
BRANCH  35  37
HETATM   37  C   UNL     1      18.999   2.646  -2.998  1.00  0.00     0.002 C 
HETATM   38  C   UNL     1      20.048   2.696  -4.101  1.00  0.00     0.005 C 
ENDBRANCH  35  37
ENDBRANCH  13  35
BRANCH  18  39
HETATM   39  C   UNL     1      16.506   7.439   4.592  1.00  0.00     0.016 C 
HETATM   40  C   UNL     1      17.855   7.570   3.890  1.00  0.00     0.012 C 
HETATM   41  C   UNL     1      15.488   8.401   3.984  1.00  0.00     0.012 C 
ENDBRANCH  18  39
BRANCH  17  42
HETATM   42  C   UNL     1      21.800   3.109   2.894  1.00  0.00     0.016 C 
HETATM   43  C   UNL     1      22.738   3.231   1.695  1.00  0.00     0.012 C 
HETATM   44  C   UNL     1      21.602   1.641   3.271  1.00  0.00     0.012 C 
ENDBRANCH  17  42
BRANCH  15  45
HETATM   45  C   UNL     1      19.393   3.894   7.406  1.00  0.00     0.014 C 
HETATM   46  C   UNL     1      18.500   3.229   8.459  1.00  0.00     0.012 C 
BRANCH  45  47
HETATM   47  C   UNL     1      20.757   3.178   7.358  1.00  0.00     0.002 C 
HETATM   48  C   UNL     1      20.646   1.677   7.140  1.00  0.00     0.005 C 
ENDBRANCH  45  47
ENDBRANCH  15  45
TORSDOF 9
ENDMDL
MODEL 19
REMARK VINA RESULT:    -4.083      6.338     11.148
REMARK INTER + INTRA:          -5.839
REMARK INTER:                  -5.961
REMARK INTRA:                   0.122
REMARK UNBOUND:                 0.392
REMARK  9 active torsions:
REMARK  status: ('A' for Active; 'I' for Inactive)
REMARK    1  A    between atoms: C_13  and  C_16 
REMARK    2  A    between atoms: C_14  and  C_17 
REMARK    3  A    between atoms: C_15  and  C_18 
REMARK    4  A    between atoms: C_16  and  C_22 
REMARK    5  A    between atoms: C_17  and  C_23 
REMARK    6  A    between atoms: C_18  and  C_24 
REMARK    7  A    between atoms: C_19  and  C_25 
REMARK    8  A    between atoms: C_20  and  C_26 
REMARK    9  A    between atoms: C_21  and  C_27 
ROOT
HETATM    1  O   UNL     1      15.628   4.437   3.123  1.00  0.00    -0.304 OA
HETATM    2  O   UNL     1      14.485   7.998   6.556  1.00  0.00    -0.304 OA
HETATM    3  O   UNL     1      12.001   6.221   2.797  1.00  0.00    -0.304 OA
HETATM    4  O   UNL     1      16.335   5.171   5.507  1.00  0.00    -0.270 OA
HETATM    5  O   UNL     1      11.439   5.085  -0.410  1.00  0.00    -0.270 OA
HETATM    6  O   UNL     1      13.115   5.893   5.759  1.00  0.00    -0.270 OA
HETATM    7  O   UNL     1      15.631   4.339   0.819  1.00  0.00    -0.263 OA
HETATM    8  O   UNL     1      14.938   8.760   4.424  1.00  0.00    -0.263 OA
HETATM    9  O   UNL     1       9.995   5.184   2.350  1.00  0.00    -0.263 OA
HETATM   10  N   UNL     1      17.221   7.142   4.663  1.00  0.00    -0.340 N 
HETATM   11  N   UNL     1      12.897   3.822   0.878  1.00  0.00    -0.340 N 
HETATM   12  N   UNL     1      11.184   7.043   5.181  1.00  0.00    -0.340 N 
HETATM   13  C   UNL     1      16.732   7.901   5.832  1.00  0.00     0.190 C 
HETATM   14  C   UNL     1      13.686   3.618   2.111  1.00  0.00     0.190 C 
HETATM   15  C   UNL     1      10.548   5.823   4.632  1.00  0.00     0.190 C 
HETATM   16  C   UNL     1      16.877   5.158   3.180  1.00  0.00     0.227 C 
HETATM   17  C   UNL     1      13.071   8.208   6.370  1.00  0.00     0.227 C 
HETATM   18  C   UNL     1      12.450   6.246   1.438  1.00  0.00     0.227 C 
HETATM   19  C   UNL     1      16.811   5.805   4.558  1.00  0.00     0.250 C 
HETATM   20  C   UNL     1      12.200   5.000   0.562  1.00  0.00     0.250 C 
HETATM   21  C   UNL     1      12.467   6.947   5.742  1.00  0.00     0.250 C 
HETATM   22  C   UNL     1      15.089   4.165   1.900  1.00  0.00     0.283 C 
HETATM   23  C   UNL     1      15.297   8.283   5.493  1.00  0.00     0.283 C 
HETATM   24  C   UNL     1      10.772   5.732   3.123  1.00  0.00     0.283 C 
HETATM   25  C   UNL     1      17.971   7.847   3.622  1.00  0.00     0.153 C 
HETATM   26  C   UNL     1      12.840   2.718  -0.080  1.00  0.00     0.153 C 
HETATM   27  C   UNL     1      10.436   8.295   5.026  1.00  0.00     0.153 C 
ENDROOT
BRANCH  16  28
HETATM   28  C   UNL     1      18.046   4.194   3.095  1.00  0.00     0.016 C 
HETATM   29  C   UNL     1      17.881   3.056   4.101  1.00  0.00     0.012 C 
HETATM   30  C   UNL     1      19.367   4.926   3.326  1.00  0.00     0.012 C 
ENDBRANCH  16  28
BRANCH  14  31
HETATM   31  C   UNL     1      13.756   2.173   2.602  1.00  0.00     0.014 C 
HETATM   32  C   UNL     1      15.114   1.568   2.238  1.00  0.00     0.012 C 
BRANCH  31  33
HETATM   33  C   UNL     1      13.522   2.058   4.118  1.00  0.00     0.002 C 
HETATM   34  C   UNL     1      12.139   2.516   4.558  1.00  0.00     0.005 C 
ENDBRANCH  31  33
ENDBRANCH  14  31
BRANCH  13  35
HETATM   35  C   UNL     1      17.521   9.146   6.212  1.00  0.00     0.014 C 
HETATM   36  C   UNL     1      16.606  10.139   6.934  1.00  0.00     0.012 C 
BRANCH  35  37
HETATM   37  C   UNL     1      18.738   8.824   7.096  1.00  0.00     0.002 C 
HETATM   38  C   UNL     1      18.478   9.020   8.584  1.00  0.00     0.005 C 
ENDBRANCH  35  37
ENDBRANCH  13  35
BRANCH  18  39
HETATM   39  C   UNL     1      11.882   7.509   0.789  1.00  0.00     0.016 C 
HETATM   40  C   UNL     1      11.804   8.647   1.804  1.00  0.00     0.012 C 
HETATM   41  C   UNL     1      12.728   7.921  -0.414  1.00  0.00     0.012 C 
ENDBRANCH  18  39
BRANCH  17  42
HETATM   42  C   UNL     1      12.471   8.446   7.748  1.00  0.00     0.016 C 
HETATM   43  C   UNL     1      13.238   9.540   8.490  1.00  0.00     0.012 C 
HETATM   44  C   UNL     1      12.460   7.154   8.564  1.00  0.00     0.012 C 
ENDBRANCH  17  42
BRANCH  15  45
HETATM   45  C   UNL     1       9.067   5.698   4.987  1.00  0.00     0.014 C 
HETATM   46  C   UNL     1       8.574   4.279   4.684  1.00  0.00     0.012 C 
BRANCH  45  47
HETATM   47  C   UNL     1       8.780   6.043   6.461  1.00  0.00     0.002 C 
HETATM   48  C   UNL     1       9.352   5.032   7.442  1.00  0.00     0.005 C 
ENDBRANCH  45  47
ENDBRANCH  15  45
TORSDOF 9
ENDMDL
MODEL 20
REMARK VINA RESULT:    -3.977      3.608      8.796
REMARK INTER + INTRA:          -5.677
REMARK INTER:                  -6.289
REMARK INTRA:                   0.612
REMARK UNBOUND:                 0.392
REMARK  9 active torsions:
REMARK  status: ('A' for Active; 'I' for Inactive)
REMARK    1  A    between atoms: C_13  and  C_16 
REMARK    2  A    between atoms: C_14  and  C_17 
REMARK    3  A    between atoms: C_15  and  C_18 
REMARK    4  A    between atoms: C_16  and  C_22 
REMARK    5  A    between atoms: C_17  and  C_23 
REMARK    6  A    between atoms: C_18  and  C_24 
REMARK    7  A    between atoms: C_19  and  C_25 
REMARK    8  A    between atoms: C_20  and  C_26 
REMARK    9  A    between atoms: C_21  and  C_27 
ROOT
HETATM    1  O   UNL     1       6.304  12.702  -7.894  1.00  0.00    -0.304 OA
HETATM    2  O   UNL     1      10.200  10.286 -10.074  1.00  0.00    -0.304 OA
HETATM    3  O   UNL     1       9.379  11.609  -5.487  1.00  0.00    -0.304 OA
HETATM    4  O   UNL     1       6.816  11.313 -10.023  1.00  0.00    -0.270 OA
HETATM    5  O   UNL     1       8.398  13.634  -2.875  1.00  0.00    -0.270 OA
HETATM    6  O   UNL     1       8.788   9.667  -7.937  1.00  0.00    -0.270 OA
HETATM    7  O   UNL     1       6.091  14.559  -6.544  1.00  0.00    -0.263 OA
HETATM    8  O   UNL     1      10.600  12.465  -9.424  1.00  0.00    -0.263 OA
HETATM    9  O   UNL     1       9.218  10.672  -3.392  1.00  0.00    -0.263 OA
HETATM   10  N   UNL     1       8.214  12.990 -10.808  1.00  0.00    -0.340 N 
HETATM   11  N   UNL     1       6.725  12.979  -4.341  1.00  0.00    -0.340 N 
HETATM   12  N   UNL     1      10.587   9.470  -6.484  1.00  0.00    -0.340 N 
HETATM   13  C   UNL     1       9.166  11.993 -11.338  1.00  0.00     0.190 C 
HETATM   14  C   UNL     1       6.286  12.318  -5.588  1.00  0.00     0.190 C 
HETATM   15  C   UNL     1       9.700   9.263  -5.316  1.00  0.00     0.190 C 
HETATM   16  C   UNL     1       6.462  13.486  -9.096  1.00  0.00     0.227 C 
HETATM   17  C   UNL     1      10.953   9.776  -8.955  1.00  0.00     0.227 C 
HETATM   18  C   UNL     1       9.149  12.954  -5.057  1.00  0.00     0.227 C 
HETATM   19  C   UNL     1       7.152  12.504 -10.032  1.00  0.00     0.250 C 
HETATM   20  C   UNL     1       8.065  13.204  -3.986  1.00  0.00     0.250 C 
HETATM   21  C   UNL     1      10.011   9.638  -7.753  1.00  0.00     0.250 C 
HETATM   22  C   UNL     1       6.208  13.352  -6.700  1.00  0.00     0.283 C 
HETATM   23  C   UNL     1      10.077  11.644 -10.167  1.00  0.00     0.283 C 
HETATM   24  C   UNL     1       9.446  10.585  -4.592  1.00  0.00     0.283 C 
HETATM   25  C   UNL     1       8.500  14.414 -10.995  1.00  0.00     0.153 C 
HETATM   26  C   UNL     1       5.689  13.432  -3.414  1.00  0.00     0.153 C 
HETATM   27  C   UNL     1      12.024   9.557  -6.205  1.00  0.00     0.153 C 
ENDROOT
BRANCH  16  28
HETATM   28  C   UNL     1       5.105  13.888  -9.644  1.00  0.00     0.016 C 
HETATM   29  C   UNL     1       4.872  13.264 -11.018  1.00  0.00     0.012 C 
HETATM   30  C   UNL     1       4.983  15.409  -9.719  1.00  0.00     0.012 C 
ENDBRANCH  16  28
BRANCH  14  31
HETATM   31  C   UNL     1       4.964  11.559  -5.485  1.00  0.00     0.014 C 
HETATM   32  C   UNL     1       3.886  12.287  -6.292  1.00  0.00     0.012 C 
BRANCH  31  33
HETATM   33  C   UNL     1       5.085  10.104  -5.970  1.00  0.00     0.002 C 
HETATM   34  C   UNL     1       4.011   9.704  -6.971  1.00  0.00     0.005 C 
ENDBRANCH  31  33
ENDBRANCH  14  31
BRANCH  13  35
HETATM   35  C   UNL     1      10.006  12.422 -12.533  1.00  0.00     0.014 C 
HETATM   36  C   UNL     1      11.125  11.405 -12.772  1.00  0.00     0.012 C 
BRANCH  35  37
HETATM   37  C   UNL     1       9.168  12.584 -13.813  1.00  0.00     0.002 C 
HETATM   38  C   UNL     1       9.920  13.261 -14.952  1.00  0.00     0.005 C 
ENDBRANCH  35  37
ENDBRANCH  13  35
BRANCH  18  39
HETATM   39  C   UNL     1      10.498  13.540  -4.634  1.00  0.00     0.016 C 
HETATM   40  C   UNL     1      11.527  13.378  -5.750  1.00  0.00     0.012 C 
HETATM   41  C   UNL     1      10.347  15.011  -4.251  1.00  0.00     0.012 C 
ENDBRANCH  18  39
BRANCH  17  42
HETATM   42  C   UNL     1      11.486   8.409  -9.362  1.00  0.00     0.016 C 
HETATM   43  C   UNL     1      12.969   8.493  -9.723  1.00  0.00     0.012 C 
HETATM   44  C   UNL     1      10.683   7.843 -10.532  1.00  0.00     0.012 C 
ENDBRANCH  17  42
BRANCH  15  45
HETATM   45  C   UNL     1      10.202   8.186  -4.355  1.00  0.00     0.014 C 
HETATM   46  C   UNL     1      10.932   8.837  -3.175  1.00  0.00     0.012 C 
BRANCH  45  47
HETATM   47  C   UNL     1       9.068   7.286  -3.830  1.00  0.00     0.002 C 
HETATM   48  C   UNL     1       7.834   7.283  -4.720  1.00  0.00     0.005 C 
ENDBRANCH  45  47
ENDBRANCH  15  45
TORSDOF 9
ENDMDL
