MODEL 1
REMARK VINA RESULT:    -5.906      0.000      0.000
REMARK INTER + INTRA:          -8.737
REMARK INTER:                  -9.013
REMARK INTRA:                   0.275
REMARK UNBOUND:                 0.275
REMARK  9 active torsions:
REMARK  status: ('A' for Active; 'I' for Inactive)
REMARK    1  A    between atoms: C_13  and  C_16 
REMARK    2  A    between atoms: C_14  and  C_17 
REMARK    3  A    between atoms: C_15  and  C_18 
REMARK    4  A    between atoms: C_16  and  C_22 
REMARK    5  A    between atoms: C_17  and  C_23 
REMARK    6  A    between atoms: C_18  and  C_24 
REMARK    7  A    between atoms: C_19  and  C_25 
REMARK    8  A    between atoms: C_20  and  C_26 
REMARK    9  A    between atoms: C_21  and  C_27 
ROOT
HETATM    1  O   UNL     1      43.313  40.786  47.575  1.00  0.00    -0.304 OA
HETATM    2  O   UNL     1      39.667  44.243  46.855  1.00  0.00    -0.304 OA
HETATM    3  O   UNL     1      43.530  43.023  44.200  1.00  0.00    -0.304 OA
HETATM    4  O   UNL     1      40.888  41.278  48.348  1.00  0.00    -0.270 OA
HETATM    5  O   UNL     1      46.801  42.166  43.527  1.00  0.00    -0.270 OA
HETATM    6  O   UNL     1      40.593  42.378  45.241  1.00  0.00    -0.270 OA
HETATM    7  O   UNL     1      45.619  40.830  47.584  1.00  0.00    -0.263 OA
HETATM    8  O   UNL     1      41.747  45.072  47.416  1.00  0.00    -0.263 OA
HETATM    9  O   UNL     1      44.040  42.274  42.085  1.00  0.00    -0.263 OA
HETATM   10  N   UNL     1      41.608  43.172  49.478  1.00  0.00    -0.340 N 
HETATM   11  N   UNL     1      45.593  40.655  44.807  1.00  0.00    -0.340 N 
HETATM   12  N   UNL     1      41.099  43.792  43.472  1.00  0.00    -0.340 N 
HETATM   13  C   UNL     1      40.395  43.912  49.078  1.00  0.00     0.190 C 
HETATM   14  C   UNL     1      44.375  40.278  45.554  1.00  0.00     0.190 C 
HETATM   15  C   UNL     1      41.723  42.697  42.694  1.00  0.00     0.190 C 
HETATM   16  C   UNL     1      43.211  41.342  48.903  1.00  0.00     0.227 C 
HETATM   17  C   UNL     1      39.839  44.638  45.479  1.00  0.00     0.227 C 
HETATM   18  C   UNL     1      44.884  43.076  44.659  1.00  0.00     0.227 C 
HETATM   19  C   UNL     1      41.796  41.905  48.907  1.00  0.00     0.250 C 
HETATM   20  C   UNL     1      45.836  41.927  44.264  1.00  0.00     0.250 C 
HETATM   21  C   UNL     1      40.545  43.503  44.728  1.00  0.00     0.250 C 
HETATM   22  C   UNL     1      44.551  40.659  47.016  1.00  0.00     0.283 C 
HETATM   23  C   UNL     1      40.709  44.490  47.704  1.00  0.00     0.283 C 
HETATM   24  C   UNL     1      43.235  42.671  42.917  1.00  0.00     0.283 C 
HETATM   25  C   UNL     1      42.603  43.841  50.319  1.00  0.00     0.153 C 
HETATM   26  C   UNL     1      46.618  39.627  44.621  1.00  0.00     0.153 C 
HETATM   27  C   UNL     1      41.176  45.134  42.886  1.00  0.00     0.153 C 
ENDROOT
BRANCH  16  28
HETATM   28  C   UNL     1      43.356  40.246  49.944  1.00  0.00     0.016 C 
HETATM   29  C   UNL     1      42.060  40.079  50.735  1.00  0.00     0.012 C 
HETATM   30  C   UNL     1      44.522  40.547  50.885  1.00  0.00     0.012 C 
ENDBRANCH  16  28
BRANCH  14  31
HETATM   31  C   UNL     1      43.975  38.809  45.440  1.00  0.00     0.014 C 
HETATM   32  C   UNL     1      44.293  38.083  46.750  1.00  0.00     0.012 C 
BRANCH  31  33
HETATM   33  C   UNL     1      42.486  38.633  45.094  1.00  0.00     0.002 C 
HETATM   34  C   UNL     1      42.088  39.275  43.773  1.00  0.00     0.005 C 
ENDBRANCH  31  33
ENDBRANCH  14  31
BRANCH  13  35
HETATM   35  C   UNL     1      39.937  45.024  50.012  1.00  0.00     0.014 C 
HETATM   36  C   UNL     1      39.079  46.030  49.240  1.00  0.00     0.012 C 
BRANCH  35  37
HETATM   37  C   UNL     1      39.150  44.490  51.222  1.00  0.00     0.002 C 
HETATM   38  C   UNL     1      38.218  43.335  50.879  1.00  0.00     0.005 C 
ENDBRANCH  35  37
ENDBRANCH  13  35
BRANCH  18  39
HETATM   39  C   UNL     1      45.454  44.438  44.257  1.00  0.00     0.016 C 
HETATM   40  C   UNL     1      44.374  45.514  44.331  1.00  0.00     0.012 C 
HETATM   41  C   UNL     1      46.640  44.806  45.146  1.00  0.00     0.012 C 
ENDBRANCH  18  39
BRANCH  17  42
HETATM   42  C   UNL     1      38.449  44.864  44.902  1.00  0.00     0.016 C 
HETATM   43  C   UNL     1      38.196  46.353  44.668  1.00  0.00     0.012 C 
HETATM   44  C   UNL     1      37.380  44.279  45.824  1.00  0.00     0.012 C 
ENDBRANCH  17  42
BRANCH  15  45
HETATM   45  C   UNL     1      41.377  42.735  41.206  1.00  0.00     0.014 C 
HETATM   46  C   UNL     1      42.488  43.450  40.429  1.00  0.00     0.012 C 
BRANCH  45  47
HETATM   47  C   UNL     1      41.152  41.331  40.614  1.00  0.00     0.002 C 
HETATM   48  C   UNL     1      40.383  41.342  39.302  1.00  0.00     0.005 C 
ENDBRANCH  45  47
ENDBRANCH  15  45
TORSDOF 9
ENDMDL
MODEL 2
REMARK VINA RESULT:    -5.818     13.252     16.991
REMARK INTER + INTRA:          -8.603
REMARK INTER:                  -8.780
REMARK INTRA:                   0.176
REMARK UNBOUND:                 0.275
REMARK  9 active torsions:
REMARK  status: ('A' for Active; 'I' for Inactive)
REMARK    1  A    between atoms: C_13  and  C_16 
REMARK    2  A    between atoms: C_14  and  C_17 
REMARK    3  A    between atoms: C_15  and  C_18 
REMARK    4  A    between atoms: C_16  and  C_22 
REMARK    5  A    between atoms: C_17  and  C_23 
REMARK    6  A    between atoms: C_18  and  C_24 
REMARK    7  A    between atoms: C_19  and  C_25 
REMARK    8  A    between atoms: C_20  and  C_26 
REMARK    9  A    between atoms: C_21  and  C_27 
ROOT
HETATM    1  O   UNL     1      29.702  48.567  45.026  1.00  0.00    -0.304 OA
HETATM    2  O   UNL     1      26.012  46.874  41.978  1.00  0.00    -0.304 OA
HETATM    3  O   UNL     1      27.145  51.327  43.512  1.00  0.00    -0.304 OA
HETATM    4  O   UNL     1      29.171  46.517  43.530  1.00  0.00    -0.270 OA
HETATM    5  O   UNL     1      28.091  53.799  45.721  1.00  0.00    -0.270 OA
HETATM    6  O   UNL     1      27.747  48.828  41.636  1.00  0.00    -0.270 OA
HETATM    7  O   UNL     1      29.773  49.879  46.922  1.00  0.00    -0.263 OA
HETATM    8  O   UNL     1      25.349  47.562  44.079  1.00  0.00    -0.263 OA
HETATM    9  O   UNL     1      27.700  53.390  42.656  1.00  0.00    -0.263 OA
HETATM   10  N   UNL     1      27.440  45.902  44.947  1.00  0.00    -0.340 N 
HETATM   11  N   UNL     1      29.663  52.144  45.309  1.00  0.00    -0.340 N 
HETATM   12  N   UNL     1      26.187  50.486  41.187  1.00  0.00    -0.340 N 
HETATM   13  C   UNL     1      26.604  45.492  43.801  1.00  0.00     0.190 C 
HETATM   14  C   UNL     1      30.053  50.856  44.699  1.00  0.00     0.190 C 
HETATM   15  C   UNL     1      27.226  51.540  41.148  1.00  0.00     0.190 C 
HETATM   16  C   UNL     1      29.280  47.392  45.751  1.00  0.00     0.227 C 
HETATM   17  C   UNL     1      25.488  48.076  41.379  1.00  0.00     0.227 C 
HETATM   18  C   UNL     1      27.207  51.724  44.885  1.00  0.00     0.227 C 
HETATM   19  C   UNL     1      28.650  46.547  44.651  1.00  0.00     0.250 C 
HETATM   20  C   UNL     1      28.356  52.657  45.326  1.00  0.00     0.250 C 
HETATM   21  C   UNL     1      26.574  49.157  41.418  1.00  0.00     0.250 C 
HETATM   22  C   UNL     1      29.833  49.740  45.709  1.00  0.00     0.283 C 
HETATM   23  C   UNL     1      25.905  46.764  43.337  1.00  0.00     0.283 C 
HETATM   24  C   UNL     1      27.349  52.226  42.509  1.00  0.00     0.283 C 
HETATM   25  C   UNL     1      26.911  45.748  46.303  1.00  0.00     0.153 C 
HETATM   26  C   UNL     1      30.716  52.940  45.940  1.00  0.00     0.153 C 
HETATM   27  C   UNL     1      24.797  50.934  41.051  1.00  0.00     0.153 C 
ENDROOT
BRANCH  16  28
HETATM   28  C   UNL     1      30.481  46.684  46.351  1.00  0.00     0.016 C 
HETATM   29  C   UNL     1      30.562  45.243  45.853  1.00  0.00     0.012 C 
HETATM   30  C   UNL     1      30.422  46.721  47.877  1.00  0.00     0.012 C 
ENDBRANCH  16  28
BRANCH  14  31
HETATM   31  C   UNL     1      31.481  50.801  44.162  1.00  0.00     0.014 C 
HETATM   32  C   UNL     1      32.331  49.883  45.044  1.00  0.00     0.012 C 
BRANCH  31  33
HETATM   33  C   UNL     1      31.539  50.321  42.701  1.00  0.00     0.002 C 
HETATM   34  C   UNL     1      30.865  51.270  41.721  1.00  0.00     0.005 C 
ENDBRANCH  31  33
ENDBRANCH  14  31
BRANCH  13  35
HETATM   35  C   UNL     1      25.572  44.405  44.066  1.00  0.00     0.014 C 
HETATM   36  C   UNL     1      24.612  44.300  42.878  1.00  0.00     0.012 C 
BRANCH  35  37
HETATM   37  C   UNL     1      26.217  43.035  44.336  1.00  0.00     0.002 C 
HETATM   38  C   UNL     1      27.601  42.881  43.719  1.00  0.00     0.005 C 
ENDBRANCH  35  37
ENDBRANCH  13  35
BRANCH  18  39
HETATM   39  C   UNL     1      25.841  52.304  45.258  1.00  0.00     0.016 C 
HETATM   40  C   UNL     1      24.730  51.607  44.476  1.00  0.00     0.012 C 
HETATM   41  C   UNL     1      25.599  52.181  46.761  1.00  0.00     0.012 C 
ENDBRANCH  18  39
BRANCH  17  42
HETATM   42  C   UNL     1      25.136  47.738  39.937  1.00  0.00     0.016 C 
HETATM   43  C   UNL     1      24.756  46.264  39.804  1.00  0.00     0.012 C 
HETATM   44  C   UNL     1      26.298  48.077  39.004  1.00  0.00     0.012 C 
ENDBRANCH  17  42
BRANCH  15  45
HETATM   45  C   UNL     1      27.019  52.556  40.026  1.00  0.00     0.014 C 
HETATM   46  C   UNL     1      28.236  53.483  39.927  1.00  0.00     0.012 C 
BRANCH  45  47
HETATM   47  C   UNL     1      26.766  51.887  38.661  1.00  0.00     0.002 C 
HETATM   48  C   UNL     1      28.004  51.231  38.069  1.00  0.00     0.005 C 
ENDBRANCH  45  47
ENDBRANCH  15  45
TORSDOF 9
ENDMDL
MODEL 3
REMARK VINA RESULT:    -5.700      2.168      4.594
REMARK INTER + INTRA:          -8.424
REMARK INTER:                  -8.974
REMARK INTRA:                   0.550
REMARK UNBOUND:                 0.275
REMARK  9 active torsions:
REMARK  status: ('A' for Active; 'I' for Inactive)
REMARK    1  A    between atoms: C_13  and  C_16 
REMARK    2  A    between atoms: C_14  and  C_17 
REMARK    3  A    between atoms: C_15  and  C_18 
REMARK    4  A    between atoms: C_16  and  C_22 
REMARK    5  A    between atoms: C_17  and  C_23 
REMARK    6  A    between atoms: C_18  and  C_24 
REMARK    7  A    between atoms: C_19  and  C_25 
REMARK    8  A    between atoms: C_20  and  C_26 
REMARK    9  A    between atoms: C_21  and  C_27 
ROOT
HETATM    1  O   UNL     1      43.105  42.179  43.622  1.00  0.00    -0.304 OA
HETATM    2  O   UNL     1      39.885  43.595  47.282  1.00  0.00    -0.304 OA
HETATM    3  O   UNL     1      41.796  46.016  43.547  1.00  0.00    -0.304 OA
HETATM    4  O   UNL     1      41.437  41.113  45.297  1.00  0.00    -0.270 OA
HETATM    5  O   UNL     1      44.213  47.073  41.328  1.00  0.00    -0.270 OA
HETATM    6  O   UNL     1      39.726  43.875  44.667  1.00  0.00    -0.270 OA
HETATM    7  O   UNL     1      45.104  42.992  42.808  1.00  0.00    -0.263 OA
HETATM    8  O   UNL     1      42.029  44.437  47.443  1.00  0.00    -0.263 OA
HETATM    9  O   UNL     1      41.121  47.202  41.694  1.00  0.00    -0.263 OA
HETATM   10  N   UNL     1      42.779  41.756  47.078  1.00  0.00    -0.340 N 
HETATM   11  N   UNL     1      43.683  44.816  41.259  1.00  0.00    -0.340 N 
HETATM   12  N   UNL     1      39.399  46.172  44.670  1.00  0.00    -0.340 N 
HETATM   13  C   UNL     1      41.593  42.083  47.895  1.00  0.00     0.190 C 
HETATM   14  C   UNL     1      42.973  43.639  41.801  1.00  0.00     0.190 C 
HETATM   15  C   UNL     1      39.459  46.245  43.192  1.00  0.00     0.190 C 
HETATM   16  C   UNL     1      43.724  41.562  44.771  1.00  0.00     0.227 C 
HETATM   17  C   UNL     1      39.382  44.865  46.820  1.00  0.00     0.227 C 
HETATM   18  C   UNL     1      43.198  46.193  43.323  1.00  0.00     0.227 C 
HETATM   19  C   UNL     1      42.551  41.427  45.733  1.00  0.00     0.250 C 
HETATM   20  C   UNL     1      43.728  46.077  41.877  1.00  0.00     0.250 C 
HETATM   21  C   UNL     1      39.523  44.921  45.294  1.00  0.00     0.250 C 
HETATM   22  C   UNL     1      43.884  42.915  42.780  1.00  0.00     0.283 C 
HETATM   23  C   UNL     1      41.229  43.514  47.523  1.00  0.00     0.283 C 
HETATM   24  C   UNL     1      40.874  46.592  42.727  1.00  0.00     0.283 C 
HETATM   25  C   UNL     1      44.112  41.928  47.659  1.00  0.00     0.153 C 
HETATM   26  C   UNL     1      44.390  44.655  39.988  1.00  0.00     0.153 C 
HETATM   27  C   UNL     1      39.286  47.449  45.382  1.00  0.00     0.153 C 
ENDROOT
BRANCH  16  28
HETATM   28  C   UNL     1      44.277  40.198  44.402  1.00  0.00     0.016 C 
HETATM   29  C   UNL     1      43.545  39.095  45.165  1.00  0.00     0.012 C 
HETATM   30  C   UNL     1      45.778  40.132  44.676  1.00  0.00     0.012 C 
ENDBRANCH  16  28
BRANCH  14  31
HETATM   31  C   UNL     1      42.449  42.661  40.752  1.00  0.00     0.014 C 
HETATM   32  C   UNL     1      43.120  41.298  40.934  1.00  0.00     0.012 C 
BRANCH  31  33
HETATM   33  C   UNL     1      40.919  42.501  40.812  1.00  0.00     0.002 C 
HETATM   34  C   UNL     1      40.344  41.700  39.653  1.00  0.00     0.005 C 
ENDBRANCH  31  33
ENDBRANCH  14  31
BRANCH  13  35
HETATM   35  C   UNL     1      41.756  41.968  49.405  1.00  0.00     0.014 C 
HETATM   36  C   UNL     1      41.199  43.223  50.083  1.00  0.00     0.012 C 
BRANCH  35  37
HETATM   37  C   UNL     1      41.067  40.718  49.978  1.00  0.00     0.002 C 
HETATM   38  C   UNL     1      39.573  40.900  50.213  1.00  0.00     0.005 C 
ENDBRANCH  35  37
ENDBRANCH  13  35
BRANCH  18  39
HETATM   39  C   UNL     1      43.603  47.523  43.961  1.00  0.00     0.016 C 
HETATM   40  C   UNL     1      42.815  47.763  45.247  1.00  0.00     0.012 C 
HETATM   41  C   UNL     1      45.105  47.549  44.240  1.00  0.00     0.012 C 
ENDBRANCH  18  39
BRANCH  17  42
HETATM   42  C   UNL     1      37.913  44.933  47.214  1.00  0.00     0.016 C 
HETATM   43  C   UNL     1      37.684  44.253  48.564  1.00  0.00     0.012 C 
HETATM   44  C   UNL     1      37.036  44.294  46.138  1.00  0.00     0.012 C 
ENDBRANCH  17  42
BRANCH  15  45
HETATM   45  C   UNL     1      38.423  47.191  42.587  1.00  0.00     0.014 C 
HETATM   46  C   UNL     1      38.081  46.751  41.160  1.00  0.00     0.012 C 
BRANCH  45  47
HETATM   47  C   UNL     1      37.134  47.272  43.428  1.00  0.00     0.002 C 
HETATM   48  C   UNL     1      36.300  48.511  43.140  1.00  0.00     0.005 C 
ENDBRANCH  45  47
ENDBRANCH  15  45
TORSDOF 9
ENDMDL
MODEL 4
REMARK VINA RESULT:    -5.448     13.614     17.187
REMARK INTER + INTRA:          -8.040
REMARK INTER:                  -8.290
REMARK INTRA:                   0.250
REMARK UNBOUND:                 0.275
REMARK  9 active torsions:
REMARK  status: ('A' for Active; 'I' for Inactive)
REMARK    1  A    between atoms: C_13  and  C_16 
REMARK    2  A    between atoms: C_14  and  C_17 
REMARK    3  A    between atoms: C_15  and  C_18 
REMARK    4  A    between atoms: C_16  and  C_22 
REMARK    5  A    between atoms: C_17  and  C_23 
REMARK    6  A    between atoms: C_18  and  C_24 
REMARK    7  A    between atoms: C_19  and  C_25 
REMARK    8  A    between atoms: C_20  and  C_26 
REMARK    9  A    between atoms: C_21  and  C_27 
ROOT
HETATM    1  O   UNL     1      28.705  47.672  45.231  1.00  0.00    -0.304 OA
HETATM    2  O   UNL     1      26.561  48.096  40.650  1.00  0.00    -0.304 OA
HETATM    3  O   UNL     1      27.557  51.383  44.065  1.00  0.00    -0.304 OA
HETATM    4  O   UNL     1      28.592  46.383  42.985  1.00  0.00    -0.270 OA
HETATM    5  O   UNL     1      27.781  52.732  47.230  1.00  0.00    -0.270 OA
HETATM    6  O   UNL     1      28.542  49.449  41.738  1.00  0.00    -0.270 OA
HETATM    7  O   UNL     1      28.120  48.316  47.368  1.00  0.00    -0.263 OA
HETATM    8  O   UNL     1      25.141  48.335  42.454  1.00  0.00    -0.263 OA
HETATM    9  O   UNL     1      28.746  53.335  44.328  1.00  0.00    -0.263 OA
HETATM   10  N   UNL     1      26.338  45.948  43.321  1.00  0.00    -0.340 N 
HETATM   11  N   UNL     1      29.095  50.865  46.822  1.00  0.00    -0.340 N 
HETATM   12  N   UNL     1      27.625  51.556  41.420  1.00  0.00    -0.340 N 
HETATM   13  C   UNL     1      26.052  46.148  41.886  1.00  0.00     0.190 C 
HETATM   14  C   UNL     1      29.512  49.744  45.955  1.00  0.00     0.190 C 
HETATM   15  C   UNL     1      28.720  52.214  42.169  1.00  0.00     0.190 C 
HETATM   16  C   UNL     1      27.828  46.526  45.244  1.00  0.00     0.227 C 
HETATM   17  C   UNL     1      26.552  49.517  40.408  1.00  0.00     0.227 C 
HETATM   18  C   UNL     1      27.057  51.342  45.405  1.00  0.00     0.227 C 
HETATM   19  C   UNL     1      27.635  46.253  43.758  1.00  0.00     0.250 C 
HETATM   20  C   UNL     1      28.015  51.722  46.555  1.00  0.00     0.250 C 
HETATM   21  C   UNL     1      27.658  50.164  41.250  1.00  0.00     0.250 C 
HETATM   22  C   UNL     1      28.695  48.511  46.307  1.00  0.00     0.283 C 
HETATM   23  C   UNL     1      25.841  47.647  41.722  1.00  0.00     0.283 C 
HETATM   24  C   UNL     1      28.324  52.421  43.631  1.00  0.00     0.283 C 
HETATM   25  C   UNL     1      25.240  45.588  44.220  1.00  0.00     0.153 C 
HETATM   26  C   UNL     1      29.862  51.097  48.046  1.00  0.00     0.153 C 
HETATM   27  C   UNL     1      26.531  52.422  40.968  1.00  0.00     0.153 C 
ENDROOT
BRANCH  16  28
HETATM   28  C   UNL     1      28.508  45.351  45.922  1.00  0.00     0.016 C 
HETATM   29  C   UNL     1      28.177  45.324  47.413  1.00  0.00     0.012 C 
HETATM   30  C   UNL     1      30.020  45.407  45.710  1.00  0.00     0.012 C 
ENDBRANCH  16  28
BRANCH  14  31
HETATM   31  C   UNL     1      31.003  49.413  46.000  1.00  0.00     0.014 C 
HETATM   32  C   UNL     1      31.251  48.275  46.992  1.00  0.00     0.012 C 
BRANCH  31  33
HETATM   33  C   UNL     1      31.559  49.030  44.617  1.00  0.00     0.002 C 
HETATM   34  C   UNL     1      31.479  50.155  43.595  1.00  0.00     0.005 C 
ENDBRANCH  31  33
ENDBRANCH  14  31
BRANCH  13  35
HETATM   35  C   UNL     1      24.857  45.394  41.319  1.00  0.00     0.014 C 
HETATM   36  C   UNL     1      24.529  45.919  39.919  1.00  0.00     0.012 C 
BRANCH  35  37
HETATM   37  C   UNL     1      25.092  43.874  41.263  1.00  0.00     0.002 C 
HETATM   38  C   UNL     1      23.807  43.062  41.175  1.00  0.00     0.005 C 
ENDBRANCH  35  37
ENDBRANCH  13  35
BRANCH  18  39
HETATM   39  C   UNL     1      25.776  52.178  45.444  1.00  0.00     0.016 C 
HETATM   40  C   UNL     1      25.000  52.032  44.138  1.00  0.00     0.012 C 
HETATM   41  C   UNL     1      24.908  51.773  46.634  1.00  0.00     0.012 C 
ENDBRANCH  18  39
BRANCH  17  42
HETATM   42  C   UNL     1      26.836  49.719  38.926  1.00  0.00     0.016 C 
HETATM   43  C   UNL     1      25.640  50.367  38.230  1.00  0.00     0.012 C 
HETATM   44  C   UNL     1      27.188  48.391  38.257  1.00  0.00     0.012 C 
ENDBRANCH  17  42
BRANCH  15  45
HETATM   45  C   UNL     1      29.197  53.517  41.528  1.00  0.00     0.014 C 
HETATM   46  C   UNL     1      30.556  53.920  42.110  1.00  0.00     0.012 C 
BRANCH  45  47
HETATM   47  C   UNL     1      29.299  53.419  39.994  1.00  0.00     0.002 C 
HETATM   48  C   UNL     1      30.480  52.587  39.517  1.00  0.00     0.005 C 
ENDBRANCH  45  47
ENDBRANCH  15  45
TORSDOF 9
ENDMDL
MODEL 5
REMARK VINA RESULT:    -5.344     10.721     14.735
REMARK INTER + INTRA:          -7.880
REMARK INTER:                  -8.059
REMARK INTRA:                   0.179
REMARK UNBOUND:                 0.275
REMARK  9 active torsions:
REMARK  status: ('A' for Active; 'I' for Inactive)
REMARK    1  A    between atoms: C_13  and  C_16 
REMARK    2  A    between atoms: C_14  and  C_17 
REMARK    3  A    between atoms: C_15  and  C_18 
REMARK    4  A    between atoms: C_16  and  C_22 
REMARK    5  A    between atoms: C_17  and  C_23 
REMARK    6  A    between atoms: C_18  and  C_24 
REMARK    7  A    between atoms: C_19  and  C_25 
REMARK    8  A    between atoms: C_20  and  C_26 
REMARK    9  A    between atoms: C_21  and  C_27 
ROOT
HETATM    1  O   UNL     1      29.699  47.359  49.826  1.00  0.00    -0.304 OA
HETATM    2  O   UNL     1      27.045  50.277  46.630  1.00  0.00    -0.304 OA
HETATM    3  O   UNL     1      30.086  46.585  45.864  1.00  0.00    -0.304 OA
HETATM    4  O   UNL     1      27.607  48.890  49.836  1.00  0.00    -0.270 OA
HETATM    5  O   UNL     1      32.901  44.633  46.253  1.00  0.00    -0.270 OA
HETATM    6  O   UNL     1      27.235  47.654  46.788  1.00  0.00    -0.270 OA
HETATM    7  O   UNL     1      31.916  46.754  50.017  1.00  0.00    -0.263 OA
HETATM    8  O   UNL     1      29.324  50.645  46.677  1.00  0.00    -0.263 OA
HETATM    9  O   UNL     1      30.113  44.512  44.865  1.00  0.00    -0.263 OA
HETATM   10  N   UNL     1      28.939  50.751  49.456  1.00  0.00    -0.340 N 
HETATM   11  N   UNL     1      31.502  44.783  48.096  1.00  0.00    -0.340 N 
HETATM   12  N   UNL     1      27.877  47.305  44.586  1.00  0.00    -0.340 N 
HETATM   13  C   UNL     1      27.927  51.332  48.551  1.00  0.00     0.190 C 
HETATM   14  C   UNL     1      30.330  45.363  48.784  1.00  0.00     0.190 C 
HETATM   15  C   UNL     1      28.086  45.856  44.811  1.00  0.00     0.190 C 
HETATM   16  C   UNL     1      29.913  48.659  50.416  1.00  0.00     0.227 C 
HETATM   17  C   UNL     1      27.146  49.582  45.371  1.00  0.00     0.227 C 
HETATM   18  C   UNL     1      31.451  46.552  46.291  1.00  0.00     0.227 C 
HETATM   19  C   UNL     1      28.711  49.443  49.907  1.00  0.00     0.250 C 
HETATM   20  C   UNL     1      32.006  45.230  46.864  1.00  0.00     0.250 C 
HETATM   21  C   UNL     1      27.425  48.100  45.651  1.00  0.00     0.250 C 
HETATM   22  C   UNL     1      30.779  46.553  49.617  1.00  0.00     0.283 C 
HETATM   23  C   UNL     1      28.213  50.725  47.184  1.00  0.00     0.283 C 
HETATM   24  C   UNL     1      29.552  45.567  45.133  1.00  0.00     0.283 C 
HETATM   25  C   UNL     1      30.172  51.498  49.715  1.00  0.00     0.153 C 
HETATM   26  C   UNL     1      32.185  43.665  48.747  1.00  0.00     0.153 C 
HETATM   27  C   UNL     1      28.237  47.818  43.260  1.00  0.00     0.153 C 
ENDROOT
BRANCH  16  28
HETATM   28  C   UNL     1      29.888  48.559  51.930  1.00  0.00     0.016 C 
HETATM   29  C   UNL     1      28.726  49.366  52.505  1.00  0.00     0.012 C 
HETATM   30  C   UNL     1      31.214  49.033  52.524  1.00  0.00     0.012 C 
ENDBRANCH  16  28
BRANCH  14  31
HETATM   31  C   UNL     1      29.542  44.384  49.653  1.00  0.00     0.014 C 
HETATM   32  C   UNL     1      29.850  44.640  51.130  1.00  0.00     0.012 C 
BRANCH  31  33
HETATM   33  C   UNL     1      28.025  44.479  49.413  1.00  0.00     0.002 C 
HETATM   34  C   UNL     1      27.249  45.001  50.613  1.00  0.00     0.005 C 
ENDBRANCH  31  33
ENDBRANCH  14  31
BRANCH  13  35
HETATM   35  C   UNL     1      27.901  52.851  48.445  1.00  0.00     0.014 C 
HETATM   36  C   UNL     1      27.296  53.266  47.101  1.00  0.00     0.012 C 
BRANCH  35  37
HETATM   37  C   UNL     1      27.116  53.508  49.594  1.00  0.00     0.002 C 
HETATM   38  C   UNL     1      25.639  53.137  49.612  1.00  0.00     0.005 C 
ENDBRANCH  35  37
ENDBRANCH  13  35
BRANCH  18  39
HETATM   39  C   UNL     1      32.309  47.064  45.133  1.00  0.00     0.016 C 
HETATM   40  C   UNL     1      31.592  48.188  44.390  1.00  0.00     0.012 C 
HETATM   41  C   UNL     1      33.669  47.537  45.641  1.00  0.00     0.012 C 
ENDBRANCH  18  39
BRANCH  17  42
HETATM   42  C   UNL     1      25.806  49.739  44.666  1.00  0.00     0.016 C 
HETATM   43  C   UNL     1      25.984  50.433  43.316  1.00  0.00     0.012 C 
HETATM   44  C   UNL     1      24.823  50.515  45.542  1.00  0.00     0.012 C 
ENDBRANCH  17  42
BRANCH  15  45
HETATM   45  C   UNL     1      27.583  44.985  43.662  1.00  0.00     0.014 C 
HETATM   46  C   UNL     1      27.406  43.539  44.139  1.00  0.00     0.012 C 
BRANCH  45  47
HETATM   47  C   UNL     1      26.258  45.498  43.066  1.00  0.00     0.002 C 
HETATM   48  C   UNL     1      25.888  44.833  41.749  1.00  0.00     0.005 C 
ENDBRANCH  45  47
ENDBRANCH  15  45
TORSDOF 9
ENDMDL
MODEL 6
REMARK VINA RESULT:    -5.052     11.488     16.149
REMARK INTER + INTRA:          -7.435
REMARK INTER:                  -7.677
REMARK INTRA:                   0.242
REMARK UNBOUND:                 0.275
REMARK  9 active torsions:
REMARK  status: ('A' for Active; 'I' for Inactive)
REMARK    1  A    between atoms: C_13  and  C_16 
REMARK    2  A    between atoms: C_14  and  C_17 
REMARK    3  A    between atoms: C_15  and  C_18 
REMARK    4  A    between atoms: C_16  and  C_22 
REMARK    5  A    between atoms: C_17  and  C_23 
REMARK    6  A    between atoms: C_18  and  C_24 
REMARK    7  A    between atoms: C_19  and  C_25 
REMARK    8  A    between atoms: C_20  and  C_26 
REMARK    9  A    between atoms: C_21  and  C_27 
ROOT
HETATM    1  O   UNL     1      30.788  50.369  44.233  1.00  0.00    -0.304 OA
HETATM    2  O   UNL     1      28.873  45.768  45.198  1.00  0.00    -0.304 OA
HETATM    3  O   UNL     1      26.870  49.781  43.369  1.00  0.00    -0.304 OA
HETATM    4  O   UNL     1      31.601  47.929  44.563  1.00  0.00    -0.270 OA
HETATM    5  O   UNL     1      26.164  53.142  43.059  1.00  0.00    -0.270 OA
HETATM    6  O   UNL     1      28.755  47.243  43.018  1.00  0.00    -0.270 OA
HETATM    7  O   UNL     1      30.197  52.528  44.790  1.00  0.00    -0.263 OA
HETATM    8  O   UNL     1      28.201  47.459  46.618  1.00  0.00    -0.263 OA
HETATM    9  O   UNL     1      25.758  50.485  41.481  1.00  0.00    -0.263 OA
HETATM   10  N   UNL     1      30.952  47.991  46.790  1.00  0.00    -0.340 N 
HETATM   11  N   UNL     1      28.369  52.525  42.691  1.00  0.00    -0.340 N 
HETATM   12  N   UNL     1      26.444  47.224  42.814  1.00  0.00    -0.340 N 
HETATM   13  C   UNL     1      30.476  46.594  46.724  1.00  0.00     0.190 C 
HETATM   14  C   UNL     1      29.446  51.513  42.697  1.00  0.00     0.190 C 
HETATM   15  C   UNL     1      26.475  48.167  41.672  1.00  0.00     0.190 C 
HETATM   16  C   UNL     1      31.376  50.105  45.525  1.00  0.00     0.227 C 
HETATM   17  C   UNL     1      27.600  45.781  44.521  1.00  0.00     0.227 C 
HETATM   18  C   UNL     1      26.824  51.046  44.037  1.00  0.00     0.227 C 
HETATM   19  C   UNL     1      31.350  48.583  45.583  1.00  0.00     0.250 C 
HETATM   20  C   UNL     1      27.078  52.322  43.206  1.00  0.00     0.250 C 
HETATM   21  C   UNL     1      27.656  46.815  43.390  1.00  0.00     0.250 C 
HETATM   22  C   UNL     1      30.175  51.571  44.030  1.00  0.00     0.283 C 
HETATM   23  C   UNL     1      29.048  46.680  46.202  1.00  0.00     0.283 C 
HETATM   24  C   UNL     1      26.276  49.604  42.156  1.00  0.00     0.283 C 
HETATM   25  C   UNL     1      30.851  48.716  48.058  1.00  0.00     0.153 C 
HETATM   26  C   UNL     1      28.672  53.831  42.106  1.00  0.00     0.153 C 
HETATM   27  C   UNL     1      25.118  46.841  43.308  1.00  0.00     0.153 C 
ENDROOT
BRANCH  16  28
HETATM   28  C   UNL     1      32.802  50.621  45.569  1.00  0.00     0.016 C 
HETATM   29  C   UNL     1      33.786  49.469  45.760  1.00  0.00     0.012 C 
HETATM   30  C   UNL     1      32.967  51.655  46.682  1.00  0.00     0.012 C 
ENDBRANCH  16  28
BRANCH  14  31
HETATM   31  C   UNL     1      30.445  51.625  41.548  1.00  0.00     0.014 C 
HETATM   32  C   UNL     1      31.784  52.148  42.075  1.00  0.00     0.012 C 
BRANCH  31  33
HETATM   33  C   UNL     1      30.657  50.284  40.824  1.00  0.00     0.002 C 
HETATM   34  C   UNL     1      32.071  49.737  40.957  1.00  0.00     0.005 C 
ENDBRANCH  31  33
ENDBRANCH  14  31
BRANCH  13  35
HETATM   35  C   UNL     1      30.503  45.804  48.025  1.00  0.00     0.014 C 
HETATM   36  C   UNL     1      29.100  45.279  48.342  1.00  0.00     0.012 C 
BRANCH  35  37
HETATM   37  C   UNL     1      31.499  44.632  47.981  1.00  0.00     0.002 C 
HETATM   38  C   UNL     1      32.456  44.691  46.798  1.00  0.00     0.005 C 
ENDBRANCH  35  37
ENDBRANCH  13  35
BRANCH  18  39
HETATM   39  C   UNL     1      25.492  51.123  44.786  1.00  0.00     0.016 C 
HETATM   40  C   UNL     1      25.089  49.746  45.308  1.00  0.00     0.012 C 
HETATM   41  C   UNL     1      25.579  52.128  45.933  1.00  0.00     0.012 C 
ENDBRANCH  18  39
BRANCH  17  42
HETATM   42  C   UNL     1      27.386  44.387  43.947  1.00  0.00     0.016 C 
HETATM   43  C   UNL     1      26.420  43.586  44.818  1.00  0.00     0.012 C 
HETATM   44  C   UNL     1      28.718  43.650  43.808  1.00  0.00     0.012 C 
ENDBRANCH  17  42
BRANCH  15  45
HETATM   45  C   UNL     1      25.489  47.809  40.562  1.00  0.00     0.014 C 
HETATM   46  C   UNL     1      26.010  48.320  39.214  1.00  0.00     0.012 C 
BRANCH  45  47
HETATM   47  C   UNL     1      25.223  46.294  40.473  1.00  0.00     0.002 C 
HETATM   48  C   UNL     1      23.955  45.946  39.709  1.00  0.00     0.005 C 
ENDBRANCH  45  47
ENDBRANCH  15  45
TORSDOF 9
ENDMDL
MODEL 7
REMARK VINA RESULT:    -4.973      8.421     14.583
REMARK INTER + INTRA:          -7.315
REMARK INTER:                  -7.306
REMARK INTRA:                  -0.009
REMARK UNBOUND:                 0.275
REMARK  9 active torsions:
REMARK  status: ('A' for Active; 'I' for Inactive)
REMARK    1  A    between atoms: C_13  and  C_16 
REMARK    2  A    between atoms: C_14  and  C_17 
REMARK    3  A    between atoms: C_15  and  C_18 
REMARK    4  A    between atoms: C_16  and  C_22 
REMARK    5  A    between atoms: C_17  and  C_23 
REMARK    6  A    between atoms: C_18  and  C_24 
REMARK    7  A    between atoms: C_19  and  C_25 
REMARK    8  A    between atoms: C_20  and  C_26 
REMARK    9  A    between atoms: C_21  and  C_27 
ROOT
HETATM    1  O   UNL     1      29.882  45.820  48.898  1.00  0.00    -0.304 OA
HETATM    2  O   UNL     1      34.303  43.694  50.205  1.00  0.00    -0.304 OA
HETATM    3  O   UNL     1      31.060  46.229  52.757  1.00  0.00    -0.304 OA
HETATM    4  O   UNL     1      31.488  43.956  48.079  1.00  0.00    -0.270 OA
HETATM    5  O   UNL     1      28.801  48.739  53.454  1.00  0.00    -0.270 OA
HETATM    6  O   UNL     1      31.927  43.521  51.330  1.00  0.00    -0.270 OA
HETATM    7  O   UNL     1      28.967  47.928  49.101  1.00  0.00    -0.263 OA
HETATM    8  O   UNL     1      34.292  45.999  50.071  1.00  0.00    -0.263 OA
HETATM    9  O   UNL     1      29.738  46.008  54.628  1.00  0.00    -0.263 OA
HETATM   10  N   UNL     1      33.104  45.541  47.568  1.00  0.00    -0.340 N 
HETATM   11  N   UNL     1      28.236  47.313  51.715  1.00  0.00    -0.340 N 
HETATM   12  N   UNL     1      32.595  44.182  53.452  1.00  0.00    -0.340 N 
HETATM   13  C   UNL     1      34.178  44.647  48.046  1.00  0.00     0.190 C 
HETATM   14  C   UNL     1      28.566  46.208  50.791  1.00  0.00     0.190 C 
HETATM   15  C   UNL     1      31.202  44.185  53.957  1.00  0.00     0.190 C 
HETATM   16  C   UNL     1      30.697  46.189  47.765  1.00  0.00     0.227 C 
HETATM   17  C   UNL     1      34.291  43.741  51.646  1.00  0.00     0.227 C 
HETATM   18  C   UNL     1      30.642  47.562  52.448  1.00  0.00     0.227 C 
HETATM   19  C   UNL     1      31.784  45.122  47.791  1.00  0.00     0.250 C 
HETATM   20  C   UNL     1      29.146  47.914  52.600  1.00  0.00     0.250 C 
HETATM   21  C   UNL     1      32.834  43.808  52.121  1.00  0.00     0.250 C 
HETATM   22  C   UNL     1      29.138  46.787  49.507  1.00  0.00     0.283 C 
HETATM   23  C   UNL     1      34.268  44.892  49.547  1.00  0.00     0.283 C 
HETATM   24  C   UNL     1      30.600  45.587  53.867  1.00  0.00     0.283 C 
HETATM   25  C   UNL     1      33.461  46.854  47.029  1.00  0.00     0.153 C 
HETATM   26  C   UNL     1      26.862  47.816  51.706  1.00  0.00     0.153 C 
HETATM   27  C   UNL     1      33.627  44.651  54.382  1.00  0.00     0.153 C 
ENDROOT
BRANCH  16  28
HETATM   28  C   UNL     1      29.888  46.101  46.484  1.00  0.00     0.016 C 
HETATM   29  C   UNL     1      30.454  45.023  45.562  1.00  0.00     0.012 C 
HETATM   30  C   UNL     1      29.857  47.452  45.772  1.00  0.00     0.012 C 
ENDBRANCH  16  28
BRANCH  14  31
HETATM   31  C   UNL     1      27.407  45.266  50.470  1.00  0.00     0.014 C 
HETATM   32  C   UNL     1      27.067  45.355  48.980  1.00  0.00     0.012 C 
BRANCH  31  33
HETATM   33  C   UNL     1      27.716  43.807  50.849  1.00  0.00     0.002 C 
HETATM   34  C   UNL     1      27.682  43.547  52.348  1.00  0.00     0.005 C 
ENDBRANCH  31  33
ENDBRANCH  14  31
BRANCH  13  35
HETATM   35  C   UNL     1      35.549  44.831  47.411  1.00  0.00     0.014 C 
HETATM   36  C   UNL     1      36.628  44.251  48.329  1.00  0.00     0.012 C 
BRANCH  35  37
HETATM   37  C   UNL     1      35.645  44.181  46.020  1.00  0.00     0.002 C 
HETATM   38  C   UNL     1      37.056  44.171  45.448  1.00  0.00     0.005 C 
ENDBRANCH  35  37
ENDBRANCH  13  35
BRANCH  18  39
HETATM   39  C   UNL     1      31.525  48.520  53.250  1.00  0.00     0.016 C 
HETATM   40  C   UNL     1      32.952  47.984  53.342  1.00  0.00     0.012 C 
HETATM   41  C   UNL     1      31.514  49.912  52.622  1.00  0.00     0.012 C 
ENDBRANCH  18  39
BRANCH  17  42
HETATM   42  C   UNL     1      34.945  42.459  52.140  1.00  0.00     0.016 C 
HETATM   43  C   UNL     1      36.407  42.707  52.512  1.00  0.00     0.012 C 
HETATM   44  C   UNL     1      34.843  41.359  51.084  1.00  0.00     0.012 C 
ENDBRANCH  17  42
BRANCH  15  45
HETATM   45  C   UNL     1      31.066  43.606  55.364  1.00  0.00     0.014 C 
HETATM   46  C   UNL     1      29.604  43.236  55.639  1.00  0.00     0.012 C 
BRANCH  45  47
HETATM   47  C   UNL     1      31.962  42.373  55.587  1.00  0.00     0.002 C 
HETATM   48  C   UNL     1      31.225  41.188  56.192  1.00  0.00     0.005 C 
ENDBRANCH  45  47
ENDBRANCH  15  45
TORSDOF 9
ENDMDL
MODEL 8
REMARK VINA RESULT:    -4.761     13.860     18.349
REMARK INTER + INTRA:          -6.990
REMARK INTER:                  -7.628
REMARK INTRA:                   0.638
REMARK UNBOUND:                 0.275
REMARK  9 active torsions:
REMARK  status: ('A' for Active; 'I' for Inactive)
REMARK    1  A    between atoms: C_13  and  C_16 
REMARK    2  A    between atoms: C_14  and  C_17 
REMARK    3  A    between atoms: C_15  and  C_18 
REMARK    4  A    between atoms: C_16  and  C_22 
REMARK    5  A    between atoms: C_17  and  C_23 
REMARK    6  A    between atoms: C_18  and  C_24 
REMARK    7  A    between atoms: C_19  and  C_25 
REMARK    8  A    between atoms: C_20  and  C_26 
REMARK    9  A    between atoms: C_21  and  C_27 
ROOT
HETATM    1  O   UNL     1      26.722  52.485  44.319  1.00  0.00    -0.304 OA
HETATM    2  O   UNL     1      25.992  48.127  41.818  1.00  0.00    -0.304 OA
HETATM    3  O   UNL     1      28.776  49.240  45.622  1.00  0.00    -0.304 OA
HETATM    4  O   UNL     1      24.963  51.375  42.770  1.00  0.00    -0.270 OA
HETATM    5  O   UNL     1      30.972  51.077  47.544  1.00  0.00    -0.270 OA
HETATM    6  O   UNL     1      25.899  48.651  44.399  1.00  0.00    -0.270 OA
HETATM    7  O   UNL     1      28.570  53.724  44.924  1.00  0.00    -0.263 OA
HETATM    8  O   UNL     1      28.031  49.156  41.480  1.00  0.00    -0.263 OA
HETATM    9  O   UNL     1      29.094  48.604  47.810  1.00  0.00    -0.263 OA
HETATM   10  N   UNL     1      26.457  51.430  40.996  1.00  0.00    -0.340 N 
HETATM   11  N   UNL     1      28.913  52.060  47.128  1.00  0.00    -0.340 N 
HETATM   12  N   UNL     1      27.428  47.030  45.048  1.00  0.00    -0.340 N 
HETATM   13  C   UNL     1      26.000  50.106  40.527  1.00  0.00     0.190 C 
HETATM   14  C   UNL     1      27.603  52.074  46.445  1.00  0.00     0.190 C 
HETATM   15  C   UNL     1      27.408  47.488  46.457  1.00  0.00     0.190 C 
HETATM   16  C   UNL     1      26.744  52.957  42.954  1.00  0.00     0.227 C 
HETATM   17  C   UNL     1      26.593  47.138  42.677  1.00  0.00     0.227 C 
HETATM   18  C   UNL     1      29.801  50.239  45.617  1.00  0.00     0.227 C 
HETATM   19  C   UNL     1      25.956  51.875  42.228  1.00  0.00     0.250 C 
HETATM   20  C   UNL     1      29.945  51.146  46.858  1.00  0.00     0.250 C 
HETATM   21  C   UNL     1      26.609  47.679  44.112  1.00  0.00     0.250 C 
HETATM   22  C   UNL     1      27.720  52.879  45.160  1.00  0.00     0.283 C 
HETATM   23  C   UNL     1      26.819  49.094  41.317  1.00  0.00     0.283 C 
HETATM   24  C   UNL     1      28.552  48.468  46.721  1.00  0.00     0.283 C 
HETATM   25  C   UNL     1      27.496  52.131  40.239  1.00  0.00     0.153 C 
HETATM   26  C   UNL     1      29.150  53.071  48.159  1.00  0.00     0.153 C 
HETATM   27  C   UNL     1      28.377  45.961  44.723  1.00  0.00     0.153 C 
ENDROOT
BRANCH  16  28
HETATM   28  C   UNL     1      26.040  54.297  42.850  1.00  0.00     0.016 C 
HETATM   29  C   UNL     1      24.596  54.112  42.386  1.00  0.00     0.012 C 
HETATM   30  C   UNL     1      26.792  55.229  41.901  1.00  0.00     0.012 C 
ENDBRANCH  16  28
BRANCH  14  31
HETATM   31  C   UNL     1      26.440  52.598  47.287  1.00  0.00     0.014 C 
HETATM   32  C   UNL     1      26.108  54.033  46.873  1.00  0.00     0.012 C 
BRANCH  31  33
HETATM   33  C   UNL     1      25.186  51.715  47.166  1.00  0.00     0.002 C 
HETATM   34  C   UNL     1      24.027  52.399  46.456  1.00  0.00     0.005 C 
ENDBRANCH  31  33
ENDBRANCH  14  31
BRANCH  13  35
HETATM   35  C   UNL     1      26.135  49.828  39.036  1.00  0.00     0.014 C 
HETATM   36  C   UNL     1      26.037  48.322  38.778  1.00  0.00     0.012 C 
BRANCH  35  37
HETATM   37  C   UNL     1      25.076  50.569  38.201  1.00  0.00     0.002 C 
HETATM   38  C   UNL     1      25.580  51.013  36.834  1.00  0.00     0.005 C 
ENDBRANCH  35  37
ENDBRANCH  13  35
BRANCH  18  39
HETATM   39  C   UNL     1      31.121  49.543  45.278  1.00  0.00     0.016 C 
HETATM   40  C   UNL     1      30.889  48.412  44.279  1.00  0.00     0.012 C 
HETATM   41  C   UNL     1      32.131  50.548  44.727  1.00  0.00     0.012 C 
ENDBRANCH  18  39
BRANCH  17  42
HETATM   42  C   UNL     1      25.723  45.891  42.597  1.00  0.00     0.016 C 
HETATM   43  C   UNL     1      26.479  44.746  41.924  1.00  0.00     0.012 C 
HETATM   44  C   UNL     1      24.423  46.186  41.848  1.00  0.00     0.012 C 
ENDBRANCH  17  42
BRANCH  15  45
HETATM   45  C   UNL     1      27.407  46.343  47.468  1.00  0.00     0.014 C 
HETATM   46  C   UNL     1      26.254  45.379  47.167  1.00  0.00     0.012 C 
BRANCH  45  47
HETATM   47  C   UNL     1      28.739  45.567  47.484  1.00  0.00     0.002 C 
HETATM   48  C   UNL     1      29.175  45.141  48.877  1.00  0.00     0.005 C 
ENDBRANCH  45  47
ENDBRANCH  15  45
TORSDOF 9
ENDMDL
MODEL 9
REMARK VINA RESULT:    -4.718     12.595     16.999
REMARK INTER + INTRA:          -6.925
REMARK INTER:                  -7.326
REMARK INTRA:                   0.401
REMARK UNBOUND:                 0.275
REMARK  9 active torsions:
REMARK  status: ('A' for Active; 'I' for Inactive)
REMARK    1  A    between atoms: C_13  and  C_16 
REMARK    2  A    between atoms: C_14  and  C_17 
REMARK    3  A    between atoms: C_15  and  C_18 
REMARK    4  A    between atoms: C_16  and  C_22 
REMARK    5  A    between atoms: C_17  and  C_23 
REMARK    6  A    between atoms: C_18  and  C_24 
REMARK    7  A    between atoms: C_19  and  C_25 
REMARK    8  A    between atoms: C_20  and  C_26 
REMARK    9  A    between atoms: C_21  and  C_27 
ROOT
HETATM    1  O   UNL     1      27.639  51.397  45.658  1.00  0.00    -0.304 OA
HETATM    2  O   UNL     1      26.840  46.640  44.077  1.00  0.00    -0.304 OA
HETATM    3  O   UNL     1      30.296  48.579  46.861  1.00  0.00    -0.304 OA
HETATM    4  O   UNL     1      25.703  49.916  44.776  1.00  0.00    -0.270 OA
HETATM    5  O   UNL     1      32.660  50.870  47.886  1.00  0.00    -0.270 OA
HETATM    6  O   UNL     1      27.298  47.580  46.495  1.00  0.00    -0.270 OA
HETATM    7  O   UNL     1      29.426  52.854  45.596  1.00  0.00    -0.263 OA
HETATM    8  O   UNL     1      28.613  47.745  43.094  1.00  0.00    -0.263 OA
HETATM    9  O   UNL     1      31.190  48.344  48.969  1.00  0.00    -0.263 OA
HETATM   10  N   UNL     1      26.722  49.783  42.696  1.00  0.00    -0.340 N 
HETATM   11  N   UNL     1      30.463  51.613  47.862  1.00  0.00    -0.340 N 
HETATM   12  N   UNL     1      29.110  46.210  46.968  1.00  0.00    -0.340 N 
HETATM   13  C   UNL     1      26.320  48.369  42.553  1.00  0.00     0.190 C 
HETATM   14  C   UNL     1      29.036  51.415  47.533  1.00  0.00     0.190 C 
HETATM   15  C   UNL     1      29.370  46.895  48.256  1.00  0.00     0.190 C 
HETATM   16  C   UNL     1      27.287  51.633  44.278  1.00  0.00     0.227 C 
HETATM   17  C   UNL     1      27.734  45.855  44.892  1.00  0.00     0.227 C 
HETATM   18  C   UNL     1      31.172  49.636  46.456  1.00  0.00     0.227 C 
HETATM   19  C   UNL     1      26.478  50.389  43.936  1.00  0.00     0.250 C 
HETATM   20  C   UNL     1      31.499  50.747  47.477  1.00  0.00     0.250 C 
HETATM   21  C   UNL     1      28.025  46.629  46.183  1.00  0.00     0.250 C 
HETATM   22  C   UNL     1      28.756  51.999  46.158  1.00  0.00     0.283 C 
HETATM   23  C   UNL     1      27.411  47.567  43.250  1.00  0.00     0.283 C 
HETATM   24  C   UNL     1      30.425  47.987  48.081  1.00  0.00     0.283 C 
HETATM   25  C   UNL     1      27.468  50.422  41.610  1.00  0.00     0.153 C 
HETATM   26  C   UNL     1      30.821  52.798  48.643  1.00  0.00     0.153 C 
HETATM   27  C   UNL     1      30.071  45.175  46.574  1.00  0.00     0.153 C 
ENDROOT
BRANCH  16  28
HETATM   28  C   UNL     1      26.431  52.881  44.161  1.00  0.00     0.016 C 
HETATM   29  C   UNL     1      25.035  52.530  43.650  1.00  0.00     0.012 C 
HETATM   30  C   UNL     1      27.095  53.906  43.243  1.00  0.00     0.012 C 
ENDBRANCH  16  28
BRANCH  14  31
HETATM   31  C   UNL     1      28.053  51.985  48.554  1.00  0.00     0.014 C 
HETATM   32  C   UNL     1      27.326  53.191  47.955  1.00  0.00     0.012 C 
BRANCH  31  33
HETATM   33  C   UNL     1      27.028  50.940  49.026  1.00  0.00     0.002 C 
HETATM   34  C   UNL     1      25.801  51.547  49.692  1.00  0.00     0.005 C 
ENDBRANCH  31  33
ENDBRANCH  14  31
BRANCH  13  35
HETATM   35  C   UNL     1      26.132  47.856  41.132  1.00  0.00     0.014 C 
HETATM   36  C   UNL     1      25.575  46.429  41.165  1.00  0.00     0.012 C 
BRANCH  35  37
HETATM   37  C   UNL     1      25.203  48.757  40.299  1.00  0.00     0.002 C 
HETATM   38  C   UNL     1      25.685  48.971  38.870  1.00  0.00     0.005 C 
ENDBRANCH  35  37
ENDBRANCH  13  35
BRANCH  18  39
HETATM   39  C   UNL     1      32.444  48.993  45.901  1.00  0.00     0.016 C 
HETATM   40  C   UNL     1      32.114  47.698  45.163  1.00  0.00     0.012 C 
HETATM   41  C   UNL     1      33.178  49.964  44.979  1.00  0.00     0.012 C 
ENDBRANCH  18  39
BRANCH  17  42
HETATM   42  C   UNL     1      27.016  44.552  45.213  1.00  0.00     0.016 C 
HETATM   43  C   UNL     1      27.363  43.476  44.184  1.00  0.00     0.012 C 
HETATM   44  C   UNL     1      25.504  44.768  45.271  1.00  0.00     0.012 C 
ENDBRANCH  17  42
BRANCH  15  45
HETATM   45  C   UNL     1      29.737  45.938  49.389  1.00  0.00     0.014 C 
HETATM   46  C   UNL     1      29.720  46.682  50.729  1.00  0.00     0.012 C 
BRANCH  45  47
HETATM   47  C   UNL     1      28.797  44.719  49.462  1.00  0.00     0.002 C 
HETATM   48  C   UNL     1      27.348  45.087  49.746  1.00  0.00     0.005 C 
ENDBRANCH  45  47
ENDBRANCH  15  45
TORSDOF 9
ENDMDL
MODEL 10
REMARK VINA RESULT:    -4.426     14.600     17.951
REMARK INTER + INTRA:          -6.479
REMARK INTER:                  -6.708
REMARK INTRA:                   0.229
REMARK UNBOUND:                 0.275
REMARK  9 active torsions:
REMARK  status: ('A' for Active; 'I' for Inactive)
REMARK    1  A    between atoms: C_13  and  C_16 
REMARK    2  A    between atoms: C_14  and  C_17 
REMARK    3  A    between atoms: C_15  and  C_18 
REMARK    4  A    between atoms: C_16  and  C_22 
REMARK    5  A    between atoms: C_17  and  C_23 
REMARK    6  A    between atoms: C_18  and  C_24 
REMARK    7  A    between atoms: C_19  and  C_25 
REMARK    8  A    between atoms: C_20  and  C_26 
REMARK    9  A    between atoms: C_21  and  C_27 
ROOT
HETATM    1  O   UNL     1      26.462  48.868  41.913  1.00  0.00    -0.304 OA
HETATM    2  O   UNL     1      27.400  49.597  46.848  1.00  0.00    -0.304 OA
HETATM    3  O   UNL     1      28.605  52.161  42.920  1.00  0.00    -0.304 OA
HETATM    4  O   UNL     1      25.517  48.160  44.221  1.00  0.00    -0.270 OA
HETATM    5  O   UNL     1      29.701  52.752  39.704  1.00  0.00    -0.270 OA
HETATM    6  O   UNL     1      26.417  51.239  45.038  1.00  0.00    -0.270 OA
HETATM    7  O   UNL     1      27.757  48.782  40.006  1.00  0.00    -0.263 OA
HETATM    8  O   UNL     1      29.204  48.941  45.565  1.00  0.00    -0.263 OA
HETATM    9  O   UNL     1      28.351  54.281  42.062  1.00  0.00    -0.263 OA
HETATM   10  N   UNL     1      27.445  46.947  44.664  1.00  0.00    -0.340 N 
HETATM   11  N   UNL     1      27.720  51.563  39.904  1.00  0.00    -0.340 N 
HETATM   12  N   UNL     1      27.956  52.944  45.368  1.00  0.00    -0.340 N 
HETATM   13  C   UNL     1      27.421  47.363  46.081  1.00  0.00     0.190 C 
HETATM   14  C   UNL     1      26.707  50.868  40.726  1.00  0.00     0.190 C 
HETATM   15  C   UNL     1      27.414  53.736  44.240  1.00  0.00     0.190 C 
HETATM   16  C   UNL     1      26.812  47.527  42.316  1.00  0.00     0.227 C 
HETATM   17  C   UNL     1      27.887  50.953  46.906  1.00  0.00     0.227 C 
HETATM   18  C   UNL     1      29.367  51.656  41.819  1.00  0.00     0.227 C 
HETATM   19  C   UNL     1      26.512  47.552  43.809  1.00  0.00     0.250 C 
HETATM   20  C   UNL     1      28.942  52.056  40.390  1.00  0.00     0.250 C 
HETATM   21  C   UNL     1      27.355  51.716  45.687  1.00  0.00     0.250 C 
HETATM   22  C   UNL     1      27.056  49.390  40.801  1.00  0.00     0.283 C 
HETATM   23  C   UNL     1      28.138  48.706  46.118  1.00  0.00     0.283 C 
HETATM   24  C   UNL     1      28.207  53.463  42.961  1.00  0.00     0.283 C 
HETATM   25  C   UNL     1      28.509  46.053  44.204  1.00  0.00     0.153 C 
HETATM   26  C   UNL     1      27.427  51.748  38.483  1.00  0.00     0.153 C 
HETATM   27  C   UNL     1      29.148  53.483  46.031  1.00  0.00     0.153 C 
ENDROOT
BRANCH  16  28
HETATM   28  C   UNL     1      25.928  46.518  41.607  1.00  0.00     0.016 C 
HETATM   29  C   UNL     1      24.464  46.717  41.995  1.00  0.00     0.012 C 
HETATM   30  C   UNL     1      26.376  45.092  41.923  1.00  0.00     0.012 C 
ENDBRANCH  16  28
BRANCH  14  31
HETATM   31  C   UNL     1      25.264  51.042  40.258  1.00  0.00     0.014 C 
HETATM   32  C   UNL     1      24.735  49.716  39.706  1.00  0.00     0.012 C 
BRANCH  31  33
HETATM   33  C   UNL     1      24.341  51.546  41.381  1.00  0.00     0.002 C 
HETATM   34  C   UNL     1      24.668  52.955  41.852  1.00  0.00     0.005 C 
ENDBRANCH  31  33
ENDBRANCH  14  31
BRANCH  13  35
HETATM   35  C   UNL     1      28.060  46.409  47.080  1.00  0.00     0.014 C 
HETATM   36  C   UNL     1      28.687  47.205  48.228  1.00  0.00     0.012 C 
BRANCH  35  37
HETATM   37  C   UNL     1      27.057  45.387  47.643  1.00  0.00     0.002 C 
HETATM   38  C   UNL     1      27.055  45.310  49.164  1.00  0.00     0.005 C 
ENDBRANCH  35  37
ENDBRANCH  13  35
BRANCH  18  39
HETATM   39  C   UNL     1      30.835  51.995  42.081  1.00  0.00     0.016 C 
HETATM   40  C   UNL     1      31.143  51.928  43.575  1.00  0.00     0.012 C 
HETATM   41  C   UNL     1      31.751  51.052  41.302  1.00  0.00     0.012 C 
ENDBRANCH  18  39
BRANCH  17  42
HETATM   42  C   UNL     1      27.344  51.568  48.188  1.00  0.00     0.016 C 
HETATM   43  C   UNL     1      27.588  50.641  49.378  1.00  0.00     0.012 C 
HETATM   44  C   UNL     1      25.854  51.878  48.049  1.00  0.00     0.012 C 
ENDBRANCH  17  42
BRANCH  15  45
HETATM   45  C   UNL     1      27.325  55.232  44.535  1.00  0.00     0.014 C 
HETATM   46  C   UNL     1      26.366  55.905  43.547  1.00  0.00     0.012 C 
BRANCH  45  47
HETATM   47  C   UNL     1      26.870  55.524  45.978  1.00  0.00     0.002 C 
HETATM   48  C   UNL     1      25.373  55.354  46.188  1.00  0.00     0.005 C 
ENDBRANCH  45  47
ENDBRANCH  15  45
TORSDOF 9
ENDMDL
MODEL 11
REMARK VINA RESULT:    -4.313      7.707     11.335
REMARK INTER + INTRA:          -6.308
REMARK INTER:                  -7.362
REMARK INTRA:                   1.054
REMARK UNBOUND:                 0.275
REMARK  9 active torsions:
REMARK  status: ('A' for Active; 'I' for Inactive)
REMARK    1  A    between atoms: C_13  and  C_16 
REMARK    2  A    between atoms: C_14  and  C_17 
REMARK    3  A    between atoms: C_15  and  C_18 
REMARK    4  A    between atoms: C_16  and  C_22 
REMARK    5  A    between atoms: C_17  and  C_23 
REMARK    6  A    between atoms: C_18  and  C_24 
REMARK    7  A    between atoms: C_19  and  C_25 
REMARK    8  A    between atoms: C_20  and  C_26 
REMARK    9  A    between atoms: C_21  and  C_27 
ROOT
HETATM    1  O   UNL     1      34.111  45.898  48.119  1.00  0.00    -0.304 OA
HETATM    2  O   UNL     1      29.357  45.858  46.338  1.00  0.00    -0.304 OA
HETATM    3  O   UNL     1      33.067  48.878  45.575  1.00  0.00    -0.304 OA
HETATM    4  O   UNL     1      32.153  44.234  47.773  1.00  0.00    -0.270 OA
HETATM    5  O   UNL     1      35.794  50.843  46.340  1.00  0.00    -0.270 OA
HETATM    6  O   UNL     1      31.655  46.072  45.066  1.00  0.00    -0.270 OA
HETATM    7  O   UNL     1      35.438  47.458  49.179  1.00  0.00    -0.263 OA
HETATM    8  O   UNL     1      29.838  47.494  47.894  1.00  0.00    -0.263 OA
HETATM    9  O   UNL     1      34.327  49.705  43.836  1.00  0.00    -0.263 OA
HETATM   10  N   UNL     1      30.892  45.349  49.369  1.00  0.00    -0.340 N 
HETATM   11  N   UNL     1      36.046  48.565  46.698  1.00  0.00    -0.340 N 
HETATM   12  N   UNL     1      31.150  48.040  43.945  1.00  0.00    -0.340 N 
HETATM   13  C   UNL     1      29.661  45.161  48.575  1.00  0.00     0.190 C 
HETATM   14  C   UNL     1      35.491  47.196  46.749  1.00  0.00     0.190 C 
HETATM   15  C   UNL     1      32.517  48.144  43.384  1.00  0.00     0.190 C 
HETATM   16  C   UNL     1      33.381  45.575  49.322  1.00  0.00     0.227 C 
HETATM   17  C   UNL     1      29.388  46.819  45.264  1.00  0.00     0.227 C 
HETATM   18  C   UNL     1      33.746  49.609  46.600  1.00  0.00     0.227 C 
HETATM   19  C   UNL     1      32.099  44.968  48.766  1.00  0.00     0.250 C 
HETATM   20  C   UNL     1      35.283  49.730  46.516  1.00  0.00     0.250 C 
HETATM   21  C   UNL     1      30.830  46.941  44.757  1.00  0.00     0.250 C 
HETATM   22  C   UNL     1      35.040  46.895  48.170  1.00  0.00     0.283 C 
HETATM   23  C   UNL     1      29.632  46.325  47.593  1.00  0.00     0.283 C 
HETATM   24  C   UNL     1      33.393  49.038  44.262  1.00  0.00     0.283 C 
HETATM   25  C   UNL     1      30.807  46.041  50.656  1.00  0.00     0.153 C 
HETATM   26  C   UNL     1      37.493  48.715  46.849  1.00  0.00     0.153 C 
HETATM   27  C   UNL     1      30.241  49.155  43.661  1.00  0.00     0.153 C 
ENDROOT
BRANCH  16  28
HETATM   28  C   UNL     1      34.147  44.554  50.144  1.00  0.00     0.016 C 
HETATM   29  C   UNL     1      33.360  43.250  50.253  1.00  0.00     0.012 C 
HETATM   30  C   UNL     1      34.462  45.107  51.533  1.00  0.00     0.012 C 
ENDBRANCH  16  28
BRANCH  14  31
HETATM   31  C   UNL     1      36.430  46.099  46.254  1.00  0.00     0.014 C 
HETATM   32  C   UNL     1      35.711  44.748  46.285  1.00  0.00     0.012 C 
BRANCH  31  33
HETATM   33  C   UNL     1      36.957  46.376  44.835  1.00  0.00     0.002 C 
HETATM   34  C   UNL     1      38.238  45.624  44.503  1.00  0.00     0.005 C 
ENDBRANCH  31  33
ENDBRANCH  14  31
BRANCH  13  35
HETATM   35  C   UNL     1      28.352  45.109  49.351  1.00  0.00     0.014 C 
HETATM   36  C   UNL     1      27.178  45.390  48.409  1.00  0.00     0.012 C 
BRANCH  35  37
HETATM   37  C   UNL     1      28.140  43.758  50.057  1.00  0.00     0.002 C 
HETATM   38  C   UNL     1      27.852  43.890  51.547  1.00  0.00     0.005 C 
ENDBRANCH  35  37
ENDBRANCH  13  35
BRANCH  18  39
HETATM   39  C   UNL     1      33.082  50.983  46.703  1.00  0.00     0.016 C 
HETATM   40  C   UNL     1      31.585  50.878  46.422  1.00  0.00     0.012 C 
HETATM   41  C   UNL     1      33.328  51.596  48.080  1.00  0.00     0.012 C 
ENDBRANCH  18  39
BRANCH  17  42
HETATM   42  C   UNL     1      28.489  46.283  44.159  1.00  0.00     0.016 C 
HETATM   43  C   UNL     1      27.145  47.012  44.155  1.00  0.00     0.012 C 
HETATM   44  C   UNL     1      28.279  44.777  44.317  1.00  0.00     0.012 C 
ENDBRANCH  17  42
BRANCH  15  45
HETATM   45  C   UNL     1      32.541  48.595  41.925  1.00  0.00     0.014 C 
HETATM   46  C   UNL     1      32.638  50.123  41.850  1.00  0.00     0.012 C 
BRANCH  45  47
HETATM   47  C   UNL     1      33.700  47.964  41.130  1.00  0.00     0.002 C 
HETATM   48  C   UNL     1      33.271  47.380  39.793  1.00  0.00     0.005 C 
ENDBRANCH  45  47
ENDBRANCH  15  45
TORSDOF 9
ENDMDL
MODEL 12
REMARK VINA RESULT:    -4.258      9.384     14.726
REMARK INTER + INTRA:          -6.223
REMARK INTER:                  -6.898
REMARK INTRA:                   0.675
REMARK UNBOUND:                 0.275
REMARK  9 active torsions:
REMARK  status: ('A' for Active; 'I' for Inactive)
REMARK    1  A    between atoms: C_13  and  C_16 
REMARK    2  A    between atoms: C_14  and  C_17 
REMARK    3  A    between atoms: C_15  and  C_18 
REMARK    4  A    between atoms: C_16  and  C_22 
REMARK    5  A    between atoms: C_17  and  C_23 
REMARK    6  A    between atoms: C_18  and  C_24 
REMARK    7  A    between atoms: C_19  and  C_25 
REMARK    8  A    between atoms: C_20  and  C_26 
REMARK    9  A    between atoms: C_21  and  C_27 
ROOT
HETATM    1  O   UNL     1      28.251  48.274  45.319  1.00  0.00    -0.304 OA
HETATM    2  O   UNL     1      31.679  49.073  41.661  1.00  0.00    -0.304 OA
HETATM    3  O   UNL     1      32.135  48.546  46.454  1.00  0.00    -0.304 OA
HETATM    4  O   UNL     1      28.497  47.979  42.755  1.00  0.00    -0.270 OA
HETATM    5  O   UNL     1      31.401  48.963  49.796  1.00  0.00    -0.270 OA
HETATM    6  O   UNL     1      31.623  47.273  43.583  1.00  0.00    -0.270 OA
HETATM    7  O   UNL     1      27.740  49.297  47.322  1.00  0.00    -0.263 OA
HETATM    8  O   UNL     1      31.253  50.865  43.053  1.00  0.00    -0.263 OA
HETATM    9  O   UNL     1      33.218  47.203  47.976  1.00  0.00    -0.263 OA
HETATM   10  N   UNL     1      28.568  50.282  42.474  1.00  0.00    -0.340 N 
HETATM   11  N   UNL     1      29.798  47.865  48.530  1.00  0.00    -0.340 N 
HETATM   12  N   UNL     1      33.710  47.770  44.467  1.00  0.00    -0.340 N 
HETATM   13  C   UNL     1      29.592  50.154  41.417  1.00  0.00     0.190 C 
HETATM   14  C   UNL     1      29.277  47.399  47.229  1.00  0.00     0.190 C 
HETATM   15  C   UNL     1      33.527  46.825  45.593  1.00  0.00     0.190 C 
HETATM   16  C   UNL     1      27.570  49.276  44.534  1.00  0.00     0.227 C 
HETATM   17  C   UNL     1      32.939  48.819  42.313  1.00  0.00     0.227 C 
HETATM   18  C   UNL     1      31.498  49.377  47.429  1.00  0.00     0.227 C 
HETATM   19  C   UNL     1      28.224  49.113  43.168  1.00  0.00     0.250 C 
HETATM   20  C   UNL     1      30.911  48.707  48.690  1.00  0.00     0.250 C 
HETATM   21  C   UNL     1      32.692  47.890  43.508  1.00  0.00     0.250 C 
HETATM   22  C   UNL     1      28.326  48.445  46.670  1.00  0.00     0.283 C 
HETATM   23  C   UNL     1      30.925  50.103  42.152  1.00  0.00     0.283 C 
HETATM   24  C   UNL     1      32.991  47.554  46.825  1.00  0.00     0.283 C 
HETATM   25  C   UNL     1      28.080  51.615  42.832  1.00  0.00     0.153 C 
HETATM   26  C   UNL     1      29.104  47.417  49.738  1.00  0.00     0.153 C 
HETATM   27  C   UNL     1      34.935  48.576  44.484  1.00  0.00     0.153 C 
ENDROOT
BRANCH  16  28
HETATM   28  C   UNL     1      26.086  48.968  44.460  1.00  0.00     0.016 C 
HETATM   29  C   UNL     1      25.286  49.970  45.290  1.00  0.00     0.012 C 
HETATM   30  C   UNL     1      25.808  47.541  44.930  1.00  0.00     0.012 C 
ENDBRANCH  16  28
BRANCH  14  31
HETATM   31  C   UNL     1      28.594  46.032  47.258  1.00  0.00     0.014 C 
HETATM   32  C   UNL     1      27.146  46.188  47.729  1.00  0.00     0.012 C 
BRANCH  31  33
HETATM   33  C   UNL     1      28.625  45.333  45.888  1.00  0.00     0.002 C 
HETATM   34  C   UNL     1      30.028  44.990  45.411  1.00  0.00     0.005 C 
ENDBRANCH  31  33
ENDBRANCH  14  31
BRANCH  13  35
HETATM   35  C   UNL     1      29.625  51.255  40.366  1.00  0.00     0.014 C 
HETATM   36  C   UNL     1      31.023  51.339  39.748  1.00  0.00     0.012 C 
BRANCH  35  37
HETATM   37  C   UNL     1      28.578  51.044  39.259  1.00  0.00     0.002 C 
HETATM   38  C   UNL     1      27.554  52.167  39.167  1.00  0.00     0.005 C 
ENDBRANCH  35  37
ENDBRANCH  13  35
BRANCH  18  39
HETATM   39  C   UNL     1      32.479  50.493  47.794  1.00  0.00     0.016 C 
HETATM   40  C   UNL     1      33.294  50.911  46.573  1.00  0.00     0.012 C 
HETATM   41  C   UNL     1      31.734  51.691  48.378  1.00  0.00     0.012 C 
ENDBRANCH  18  39
BRANCH  17  42
HETATM   42  C   UNL     1      33.839  48.134  41.294  1.00  0.00     0.016 C 
HETATM   43  C   UNL     1      34.939  49.083  40.821  1.00  0.00     0.012 C 
HETATM   44  C   UNL     1      33.022  47.629  40.105  1.00  0.00     0.012 C 
ENDBRANCH  17  42
BRANCH  15  45
HETATM   45  C   UNL     1      34.783  46.020  45.920  1.00  0.00     0.014 C 
HETATM   46  C   UNL     1      35.624  46.763  46.964  1.00  0.00     0.012 C 
BRANCH  45  47
HETATM   47  C   UNL     1      34.462  44.602  46.429  1.00  0.00     0.002 C 
HETATM   48  C   UNL     1      35.060  44.297  47.793  1.00  0.00     0.005 C 
ENDBRANCH  45  47
ENDBRANCH  15  45
TORSDOF 9
ENDMDL
MODEL 13
REMARK VINA RESULT:    -4.218      1.964      3.054
REMARK INTER + INTRA:          -6.163
REMARK INTER:                  -6.969
REMARK INTRA:                   0.807
REMARK UNBOUND:                 0.275
REMARK  9 active torsions:
REMARK  status: ('A' for Active; 'I' for Inactive)
REMARK    1  A    between atoms: C_13  and  C_16 
REMARK    2  A    between atoms: C_14  and  C_17 
REMARK    3  A    between atoms: C_15  and  C_18 
REMARK    4  A    between atoms: C_16  and  C_22 
REMARK    5  A    between atoms: C_17  and  C_23 
REMARK    6  A    between atoms: C_18  and  C_24 
REMARK    7  A    between atoms: C_19  and  C_25 
REMARK    8  A    between atoms: C_20  and  C_26 
REMARK    9  A    between atoms: C_21  and  C_27 
ROOT
HETATM    1  O   UNL     1      43.302  41.793  45.807  1.00  0.00    -0.304 OA
HETATM    2  O   UNL     1      39.518  44.381  47.988  1.00  0.00    -0.304 OA
HETATM    3  O   UNL     1      42.139  45.235  44.005  1.00  0.00    -0.304 OA
HETATM    4  O   UNL     1      41.331  41.392  47.442  1.00  0.00    -0.270 OA
HETATM    5  O   UNL     1      44.945  45.449  42.014  1.00  0.00    -0.270 OA
HETATM    6  O   UNL     1      39.841  43.610  45.489  1.00  0.00    -0.270 OA
HETATM    7  O   UNL     1      45.438  42.313  45.107  1.00  0.00    -0.263 OA
HETATM    8  O   UNL     1      41.622  45.313  48.182  1.00  0.00    -0.263 OA
HETATM    9  O   UNL     1      41.842  45.572  41.748  1.00  0.00    -0.263 OA
HETATM   10  N   UNL     1      42.348  42.739  49.035  1.00  0.00    -0.340 N 
HETATM   11  N   UNL     1      44.372  43.323  42.742  1.00  0.00    -0.340 N 
HETATM   12  N   UNL     1      39.584  45.709  44.534  1.00  0.00    -0.340 N 
HETATM   13  C   UNL     1      41.044  43.305  49.436  1.00  0.00     0.190 C 
HETATM   14  C   UNL     1      43.542  42.420  43.567  1.00  0.00     0.190 C 
HETATM   15  C   UNL     1      39.912  45.202  43.181  1.00  0.00     0.190 C 
HETATM   16  C   UNL     1      43.687  41.703  47.196  1.00  0.00     0.227 C 
HETATM   17  C   UNL     1      39.143  45.345  46.985  1.00  0.00     0.227 C 
HETATM   18  C   UNL     1      43.563  45.373  43.981  1.00  0.00     0.227 C 
HETATM   19  C   UNL     1      42.357  41.901  47.910  1.00  0.00     0.250 C 
HETATM   20  C   UNL     1      44.341  44.725  42.814  1.00  0.00     0.250 C 
HETATM   21  C   UNL     1      39.558  44.808  45.610  1.00  0.00     0.250 C 
HETATM   22  C   UNL     1      44.241  42.177  44.895  1.00  0.00     0.283 C 
HETATM   23  C   UNL     1      40.794  44.460  48.475  1.00  0.00     0.283 C 
HETATM   24  C   UNL     1      41.396  45.403  42.876  1.00  0.00     0.283 C 
HETATM   25  C   UNL     1      43.559  43.183  49.728  1.00  0.00     0.153 C 
HETATM   26  C   UNL     1      45.291  42.711  41.783  1.00  0.00     0.153 C 
HETATM   27  C   UNL     1      39.381  47.156  44.657  1.00  0.00     0.153 C 
ENDROOT
BRANCH  16  28
HETATM   28  C   UNL     1      44.258  40.328  47.494  1.00  0.00     0.016 C 
HETATM   29  C   UNL     1      43.382  39.588  48.503  1.00  0.00     0.012 C 
HETATM   30  C   UNL     1      45.691  40.441  48.011  1.00  0.00     0.012 C 
ENDBRANCH  16  28
BRANCH  14  31
HETATM   31  C   UNL     1      43.188  41.088  42.910  1.00  0.00     0.014 C 
HETATM   32  C   UNL     1      43.414  39.945  43.903  1.00  0.00     0.012 C 
BRANCH  31  33
HETATM   33  C   UNL     1      41.737  41.055  42.398  1.00  0.00     0.002 C 
HETATM   34  C   UNL     1      41.306  39.692  41.876  1.00  0.00     0.005 C 
ENDBRANCH  31  33
ENDBRANCH  14  31
BRANCH  13  35
HETATM   35  C   UNL     1      40.929  43.796  50.873  1.00  0.00     0.014 C 
HETATM   36  C   UNL     1      39.781  44.803  50.986  1.00  0.00     0.012 C 
BRANCH  35  37
HETATM   37  C   UNL     1      40.714  42.646  51.872  1.00  0.00     0.002 C 
HETATM   38  C   UNL     1      41.110  42.999  53.300  1.00  0.00     0.005 C 
ENDBRANCH  35  37
ENDBRANCH  13  35
BRANCH  18  39
HETATM   39  C   UNL     1      43.884  46.863  44.108  1.00  0.00     0.016 C 
HETATM   40  C   UNL     1      42.865  47.557  45.008  1.00  0.00     0.012 C 
HETATM   41  C   UNL     1      45.299  47.062  44.646  1.00  0.00     0.012 C 
ENDBRANCH  18  39
BRANCH  17  42
HETATM   42  C   UNL     1      37.630  45.496  47.054  1.00  0.00     0.016 C 
HETATM   43  C   UNL     1      37.247  46.748  47.842  1.00  0.00     0.012 C 
HETATM   44  C   UNL     1      36.992  44.255  47.679  1.00  0.00     0.012 C 
ENDBRANCH  17  42
BRANCH  15  45
HETATM   45  C   UNL     1      39.029  45.790  42.082  1.00  0.00     0.014 C 
HETATM   46  C   UNL     1      38.465  44.667  41.205  1.00  0.00     0.012 C 
BRANCH  45  47
HETATM   47  C   UNL     1      37.872  46.639  42.643  1.00  0.00     0.002 C 
HETATM   48  C   UNL     1      37.315  47.641  41.643  1.00  0.00     0.005 C 
ENDBRANCH  45  47
ENDBRANCH  15  45
TORSDOF 9
ENDMDL
MODEL 14
REMARK VINA RESULT:    -4.176      7.369     13.260
REMARK INTER + INTRA:          -6.098
REMARK INTER:                  -7.224
REMARK INTRA:                   1.126
REMARK UNBOUND:                 0.275
REMARK  9 active torsions:
REMARK  status: ('A' for Active; 'I' for Inactive)
REMARK    1  A    between atoms: C_13  and  C_16 
REMARK    2  A    between atoms: C_14  and  C_17 
REMARK    3  A    between atoms: C_15  and  C_18 
REMARK    4  A    between atoms: C_16  and  C_22 
REMARK    5  A    between atoms: C_17  and  C_23 
REMARK    6  A    between atoms: C_18  and  C_24 
REMARK    7  A    between atoms: C_19  and  C_25 
REMARK    8  A    between atoms: C_20  and  C_26 
REMARK    9  A    between atoms: C_21  and  C_27 
ROOT
HETATM    1  O   UNL     1      30.198  46.900  47.105  1.00  0.00    -0.304 OA
HETATM    2  O   UNL     1      35.075  46.133  45.925  1.00  0.00    -0.304 OA
HETATM    3  O   UNL     1      32.794  46.439  50.186  1.00  0.00    -0.304 OA
HETATM    4  O   UNL     1      31.633  46.069  45.112  1.00  0.00    -0.270 OA
HETATM    5  O   UNL     1      30.604  47.654  52.556  1.00  0.00    -0.270 OA
HETATM    6  O   UNL     1      33.482  44.802  47.547  1.00  0.00    -0.270 OA
HETATM    7  O   UNL     1      29.066  48.380  48.465  1.00  0.00    -0.263 OA
HETATM    8  O   UNL     1      34.563  48.207  46.800  1.00  0.00    -0.263 OA
HETATM    9  O   UNL     1      32.458  45.192  52.091  1.00  0.00    -0.263 OA
HETATM   10  N   UNL     1      32.540  48.189  44.852  1.00  0.00    -0.340 N 
HETATM   11  N   UNL     1      29.644  46.753  50.648  1.00  0.00    -0.340 N 
HETATM   12  N   UNL     1      34.843  44.941  49.421  1.00  0.00    -0.340 N 
HETATM   13  C   UNL     1      33.866  47.618  44.540  1.00  0.00     0.190 C 
HETATM   14  C   UNL     1      29.759  46.186  49.288  1.00  0.00     0.190 C 
HETATM   15  C   UNL     1      33.824  44.302  50.285  1.00  0.00     0.190 C 
HETATM   16  C   UNL     1      30.368  47.868  46.047  1.00  0.00     0.227 C 
HETATM   17  C   UNL     1      35.665  45.712  47.171  1.00  0.00     0.227 C 
HETATM   18  C   UNL     1      32.035  47.571  50.625  1.00  0.00     0.227 C 
HETATM   19  C   UNL     1      31.547  47.292  45.274  1.00  0.00     0.250 C 
HETATM   20  C   UNL     1      30.707  47.316  51.371  1.00  0.00     0.250 C 
HETATM   21  C   UNL     1      34.564  45.117  48.057  1.00  0.00     0.250 C 
HETATM   22  C   UNL     1      29.610  47.303  48.268  1.00  0.00     0.283 C 
HETATM   23  C   UNL     1      34.534  47.389  45.890  1.00  0.00     0.283 C 
HETATM   24  C   UNL     1      32.981  45.360  50.996  1.00  0.00     0.283 C 
HETATM   25  C   UNL     1      32.374  49.643  44.845  1.00  0.00     0.153 C 
HETATM   26  C   UNL     1      28.326  46.726  51.283  1.00  0.00     0.153 C 
HETATM   27  C   UNL     1      36.059  45.416  50.088  1.00  0.00     0.153 C 
ENDROOT
BRANCH  16  28
HETATM   28  C   UNL     1      29.127  47.918  45.176  1.00  0.00     0.016 C 
HETATM   29  C   UNL     1      28.725  46.514  44.728  1.00  0.00     0.012 C 
HETATM   30  C   UNL     1      29.354  48.821  43.965  1.00  0.00     0.012 C 
ENDBRANCH  16  28
BRANCH  14  31
HETATM   31  C   UNL     1      28.779  45.056  48.974  1.00  0.00     0.014 C 
HETATM   32  C   UNL     1      28.885  43.968  50.045  1.00  0.00     0.012 C 
BRANCH  31  33
HETATM   33  C   UNL     1      27.326  45.552  48.875  1.00  0.00     0.002 C 
HETATM   34  C   UNL     1      26.711  45.362  47.496  1.00  0.00     0.005 C 
ENDBRANCH  31  33
ENDBRANCH  14  31
BRANCH  13  35
HETATM   35  C   UNL     1      34.775  48.456  43.652  1.00  0.00     0.014 C 
HETATM   36  C   UNL     1      36.230  48.014  43.834  1.00  0.00     0.012 C 
BRANCH  35  37
HETATM   37  C   UNL     1      34.387  48.370  42.165  1.00  0.00     0.002 C 
HETATM   38  C   UNL     1      35.585  48.353  41.224  1.00  0.00     0.005 C 
ENDBRANCH  35  37
ENDBRANCH  13  35
BRANCH  18  39
HETATM   39  C   UNL     1      32.971  48.466  51.439  1.00  0.00     0.016 C 
HETATM   40  C   UNL     1      34.380  48.445  50.850  1.00  0.00     0.012 C 
HETATM   41  C   UNL     1      32.433  49.894  51.494  1.00  0.00     0.012 C 
ENDBRANCH  18  39
BRANCH  17  42
HETATM   42  C   UNL     1      36.701  44.649  46.837  1.00  0.00     0.016 C 
HETATM   43  C   UNL     1      38.099  45.262  46.762  1.00  0.00     0.012 C 
HETATM   44  C   UNL     1      36.354  43.949  45.523  1.00  0.00     0.012 C 
ENDBRANCH  17  42
BRANCH  15  45
HETATM   45  C   UNL     1      34.410  43.296  51.274  1.00  0.00     0.014 C 
HETATM   46  C   UNL     1      33.289  42.452  51.890  1.00  0.00     0.012 C 
BRANCH  45  47
HETATM   47  C   UNL     1      35.458  42.371  50.625  1.00  0.00     0.002 C 
HETATM   48  C   UNL     1      35.953  41.272  51.553  1.00  0.00     0.005 C 
ENDBRANCH  45  47
ENDBRANCH  15  45
TORSDOF 9
ENDMDL
MODEL 15
REMARK VINA RESULT:    -3.855     11.118     16.568
REMARK INTER + INTRA:          -5.608
REMARK INTER:                  -6.899
REMARK INTRA:                   1.290
REMARK UNBOUND:                 0.275
REMARK  9 active torsions:
REMARK  status: ('A' for Active; 'I' for Inactive)
REMARK    1  A    between atoms: C_13  and  C_16 
REMARK    2  A    between atoms: C_14  and  C_17 
REMARK    3  A    between atoms: C_15  and  C_18 
REMARK    4  A    between atoms: C_16  and  C_22 
REMARK    5  A    between atoms: C_17  and  C_23 
REMARK    6  A    between atoms: C_18  and  C_24 
REMARK    7  A    between atoms: C_19  and  C_25 
REMARK    8  A    between atoms: C_20  and  C_26 
REMARK    9  A    between atoms: C_21  and  C_27 
ROOT
HETATM    1  O   UNL     1      27.361  48.474  41.709  1.00  0.00    -0.304 OA
HETATM    2  O   UNL     1      31.345  51.592  41.298  1.00  0.00    -0.304 OA
HETATM    3  O   UNL     1      29.690  48.939  44.997  1.00  0.00    -0.304 OA
HETATM    4  O   UNL     1      28.877  49.498  39.872  1.00  0.00    -0.270 OA
HETATM    5  O   UNL     1      27.382  47.550  47.150  1.00  0.00    -0.270 OA
HETATM    6  O   UNL     1      31.198  49.122  42.201  1.00  0.00    -0.270 OA
HETATM    7  O   UNL     1      25.583  48.288  43.167  1.00  0.00    -0.263 OA
HETATM    8  O   UNL     1      29.580  52.373  42.564  1.00  0.00    -0.263 OA
HETATM    9  O   UNL     1      30.401  47.279  46.422  1.00  0.00    -0.263 OA
HETATM   10  N   UNL     1      28.048  51.615  40.336  1.00  0.00    -0.340 N 
HETATM   11  N   UNL     1      27.228  46.897  44.930  1.00  0.00    -0.340 N 
HETATM   12  N   UNL     1      32.167  49.541  44.267  1.00  0.00    -0.340 N 
HETATM   13  C   UNL     1      29.383  52.216  40.141  1.00  0.00     0.190 C 
HETATM   14  C   UNL     1      27.641  47.016  43.516  1.00  0.00     0.190 C 
HETATM   15  C   UNL     1      31.917  48.157  44.734  1.00  0.00     0.190 C 
HETATM   16  C   UNL     1      26.764  49.571  40.985  1.00  0.00     0.227 C 
HETATM   17  C   UNL     1      32.119  51.314  42.482  1.00  0.00     0.227 C 
HETATM   18  C   UNL     1      28.380  49.056  45.561  1.00  0.00     0.227 C 
HETATM   19  C   UNL     1      27.975  50.215  40.323  1.00  0.00     0.250 C 
HETATM   20  C   UNL     1      27.636  47.762  45.958  1.00  0.00     0.250 C 
HETATM   21  C   UNL     1      31.781  49.899  42.966  1.00  0.00     0.250 C 
HETATM   22  C   UNL     1      26.712  47.989  42.806  1.00  0.00     0.283 C 
HETATM   23  C   UNL     1      30.084  52.087  41.486  1.00  0.00     0.283 C 
HETATM   24  C   UNL     1      30.610  48.084  45.524  1.00  0.00     0.283 C 
HETATM   25  C   UNL     1      26.919  52.486  40.670  1.00  0.00     0.153 C 
HETATM   26  C   UNL     1      26.328  45.798  45.281  1.00  0.00     0.153 C 
HETATM   27  C   UNL     1      32.743  50.466  45.248  1.00  0.00     0.153 C 
ENDROOT
BRANCH  16  28
HETATM   28  C   UNL     1      25.796  49.046  39.940  1.00  0.00     0.016 C 
HETATM   29  C   UNL     1      26.527  48.735  38.636  1.00  0.00     0.012 C 
HETATM   30  C   UNL     1      24.670  50.049  39.696  1.00  0.00     0.012 C 
ENDBRANCH  16  28
BRANCH  14  31
HETATM   31  C   UNL     1      27.705  45.698  42.747  1.00  0.00     0.014 C 
HETATM   32  C   UNL     1      28.684  44.744  43.437  1.00  0.00     0.012 C 
BRANCH  31  33
HETATM   33  C   UNL     1      26.326  45.028  42.619  1.00  0.00     0.002 C 
HETATM   34  C   UNL     1      26.329  43.793  41.729  1.00  0.00     0.005 C 
ENDBRANCH  31  33
ENDBRANCH  14  31
BRANCH  13  35
HETATM   35  C   UNL     1      29.414  53.667  39.681  1.00  0.00     0.014 C 
HETATM   36  C   UNL     1      30.757  54.301  40.055  1.00  0.00     0.012 C 
BRANCH  35  37
HETATM   37  C   UNL     1      29.175  53.810  38.167  1.00  0.00     0.002 C 
HETATM   38  C   UNL     1      27.985  54.695  37.820  1.00  0.00     0.005 C 
ENDBRANCH  35  37
ENDBRANCH  13  35
BRANCH  18  39
HETATM   39  C   UNL     1      28.470  50.031  46.736  1.00  0.00     0.016 C 
HETATM   40  C   UNL     1      29.524  51.103  46.465  1.00  0.00     0.012 C 
HETATM   41  C   UNL     1      27.110  50.672  47.007  1.00  0.00     0.012 C 
ENDBRANCH  18  39
BRANCH  17  42
HETATM   42  C   UNL     1      33.586  51.396  42.086  1.00  0.00     0.016 C 
HETATM   43  C   UNL     1      34.189  52.732  42.518  1.00  0.00     0.012 C 
HETATM   44  C   UNL     1      33.751  51.197  40.580  1.00  0.00     0.012 C 
ENDBRANCH  17  42
BRANCH  15  45
HETATM   45  C   UNL     1      33.082  47.563  45.524  1.00  0.00     0.014 C 
HETATM   46  C   UNL     1      32.757  46.122  45.933  1.00  0.00     0.012 C 
BRANCH  45  47
HETATM   47  C   UNL     1      34.406  47.592  44.737  1.00  0.00     0.002 C 
HETATM   48  C   UNL     1      35.637  47.424  45.615  1.00  0.00     0.005 C 
ENDBRANCH  45  47
ENDBRANCH  15  45
TORSDOF 9
ENDMDL
MODEL 16
REMARK VINA RESULT:    -3.804      8.853     14.053
REMARK INTER + INTRA:          -5.531
REMARK INTER:                  -6.101
REMARK INTRA:                   0.571
REMARK UNBOUND:                 0.275
REMARK  9 active torsions:
REMARK  status: ('A' for Active; 'I' for Inactive)
REMARK    1  A    between atoms: C_13  and  C_16 
REMARK    2  A    between atoms: C_14  and  C_17 
REMARK    3  A    between atoms: C_15  and  C_18 
REMARK    4  A    between atoms: C_16  and  C_22 
REMARK    5  A    between atoms: C_17  and  C_23 
REMARK    6  A    between atoms: C_18  and  C_24 
REMARK    7  A    between atoms: C_19  and  C_25 
REMARK    8  A    between atoms: C_20  and  C_26 
REMARK    9  A    between atoms: C_21  and  C_27 
ROOT
HETATM    1  O   UNL     1      31.889  49.252  46.302  1.00  0.00    -0.304 OA
HETATM    2  O   UNL     1      28.235  46.583  48.602  1.00  0.00    -0.304 OA
HETATM    3  O   UNL     1      33.058  46.492  49.034  1.00  0.00    -0.304 OA
HETATM    4  O   UNL     1      29.354  49.424  46.816  1.00  0.00    -0.270 OA
HETATM    5  O   UNL     1      36.355  46.508  48.026  1.00  0.00    -0.270 OA
HETATM    6  O   UNL     1      30.271  47.913  49.614  1.00  0.00    -0.270 OA
HETATM    7  O   UNL     1      33.813  48.718  45.147  1.00  0.00    -0.263 OA
HETATM    8  O   UNL     1      29.499  45.433  47.050  1.00  0.00    -0.263 OA
HETATM    9  O   UNL     1      34.681  46.755  50.643  1.00  0.00    -0.263 OA
HETATM   10  N   UNL     1      28.922  47.634  45.405  1.00  0.00    -0.340 N 
HETATM   11  N   UNL     1      35.142  48.433  47.575  1.00  0.00    -0.340 N 
HETATM   12  N   UNL     1      31.149  46.151  50.842  1.00  0.00    -0.340 N 
HETATM   13  C   UNL     1      27.891  47.114  46.325  1.00  0.00     0.190 C 
HETATM   14  C   UNL     1      33.867  49.179  47.546  1.00  0.00     0.190 C 
HETATM   15  C   UNL     1      32.333  46.943  51.249  1.00  0.00     0.190 C 
HETATM   16  C   UNL     1      31.030  48.959  45.179  1.00  0.00     0.227 C 
HETATM   17  C   UNL     1      28.920  45.937  49.693  1.00  0.00     0.227 C 
HETATM   18  C   UNL     1      33.967  46.228  47.961  1.00  0.00     0.227 C 
HETATM   19  C   UNL     1      29.687  48.719  45.856  1.00  0.00     0.250 C 
HETATM   20  C   UNL     1      35.262  47.066  47.875  1.00  0.00     0.250 C 
HETATM   21  C   UNL     1      30.170  46.755  50.039  1.00  0.00     0.250 C 
HETATM   22  C   UNL     1      33.227  49.017  46.177  1.00  0.00     0.283 C 
HETATM   23  C   UNL     1      28.647  46.263  47.338  1.00  0.00     0.283 C 
HETATM   24  C   UNL     1      33.507  46.681  50.306  1.00  0.00     0.283 C 
HETATM   25  C   UNL     1      29.185  46.917  44.156  1.00  0.00     0.153 C 
HETATM   26  C   UNL     1      36.367  49.172  47.268  1.00  0.00     0.153 C 
HETATM   27  C   UNL     1      31.130  44.745  51.258  1.00  0.00     0.153 C 
ENDROOT
BRANCH  16  28
HETATM   28  C   UNL     1      30.956  50.154  44.247  1.00  0.00     0.016 C 
HETATM   29  C   UNL     1      29.526  50.685  44.163  1.00  0.00     0.012 C 
HETATM   30  C   UNL     1      31.473  49.788  42.857  1.00  0.00     0.012 C 
ENDBRANCH  16  28
BRANCH  14  31
HETATM   31  C   UNL     1      33.977  50.661  47.901  1.00  0.00     0.014 C 
HETATM   32  C   UNL     1      33.725  51.511  46.654  1.00  0.00     0.012 C 
BRANCH  31  33
HETATM   33  C   UNL     1      33.001  51.069  49.018  1.00  0.00     0.002 C 
HETATM   34  C   UNL     1      33.570  52.106  49.975  1.00  0.00     0.005 C 
ENDBRANCH  31  33
ENDBRANCH  14  31
BRANCH  13  35
HETATM   35  C   UNL     1      26.770  46.296  45.699  1.00  0.00     0.014 C 
HETATM   36  C   UNL     1      26.110  45.419  46.767  1.00  0.00     0.012 C 
BRANCH  35  37
HETATM   37  C   UNL     1      25.707  47.177  45.020  1.00  0.00     0.002 C 
HETATM   38  C   UNL     1      25.526  46.877  43.538  1.00  0.00     0.005 C 
ENDBRANCH  35  37
ENDBRANCH  13  35
BRANCH  18  39
HETATM   39  C   UNL     1      34.271  44.729  47.973  1.00  0.00     0.016 C 
HETATM   40  C   UNL     1      33.034  43.934  48.383  1.00  0.00     0.012 C 
HETATM   41  C   UNL     1      34.774  44.273  46.604  1.00  0.00     0.012 C 
ENDBRANCH  18  39
BRANCH  17  42
HETATM   42  C   UNL     1      27.961  45.921  50.875  1.00  0.00     0.016 C 
HETATM   43  C   UNL     1      27.102  44.658  50.857  1.00  0.00     0.012 C 
HETATM   44  C   UNL     1      27.078  47.169  50.872  1.00  0.00     0.012 C 
ENDBRANCH  17  42
BRANCH  15  45
HETATM   45  C   UNL     1      32.730  46.733  52.709  1.00  0.00     0.014 C 
HETATM   46  C   UNL     1      31.553  47.077  53.628  1.00  0.00     0.012 C 
BRANCH  45  47
HETATM   47  C   UNL     1      33.205  45.295  52.992  1.00  0.00     0.002 C 
HETATM   48  C   UNL     1      33.114  44.904  54.460  1.00  0.00     0.005 C 
ENDBRANCH  45  47
ENDBRANCH  15  45
TORSDOF 9
ENDMDL
MODEL 17
REMARK VINA RESULT:    -3.718     14.222     18.498
REMARK INTER + INTRA:          -5.398
REMARK INTER:                  -5.497
REMARK INTRA:                   0.099
REMARK UNBOUND:                 0.275
REMARK  9 active torsions:
REMARK  status: ('A' for Active; 'I' for Inactive)
REMARK    1  A    between atoms: C_13  and  C_16 
REMARK    2  A    between atoms: C_14  and  C_17 
REMARK    3  A    between atoms: C_15  and  C_18 
REMARK    4  A    between atoms: C_16  and  C_22 
REMARK    5  A    between atoms: C_17  and  C_23 
REMARK    6  A    between atoms: C_18  and  C_24 
REMARK    7  A    between atoms: C_19  and  C_25 
REMARK    8  A    between atoms: C_20  and  C_26 
REMARK    9  A    between atoms: C_21  and  C_27 
ROOT
HETATM    1  O   UNL     1      27.697  45.367  52.946  1.00  0.00    -0.304 OA
HETATM    2  O   UNL     1      23.308  47.858  53.495  1.00  0.00    -0.304 OA
HETATM    3  O   UNL     1      27.878  49.416  53.103  1.00  0.00    -0.304 OA
HETATM    4  O   UNL     1      25.161  44.993  52.561  1.00  0.00    -0.270 OA
HETATM    5  O   UNL     1      31.280  49.504  53.655  1.00  0.00    -0.270 OA
HETATM    6  O   UNL     1      25.261  48.203  51.760  1.00  0.00    -0.270 OA
HETATM    7  O   UNL     1      29.722  45.375  54.051  1.00  0.00    -0.263 OA
HETATM    8  O   UNL     1      24.689  47.827  55.345  1.00  0.00    -0.263 OA
HETATM    9  O   UNL     1      29.156  50.787  51.768  1.00  0.00    -0.263 OA
HETATM   10  N   UNL     1      24.779  45.065  54.848  1.00  0.00    -0.340 N 
HETATM   11  N   UNL     1      30.470  47.615  52.580  1.00  0.00    -0.340 N 
HETATM   12  N   UNL     1      25.609  50.454  52.204  1.00  0.00    -0.340 N 
HETATM   13  C   UNL     1      23.518  45.807  54.648  1.00  0.00     0.190 C 
HETATM   14  C   UNL     1      29.347  46.788  52.093  1.00  0.00     0.190 C 
HETATM   15  C   UNL     1      26.784  50.513  51.303  1.00  0.00     0.190 C 
HETATM   16  C   UNL     1      27.055  44.551  53.949  1.00  0.00     0.227 C 
HETATM   17  C   UNL     1      23.657  49.228  53.212  1.00  0.00     0.227 C 
HETATM   18  C   UNL     1      28.941  49.053  53.989  1.00  0.00     0.227 C 
HETATM   19  C   UNL     1      25.581  44.859  53.716  1.00  0.00     0.250 C 
HETATM   20  C   UNL     1      30.331  48.759  53.383  1.00  0.00     0.250 C 
HETATM   21  C   UNL     1      24.912  49.243  52.332  1.00  0.00     0.250 C 
HETATM   22  C   UNL     1      28.985  45.764  53.157  1.00  0.00     0.283 C 
HETATM   23  C   UNL     1      23.921  47.273  54.568  1.00  0.00     0.283 C 
HETATM   24  C   UNL     1      28.078  50.305  52.091  1.00  0.00     0.283 C 
HETATM   25  C   UNL     1      25.189  44.716  56.210  1.00  0.00     0.153 C 
HETATM   26  C   UNL     1      31.824  47.212  52.199  1.00  0.00     0.153 C 
HETATM   27  C   UNL     1      25.306  51.672  52.962  1.00  0.00     0.153 C 
ENDROOT
BRANCH  16  28
HETATM   28  C   UNL     1      27.344  43.083  53.696  1.00  0.00     0.016 C 
HETATM   29  C   UNL     1      26.073  42.349  53.274  1.00  0.00     0.012 C 
HETATM   30  C   UNL     1      27.951  42.432  54.937  1.00  0.00     0.012 C 
ENDBRANCH  16  28
BRANCH  14  31
HETATM   31  C   UNL     1      29.590  46.090  50.756  1.00  0.00     0.014 C 
HETATM   32  C   UNL     1      29.756  44.585  50.981  1.00  0.00     0.012 C 
BRANCH  31  33
HETATM   33  C   UNL     1      28.457  46.346  49.748  1.00  0.00     0.002 C 
HETATM   34  C   UNL     1      27.605  45.116  49.465  1.00  0.00     0.005 C 
ENDBRANCH  31  33
ENDBRANCH  14  31
BRANCH  13  35
HETATM   35  C   UNL     1      22.445  45.625  55.713  1.00  0.00     0.014 C 
HETATM   36  C   UNL     1      21.477  46.810  55.681  1.00  0.00     0.012 C 
BRANCH  35  37
HETATM   37  C   UNL     1      21.664  44.310  55.542  1.00  0.00     0.002 C 
HETATM   38  C   UNL     1      20.602  44.090  56.611  1.00  0.00     0.005 C 
ENDBRANCH  35  37
ENDBRANCH  13  35
BRANCH  18  39
HETATM   39  C   UNL     1      29.021  50.125  55.077  1.00  0.00     0.016 C 
HETATM   40  C   UNL     1      27.626  50.632  55.434  1.00  0.00     0.012 C 
HETATM   41  C   UNL     1      29.727  49.579  56.317  1.00  0.00     0.012 C 
ENDBRANCH  18  39
BRANCH  17  42
HETATM   42  C   UNL     1      22.483  49.841  52.461  1.00  0.00     0.016 C 
HETATM   43  C   UNL     1      21.709  50.804  53.361  1.00  0.00     0.012 C 
HETATM   44  C   UNL     1      21.557  48.751  51.924  1.00  0.00     0.012 C 
ENDBRANCH  17  42
BRANCH  15  45
HETATM   45  C   UNL     1      26.840  51.786  50.461  1.00  0.00     0.014 C 
HETATM   46  C   UNL     1      27.919  51.653  49.380  1.00  0.00     0.012 C 
BRANCH  45  47
HETATM   47  C   UNL     1      25.487  52.120  49.803  1.00  0.00     0.002 C 
HETATM   48  C   UNL     1      25.147  53.602  49.837  1.00  0.00     0.005 C 
ENDBRANCH  45  47
ENDBRANCH  15  45
TORSDOF 9
ENDMDL
MODEL 18
REMARK VINA RESULT:    -3.693     13.547     18.328
REMARK INTER + INTRA:          -5.360
REMARK INTER:                  -6.121
REMARK INTRA:                   0.760
REMARK UNBOUND:                 0.275
REMARK  9 active torsions:
REMARK  status: ('A' for Active; 'I' for Inactive)
REMARK    1  A    between atoms: C_13  and  C_16 
REMARK    2  A    between atoms: C_14  and  C_17 
REMARK    3  A    between atoms: C_15  and  C_18 
REMARK    4  A    between atoms: C_16  and  C_22 
REMARK    5  A    between atoms: C_17  and  C_23 
REMARK    6  A    between atoms: C_18  and  C_24 
REMARK    7  A    between atoms: C_19  and  C_25 
REMARK    8  A    between atoms: C_20  and  C_26 
REMARK    9  A    between atoms: C_21  and  C_27 
ROOT
HETATM    1  O   UNL     1      29.467  51.077  45.112  1.00  0.00    -0.304 OA
HETATM    2  O   UNL     1      26.913  48.370  41.660  1.00  0.00    -0.304 OA
HETATM    3  O   UNL     1      26.127  52.762  43.546  1.00  0.00    -0.304 OA
HETATM    4  O   UNL     1      29.866  49.121  43.457  1.00  0.00    -0.270 OA
HETATM    5  O   UNL     1      25.904  55.202  45.971  1.00  0.00    -0.270 OA
HETATM    6  O   UNL     1      27.763  50.863  41.586  1.00  0.00    -0.270 OA
HETATM    7  O   UNL     1      28.911  52.142  47.081  1.00  0.00    -0.263 OA
HETATM    8  O   UNL     1      25.914  48.561  43.732  1.00  0.00    -0.263 OA
HETATM    9  O   UNL     1      25.880  54.946  42.865  1.00  0.00    -0.263 OA
HETATM   10  N   UNL     1      28.434  47.765  44.679  1.00  0.00    -0.340 N 
HETATM   11  N   UNL     1      28.018  54.323  45.601  1.00  0.00    -0.340 N 
HETATM   12  N   UNL     1      25.708  51.825  41.101  1.00  0.00    -0.340 N 
HETATM   13  C   UNL     1      27.891  47.167  43.443  1.00  0.00     0.190 C 
HETATM   14  C   UNL     1      28.914  53.343  44.952  1.00  0.00     0.190 C 
HETATM   15  C   UNL     1      26.254  53.197  41.215  1.00  0.00     0.190 C 
HETATM   16  C   UNL     1      29.497  49.770  45.727  1.00  0.00     0.227 C 
HETATM   17  C   UNL     1      25.996  49.325  41.089  1.00  0.00     0.227 C 
HETATM   18  C   UNL     1      25.950  53.029  44.940  1.00  0.00     0.227 C 
HETATM   19  C   UNL     1      29.311  48.849  44.529  1.00  0.00     0.250 C 
HETATM   20  C   UNL     1      26.616  54.290  45.534  1.00  0.00     0.250 C 
HETATM   21  C   UNL     1      26.570  50.733  41.286  1.00  0.00     0.250 C 
HETATM   22  C   UNL     1      29.090  52.145  45.872  1.00  0.00     0.283 C 
HETATM   23  C   UNL     1      26.780  48.108  42.995  1.00  0.00     0.283 C 
HETATM   24  C   UNL     1      26.021  53.754  42.620  1.00  0.00     0.283 C 
HETATM   25  C   UNL     1      27.930  47.299  45.973  1.00  0.00     0.153 C 
HETATM   26  C   UNL     1      28.638  55.404  46.367  1.00  0.00     0.153 C 
HETATM   27  C   UNL     1      24.264  51.714  40.872  1.00  0.00     0.153 C 
ENDROOT
BRANCH  16  28
HETATM   28  C   UNL     1      30.842  49.530  46.386  1.00  0.00     0.016 C 
HETATM   29  C   UNL     1      31.557  48.347  45.737  1.00  0.00     0.012 C 
HETATM   30  C   UNL     1      30.673  49.296  47.887  1.00  0.00     0.012 C 
ENDBRANCH  16  28
BRANCH  14  31
HETATM   31  C   UNL     1      30.279  53.890  44.539  1.00  0.00     0.014 C 
HETATM   32  C   UNL     1      31.372  53.266  45.410  1.00  0.00     0.012 C 
BRANCH  31  33
HETATM   33  C   UNL     1      30.587  53.634  43.053  1.00  0.00     0.002 C 
HETATM   34  C   UNL     1      30.233  54.805  42.148  1.00  0.00     0.005 C 
ENDBRANCH  31  33
ENDBRANCH  14  31
BRANCH  13  35
HETATM   35  C   UNL     1      27.352  45.748  43.552  1.00  0.00     0.014 C 
HETATM   36  C   UNL     1      26.443  45.444  42.358  1.00  0.00     0.012 C 
BRANCH  35  37
HETATM   37  C   UNL     1      28.474  44.697  43.632  1.00  0.00     0.002 C 
HETATM   38  C   UNL     1      27.981  43.267  43.455  1.00  0.00     0.005 C 
ENDBRANCH  35  37
ENDBRANCH  13  35
BRANCH  18  39
HETATM   39  C   UNL     1      24.447  53.004  45.227  1.00  0.00     0.016 C 
HETATM   40  C   UNL     1      23.712  52.190  44.164  1.00  0.00     0.012 C 
HETATM   41  C   UNL     1      24.176  52.437  46.619  1.00  0.00     0.012 C 
ENDBRANCH  18  39
BRANCH  17  42
HETATM   42  C   UNL     1      25.887  49.006  39.604  1.00  0.00     0.016 C 
HETATM   43  C   UNL     1      25.398  47.574  39.394  1.00  0.00     0.012 C 
HETATM   44  C   UNL     1      27.229  49.221  38.906  1.00  0.00     0.012 C 
ENDBRANCH  17  42
BRANCH  15  45
HETATM   45  C   UNL     1      25.731  54.150  40.141  1.00  0.00     0.014 C 
HETATM   46  C   UNL     1      26.088  53.616  38.749  1.00  0.00     0.012 C 
BRANCH  45  47
HETATM   47  C   UNL     1      24.209  54.371  40.237  1.00  0.00     0.002 C 
HETATM   48  C   UNL     1      23.615  55.035  39.004  1.00  0.00     0.005 C 
ENDBRANCH  45  47
ENDBRANCH  15  45
TORSDOF 9
ENDMDL
MODEL 19
REMARK VINA RESULT:    -3.644     12.508     16.757
REMARK INTER + INTRA:          -5.286
REMARK INTER:                  -6.586
REMARK INTRA:                   1.300
REMARK UNBOUND:                 0.275
REMARK  9 active torsions:
REMARK  status: ('A' for Active; 'I' for Inactive)
REMARK    1  A    between atoms: C_13  and  C_16 
REMARK    2  A    between atoms: C_14  and  C_17 
REMARK    3  A    between atoms: C_15  and  C_18 
REMARK    4  A    between atoms: C_16  and  C_22 
REMARK    5  A    between atoms: C_17  and  C_23 
REMARK    6  A    between atoms: C_18  and  C_24 
REMARK    7  A    between atoms: C_19  and  C_25 
REMARK    8  A    between atoms: C_20  and  C_26 
REMARK    9  A    between atoms: C_21  and  C_27 
ROOT
HETATM    1  O   UNL     1      27.545  50.899  42.137  1.00  0.00    -0.304 OA
HETATM    2  O   UNL     1      27.378  46.829  45.168  1.00  0.00    -0.304 OA
HETATM    3  O   UNL     1      31.024  49.741  43.869  1.00  0.00    -0.304 OA
HETATM    4  O   UNL     1      25.820  49.548  43.524  1.00  0.00    -0.270 OA
HETATM    5  O   UNL     1      33.000  51.649  41.785  1.00  0.00    -0.270 OA
HETATM    6  O   UNL     1      28.393  49.225  45.581  1.00  0.00    -0.270 OA
HETATM    7  O   UNL     1      28.820  51.523  40.319  1.00  0.00    -0.263 OA
HETATM    8  O   UNL     1      28.411  46.525  43.126  1.00  0.00    -0.263 OA
HETATM    9  O   UNL     1      32.604  51.111  44.829  1.00  0.00    -0.263 OA
HETATM   10  N   UNL     1      26.082  47.723  42.115  1.00  0.00    -0.340 N 
HETATM   11  N   UNL     1      30.815  52.374  42.064  1.00  0.00    -0.340 N 
HETATM   12  N   UNL     1      30.522  48.509  46.162  1.00  0.00    -0.340 N 
HETATM   13  C   UNL     1      25.992  46.788  43.254  1.00  0.00     0.190 C 
HETATM   14  C   UNL     1      29.447  52.181  42.588  1.00  0.00     0.190 C 
HETATM   15  C   UNL     1      31.036  49.896  46.238  1.00  0.00     0.190 C 
HETATM   16  C   UNL     1      26.704  50.022  41.356  1.00  0.00     0.227 C 
HETATM   17  C   UNL     1      28.649  46.859  45.848  1.00  0.00     0.227 C 
HETATM   18  C   UNL     1      31.444  49.968  42.520  1.00  0.00     0.227 C 
HETATM   19  C   UNL     1      26.137  49.091  42.419  1.00  0.00     0.250 C 
HETATM   20  C   UNL     1      31.831  51.405  42.107  1.00  0.00     0.250 C 
HETATM   21  C   UNL     1      29.171  48.300  45.846  1.00  0.00     0.250 C 
HETATM   22  C   UNL     1      28.594  51.514  41.521  1.00  0.00     0.283 C 
HETATM   23  C   UNL     1      27.408  46.690  43.808  1.00  0.00     0.283 C 
HETATM   24  C   UNL     1      31.689  50.302  44.917  1.00  0.00     0.283 C 
HETATM   25  C   UNL     1      26.250  47.182  40.765  1.00  0.00     0.153 C 
HETATM   26  C   UNL     1      31.131  53.666  41.455  1.00  0.00     0.153 C 
HETATM   27  C   UNL     1      31.505  47.438  46.356  1.00  0.00     0.153 C 
ENDROOT
BRANCH  16  28
HETATM   28  C   UNL     1      25.596  50.815  40.688  1.00  0.00     0.016 C 
HETATM   29  C   UNL     1      24.720  51.503  41.733  1.00  0.00     0.012 C 
HETATM   30  C   UNL     1      24.750  49.911  39.793  1.00  0.00     0.012 C 
ENDBRANCH  16  28
BRANCH  14  31
HETATM   31  C   UNL     1      28.762  53.452  43.088  1.00  0.00     0.014 C 
HETATM   32  C   UNL     1      27.649  53.855  42.117  1.00  0.00     0.012 C 
BRANCH  31  33
HETATM   33  C   UNL     1      28.184  53.286  44.504  1.00  0.00     0.002 C 
HETATM   34  C   UNL     1      26.662  53.279  44.544  1.00  0.00     0.005 C 
ENDBRANCH  31  33
ENDBRANCH  14  31
BRANCH  13  35
HETATM   35  C   UNL     1      25.460  45.395  42.951  1.00  0.00     0.014 C 
HETATM   36  C   UNL     1      26.542  44.567  42.251  1.00  0.00     0.012 C 
BRANCH  35  37
HETATM   37  C   UNL     1      24.979  44.660  44.214  1.00  0.00     0.002 C 
HETATM   38  C   UNL     1      25.172  43.151  44.151  1.00  0.00     0.005 C 
ENDBRANCH  35  37
ENDBRANCH  13  35
BRANCH  18  39
HETATM   39  C   UNL     1      32.567  48.976  42.213  1.00  0.00     0.016 C 
HETATM   40  C   UNL     1      32.282  47.625  42.862  1.00  0.00     0.012 C 
HETATM   41  C   UNL     1      32.747  48.820  40.704  1.00  0.00     0.012 C 
ENDBRANCH  18  39
BRANCH  17  42
HETATM   42  C   UNL     1      28.401  46.393  47.275  1.00  0.00     0.016 C 
HETATM   43  C   UNL     1      29.459  45.375  47.702  1.00  0.00     0.012 C 
HETATM   44  C   UNL     1      27.001  45.798  47.415  1.00  0.00     0.012 C 
ENDBRANCH  17  42
BRANCH  15  45
HETATM   45  C   UNL     1      31.972  50.134  47.422  1.00  0.00     0.014 C 
HETATM   46  C   UNL     1      32.091  51.636  47.703  1.00  0.00     0.012 C 
BRANCH  45  47
HETATM   47  C   UNL     1      31.510  49.403  48.697  1.00  0.00     0.002 C 
HETATM   48  C   UNL     1      32.282  49.812  49.943  1.00  0.00     0.005 C 
ENDBRANCH  45  47
ENDBRANCH  15  45
TORSDOF 9
ENDMDL
MODEL 20
REMARK VINA RESULT:    -3.497      8.656     13.334
REMARK INTER + INTRA:          -5.061
REMARK INTER:                  -5.827
REMARK INTRA:                   0.766
REMARK UNBOUND:                 0.275
REMARK  9 active torsions:
REMARK  status: ('A' for Active; 'I' for Inactive)
REMARK    1  A    between atoms: C_13  and  C_16 
REMARK    2  A    between atoms: C_14  and  C_17 
REMARK    3  A    between atoms: C_15  and  C_18 
REMARK    4  A    between atoms: C_16  and  C_22 
REMARK    5  A    between atoms: C_17  and  C_23 
REMARK    6  A    between atoms: C_18  and  C_24 
REMARK    7  A    between atoms: C_19  and  C_25 
REMARK    8  A    between atoms: C_20  and  C_26 
REMARK    9  A    between atoms: C_21  and  C_27 
ROOT
HETATM    1  O   UNL     1      33.739  47.519  45.786  1.00  0.00    -0.304 OA
HETATM    2  O   UNL     1      30.026  45.833  48.809  1.00  0.00    -0.304 OA
HETATM    3  O   UNL     1      30.803  50.146  46.746  1.00  0.00    -0.304 OA
HETATM    4  O   UNL     1      32.665  45.276  46.520  1.00  0.00    -0.270 OA
HETATM    5  O   UNL     1      32.574  52.912  45.699  1.00  0.00    -0.270 OA
HETATM    6  O   UNL     1      29.906  47.103  46.504  1.00  0.00    -0.270 OA
HETATM    7  O   UNL     1      35.173  49.325  45.822  1.00  0.00    -0.263 OA
HETATM    8  O   UNL     1      31.519  47.307  49.771  1.00  0.00    -0.263 OA
HETATM    9  O   UNL     1      29.761  51.624  45.322  1.00  0.00    -0.263 OA
HETATM   10  N   UNL     1      33.449  45.583  48.683  1.00  0.00    -0.340 N 
HETATM   11  N   UNL     1      33.159  50.895  44.716  1.00  0.00    -0.340 N 
HETATM   12  N   UNL     1      28.548  48.838  47.232  1.00  0.00    -0.340 N 
HETATM   13  C   UNL     1      32.203  45.028  49.248  1.00  0.00     0.190 C 
HETATM   14  C   UNL     1      33.048  49.424  44.620  1.00  0.00     0.190 C 
HETATM   15  C   UNL     1      28.652  49.547  45.936  1.00  0.00     0.190 C 
HETATM   16  C   UNL     1      34.507  46.779  46.759  1.00  0.00     0.227 C 
HETATM   17  C   UNL     1      29.017  46.859  48.714  1.00  0.00     0.227 C 
HETATM   18  C   UNL     1      31.972  50.946  46.947  1.00  0.00     0.227 C 
HETATM   19  C   UNL     1      33.478  45.793  47.296  1.00  0.00     0.250 C 
HETATM   20  C   UNL     1      32.577  51.675  45.727  1.00  0.00     0.250 C 
HETATM   21  C   UNL     1      29.203  47.607  47.388  1.00  0.00     0.250 C 
HETATM   22  C   UNL     1      34.133  48.786  45.472  1.00  0.00     0.283 C 
HETATM   23  C   UNL     1      31.237  46.203  49.325  1.00  0.00     0.283 C 
HETATM   24  C   UNL     1      29.767  50.592  45.982  1.00  0.00     0.283 C 
HETATM   25  C   UNL     1      34.513  46.010  49.593  1.00  0.00     0.153 C 
HETATM   26  C   UNL     1      33.931  51.584  43.682  1.00  0.00     0.153 C 
HETATM   27  C   UNL     1      27.813  49.529  48.297  1.00  0.00     0.153 C 
ENDROOT
BRANCH  16  28
HETATM   28  C   UNL     1      35.651  46.048  46.081  1.00  0.00     0.016 C 
HETATM   29  C   UNL     1      35.479  44.536  46.216  1.00  0.00     0.012 C 
HETATM   30  C   UNL     1      36.993  46.488  46.664  1.00  0.00     0.012 C 
ENDBRANCH  16  28
BRANCH  14  31
HETATM   31  C   UNL     1      33.100  48.863  43.200  1.00  0.00     0.014 C 
HETATM   32  C   UNL     1      34.528  48.421  42.871  1.00  0.00     0.012 C 
BRANCH  31  33
HETATM   33  C   UNL     1      32.129  47.686  43.000  1.00  0.00     0.002 C 
HETATM   34  C   UNL     1      30.723  47.962  43.512  1.00  0.00     0.005 C 
ENDBRANCH  31  33
ENDBRANCH  14  31
BRANCH  13  35
HETATM   35  C   UNL     1      32.313  44.361  50.613  1.00  0.00     0.014 C 
HETATM   36  C   UNL     1      30.917  44.185  51.218  1.00  0.00     0.012 C 
BRANCH  35  37
HETATM   37  C   UNL     1      33.027  43.000  50.546  1.00  0.00     0.002 C 
HETATM   38  C   UNL     1      34.105  42.826  51.608  1.00  0.00     0.005 C 
ENDBRANCH  35  37
ENDBRANCH  13  35
BRANCH  18  39
HETATM   39  C   UNL     1      31.675  51.919  48.089  1.00  0.00     0.016 C 
HETATM   40  C   UNL     1      30.784  51.258  49.139  1.00  0.00     0.012 C 
HETATM   41  C   UNL     1      32.973  52.415  48.722  1.00  0.00     0.012 C 
ENDBRANCH  18  39
BRANCH  17  42
HETATM   42  C   UNL     1      27.665  46.159  48.736  1.00  0.00     0.016 C 
HETATM   43  C   UNL     1      27.534  45.277  49.977  1.00  0.00     0.012 C 
HETATM   44  C   UNL     1      27.465  45.331  47.468  1.00  0.00     0.012 C 
ENDBRANCH  17  42
BRANCH  15  45
HETATM   45  C   UNL     1      27.332  50.157  45.469  1.00  0.00     0.014 C 
HETATM   46  C   UNL     1      26.321  49.047  45.161  1.00  0.00     0.012 C 
BRANCH  45  47
HETATM   47  C   UNL     1      26.732  51.131  46.502  1.00  0.00     0.002 C 
HETATM   48  C   UNL     1      25.471  51.828  46.017  1.00  0.00     0.005 C 
ENDBRANCH  45  47
ENDBRANCH  15  45
TORSDOF 9
ENDMDL
