MODEL 1
REMARK VINA RESULT:    -6.314      0.000      0.000
REMARK INTER + INTRA:          -9.166
REMARK INTER:                  -9.636
REMARK INTRA:                   0.469
REMARK UNBOUND:                 0.469
REMARK  9 active torsions:
REMARK  status: ('A' for Active; 'I' for Inactive)
REMARK    1  A    between atoms: C_13  and  C_16 
REMARK    2  A    between atoms: C_14  and  C_17 
REMARK    3  A    between atoms: C_15  and  C_18 
REMARK    4  A    between atoms: C_16  and  C_22 
REMARK    5  A    between atoms: C_17  and  C_23 
REMARK    6  A    between atoms: C_18  and  C_24 
REMARK    7  A    between atoms: C_19  and  C_25 
REMARK    8  A    between atoms: C_20  and  C_26 
REMARK    9  A    between atoms: C_21  and  C_27 
ROOT
HETATM    1  O   UNL     1      33.952   3.205  -8.336  1.00  0.00    -0.304 OA
HETATM    2  O   UNL     1      32.013   7.230  -5.925  1.00  0.00    -0.304 OA
HETATM    3  O   UNL     1      35.401   6.850  -9.365  1.00  0.00    -0.304 OA
HETATM    4  O   UNL     1      31.825   3.868  -7.009  1.00  0.00    -0.270 OA
HETATM    5  O   UNL     1      38.152   5.581 -11.012  1.00  0.00    -0.270 OA
HETATM    6  O   UNL     1      32.340   6.777  -8.500  1.00  0.00    -0.270 OA
HETATM    7  O   UNL     1      36.082   2.406  -8.716  1.00  0.00    -0.263 OA
HETATM    8  O   UNL     1      34.170   6.649  -5.345  1.00  0.00    -0.263 OA
HETATM    9  O   UNL     1      35.832   7.605 -11.495  1.00  0.00    -0.263 OA
HETATM   10  N   UNL     1      33.075   4.078  -5.066  1.00  0.00    -0.340 N 
HETATM   11  N   UNL     1      36.318   4.171 -10.855  1.00  0.00    -0.340 N 
HETATM   12  N   UNL     1      33.552   8.704  -8.951  1.00  0.00    -0.340 N 
HETATM   13  C   UNL     1      32.292   5.260  -4.651  1.00  0.00     0.190 C 
HETATM   14  C   UNL     1      34.969   3.858 -10.337  1.00  0.00     0.190 C 
HETATM   15  C   UNL     1      33.797   8.295 -10.354  1.00  0.00     0.190 C 
HETATM   16  C   UNL     1      33.913   2.708  -6.981  1.00  0.00     0.227 C 
HETATM   17  C   UNL     1      32.484   8.350  -6.700  1.00  0.00     0.227 C 
HETATM   18  C   UNL     1      36.609   6.092  -9.239  1.00  0.00     0.227 C 
HETATM   19  C   UNL     1      32.831   3.575  -6.352  1.00  0.00     0.250 C 
HETATM   20  C   UNL     1      37.090   5.274 -10.457  1.00  0.00     0.250 C 
HETATM   21  C   UNL     1      32.786   7.868  -8.124  1.00  0.00     0.250 C 
HETATM   22  C   UNL     1      35.104   3.058  -9.051  1.00  0.00     0.283 C 
HETATM   23  C   UNL     1      32.963   6.447  -5.330  1.00  0.00     0.283 C 
HETATM   24  C   UNL     1      35.148   7.590 -10.480  1.00  0.00     0.283 C 
HETATM   25  C   UNL     1      34.143   3.592  -4.190  1.00  0.00     0.153 C 
HETATM   26  C   UNL     1      36.887   3.265 -11.853  1.00  0.00     0.153 C 
HETATM   27  C   UNL     1      34.204   9.940  -8.508  1.00  0.00     0.153 C 
ENDROOT
BRANCH  16  28
HETATM   28  C   UNL     1      33.506   1.246  -6.969  1.00  0.00     0.016 C 
HETATM   29  C   UNL     1      32.313   1.027  -6.040  1.00  0.00     0.012 C 
HETATM   30  C   UNL     1      34.680   0.362  -6.550  1.00  0.00     0.012 C 
ENDBRANCH  16  28
BRANCH  14  31
HETATM   31  C   UNL     1      34.055   3.124 -11.317  1.00  0.00     0.014 C 
HETATM   32  C   UNL     1      33.987   1.640 -10.949  1.00  0.00     0.012 C 
BRANCH  31  33
HETATM   33  C   UNL     1      32.636   3.719 -11.351  1.00  0.00     0.002 C 
HETATM   34  C   UNL     1      32.608   5.207 -11.668  1.00  0.00     0.005 C 
ENDBRANCH  31  33
ENDBRANCH  14  31
BRANCH  13  35
HETATM   35  C   UNL     1      32.187   5.515  -3.154  1.00  0.00     0.014 C 
HETATM   36  C   UNL     1      31.887   6.995  -2.900  1.00  0.00     0.012 C 
BRANCH  35  37
HETATM   37  C   UNL     1      31.111   4.643  -2.483  1.00  0.00     0.002 C 
HETATM   38  C   UNL     1      30.448   5.311  -1.285  1.00  0.00     0.005 C 
ENDBRANCH  35  37
ENDBRANCH  13  35
BRANCH  18  39
HETATM   39  C   UNL     1      37.698   7.042  -8.738  1.00  0.00     0.016 C 
HETATM   40  C   UNL     1      37.112   8.071  -7.775  1.00  0.00     0.012 C 
HETATM   41  C   UNL     1      38.825   6.259  -8.067  1.00  0.00     0.012 C 
ENDBRANCH  18  39
BRANCH  17  42
HETATM   42  C   UNL     1      31.363   9.380  -6.722  1.00  0.00     0.016 C 
HETATM   43  C   UNL     1      31.630  10.490  -5.706  1.00  0.00     0.012 C 
HETATM   44  C   UNL     1      30.014   8.717  -6.447  1.00  0.00     0.012 C 
ENDBRANCH  17  42
BRANCH  15  45
HETATM   45  C   UNL     1      33.671   9.444 -11.352  1.00  0.00     0.014 C 
HETATM   46  C   UNL     1      35.017  10.162 -11.499  1.00  0.00     0.012 C 
BRANCH  45  47
HETATM   47  C   UNL     1      33.181   8.975 -12.736  1.00  0.00     0.002 C 
HETATM   48  C   UNL     1      33.364  10.017 -13.829  1.00  0.00     0.005 C 
ENDBRANCH  45  47
ENDBRANCH  15  45
TORSDOF 9
ENDMDL
MODEL 2
REMARK VINA RESULT:    -5.990      2.124      6.331
REMARK INTER + INTRA:          -8.673
REMARK INTER:                  -8.889
REMARK INTRA:                   0.216
REMARK UNBOUND:                 0.469
REMARK  9 active torsions:
REMARK  status: ('A' for Active; 'I' for Inactive)
REMARK    1  A    between atoms: C_13  and  C_16 
REMARK    2  A    between atoms: C_14  and  C_17 
REMARK    3  A    between atoms: C_15  and  C_18 
REMARK    4  A    between atoms: C_16  and  C_22 
REMARK    5  A    between atoms: C_17  and  C_23 
REMARK    6  A    between atoms: C_18  and  C_24 
REMARK    7  A    between atoms: C_19  and  C_25 
REMARK    8  A    between atoms: C_20  and  C_26 
REMARK    9  A    between atoms: C_21  and  C_27 
ROOT
HETATM    1  O   UNL     1      34.356   7.199  -8.559  1.00  0.00    -0.304 OA
HETATM    2  O   UNL     1      34.241   3.464  -5.123  1.00  0.00    -0.304 OA
HETATM    3  O   UNL     1      35.284   3.470  -9.853  1.00  0.00    -0.304 OA
HETATM    4  O   UNL     1      34.487   6.885  -5.989  1.00  0.00    -0.270 OA
HETATM    5  O   UNL     1      34.965   4.265 -13.193  1.00  0.00    -0.270 OA
HETATM    6  O   UNL     1      36.111   4.134  -6.854  1.00  0.00    -0.270 OA
HETATM    7  O   UNL     1      33.406   7.531 -10.635  1.00  0.00    -0.263 OA
HETATM    8  O   UNL     1      32.528   3.464  -6.671  1.00  0.00    -0.263 OA
HETATM    9  O   UNL     1      37.002   2.896 -11.272  1.00  0.00    -0.263 OA
HETATM   10  N   UNL     1      32.282   6.164  -5.941  1.00  0.00    -0.340 N 
HETATM   11  N   UNL     1      35.456   6.027 -11.767  1.00  0.00    -0.340 N 
HETATM   12  N   UNL     1      36.298   2.050  -7.856  1.00  0.00    -0.340 N 
HETATM   13  C   UNL     1      32.601   5.151  -4.915  1.00  0.00     0.190 C 
HETATM   14  C   UNL     1      35.644   6.576 -10.408  1.00  0.00     0.190 C 
HETATM   15  C   UNL     1      37.246   2.557  -8.875  1.00  0.00     0.190 C 
HETATM   16  C   UNL     1      33.139   7.526  -7.854  1.00  0.00     0.227 C 
HETATM   17  C   UNL     1      34.894   2.366  -5.792  1.00  0.00     0.227 C 
HETATM   18  C   UNL     1      34.394   3.911 -10.883  1.00  0.00     0.227 C 
HETATM   19  C   UNL     1      33.362   6.860  -6.503  1.00  0.00     0.250 C 
HETATM   20  C   UNL     1      34.978   4.738 -12.049  1.00  0.00     0.250 C 
HETATM   21  C   UNL     1      35.816   2.933  -6.878  1.00  0.00     0.250 C 
HETATM   22  C   UNL     1      34.329   7.164  -9.922  1.00  0.00     0.283 C 
HETATM   23  C   UNL     1      33.087   3.933  -5.688  1.00  0.00     0.283 C 
HETATM   24  C   UNL     1      36.505   2.946 -10.154  1.00  0.00     0.283 C 
HETATM   25  C   UNL     1      30.901   6.286  -6.413  1.00  0.00     0.153 C 
HETATM   26  C   UNL     1      35.792   6.892 -12.898  1.00  0.00     0.153 C 
HETATM   27  C   UNL     1      35.873   0.654  -7.997  1.00  0.00     0.153 C 
ENDROOT
BRANCH  16  28
HETATM   28  C   UNL     1      33.010   9.030  -7.697  1.00  0.00     0.016 C 
HETATM   29  C   UNL     1      32.925   9.413  -6.221  1.00  0.00     0.012 C 
HETATM   30  C   UNL     1      31.790   9.549  -8.456  1.00  0.00     0.012 C 
ENDBRANCH  16  28
BRANCH  14  31
HETATM   31  C   UNL     1      36.761   7.610 -10.276  1.00  0.00     0.014 C 
HETATM   32  C   UNL     1      36.156   8.996 -10.040  1.00  0.00     0.012 C 
BRANCH  31  33
HETATM   33  C   UNL     1      37.744   7.269  -9.143  1.00  0.00     0.002 C 
HETATM   34  C   UNL     1      38.523   5.983  -9.379  1.00  0.00     0.005 C 
ENDBRANCH  31  33
ENDBRANCH  14  31
BRANCH  13  35
HETATM   35  C   UNL     1      31.468   4.750  -3.980  1.00  0.00     0.014 C 
HETATM   36  C   UNL     1      31.008   3.326  -4.305  1.00  0.00     0.012 C 
BRANCH  35  37
HETATM   37  C   UNL     1      31.867   4.842  -2.497  1.00  0.00     0.002 C 
HETATM   38  C   UNL     1      30.726   4.527  -1.539  1.00  0.00     0.005 C 
ENDBRANCH  35  37
ENDBRANCH  13  35
BRANCH  18  39
HETATM   39  C   UNL     1      33.634   2.685 -11.392  1.00  0.00     0.016 C 
HETATM   40  C   UNL     1      33.374   1.704 -10.252  1.00  0.00     0.012 C 
HETATM   41  C   UNL     1      32.322   3.103 -12.051  1.00  0.00     0.012 C 
ENDBRANCH  18  39
BRANCH  17  42
HETATM   42  C   UNL     1      35.714   1.629  -4.742  1.00  0.00     0.016 C 
HETATM   43  C   UNL     1      35.110   0.256  -4.451  1.00  0.00     0.012 C 
HETATM   44  C   UNL     1      35.813   2.452  -3.458  1.00  0.00     0.012 C 
ENDBRANCH  17  42
BRANCH  15  45
HETATM   45  C   UNL     1      38.397   1.594  -9.166  1.00  0.00     0.014 C 
HETATM   46  C   UNL     1      39.413   2.260 -10.100  1.00  0.00     0.012 C 
BRANCH  45  47
HETATM   47  C   UNL     1      39.107   1.117  -7.884  1.00  0.00     0.002 C 
HETATM   48  C   UNL     1      39.937   2.200  -7.212  1.00  0.00     0.005 C 
ENDBRANCH  45  47
ENDBRANCH  15  45
TORSDOF 9
ENDMDL
MODEL 3
REMARK VINA RESULT:    -5.451      2.412      6.748
REMARK INTER + INTRA:          -7.850
REMARK INTER:                  -8.114
REMARK INTRA:                   0.264
REMARK UNBOUND:                 0.469
REMARK  9 active torsions:
REMARK  status: ('A' for Active; 'I' for Inactive)
REMARK    1  A    between atoms: C_13  and  C_16 
REMARK    2  A    between atoms: C_14  and  C_17 
REMARK    3  A    between atoms: C_15  and  C_18 
REMARK    4  A    between atoms: C_16  and  C_22 
REMARK    5  A    between atoms: C_17  and  C_23 
REMARK    6  A    between atoms: C_18  and  C_24 
REMARK    7  A    between atoms: C_19  and  C_25 
REMARK    8  A    between atoms: C_20  and  C_26 
REMARK    9  A    between atoms: C_21  and  C_27 
ROOT
HETATM    1  O   UNL     1      33.316   5.645  -7.511  1.00  0.00    -0.304 OA
HETATM    2  O   UNL     1      38.262   6.441  -8.329  1.00  0.00    -0.304 OA
HETATM    3  O   UNL     1      34.446   9.420  -8.468  1.00  0.00    -0.304 OA
HETATM    4  O   UNL     1      35.604   4.566  -6.940  1.00  0.00    -0.270 OA
HETATM    5  O   UNL     1      31.243  10.476  -9.188  1.00  0.00    -0.270 OA
HETATM    6  O   UNL     1      36.557   7.732  -6.790  1.00  0.00    -0.270 OA
HETATM    7  O   UNL     1      31.382   6.075  -8.692  1.00  0.00    -0.263 OA
HETATM    8  O   UNL     1      36.911   6.481 -10.200  1.00  0.00    -0.263 OA
HETATM    9  O   UNL     1      33.701  11.366  -7.491  1.00  0.00    -0.263 OA
HETATM   10  N   UNL     1      35.946   4.051  -9.176  1.00  0.00    -0.340 N 
HETATM   11  N   UNL     1      31.422   8.685  -7.726  1.00  0.00    -0.340 N 
HETATM   12  N   UNL     1      36.943   9.839  -7.683  1.00  0.00    -0.340 N 
HETATM   13  C   UNL     1      37.382   4.376  -9.065  1.00  0.00     0.190 C 
HETATM   14  C   UNL     1      32.228   7.658  -7.033  1.00  0.00     0.190 C 
HETATM   15  C   UNL     1      35.867  10.449  -6.868  1.00  0.00     0.190 C 
HETATM   16  C   UNL     1      33.643   4.482  -8.303  1.00  0.00     0.227 C 
HETATM   17  C   UNL     1      38.379   7.878  -8.338  1.00  0.00     0.227 C 
HETATM   18  C   UNL     1      33.306   9.245  -9.315  1.00  0.00     0.227 C 
HETATM   19  C   UNL     1      35.141   4.344  -8.065  1.00  0.00     0.250 C 
HETATM   20  C   UNL     1      31.907   9.538  -8.730  1.00  0.00     0.250 C 
HETATM   21  C   UNL     1      37.211   8.469  -7.538  1.00  0.00     0.250 C 
HETATM   22  C   UNL     1      32.221   6.380  -7.857  1.00  0.00     0.283 C 
HETATM   23  C   UNL     1      37.474   5.879  -9.294  1.00  0.00     0.283 C 
HETATM   24  C   UNL     1      34.561  10.511  -7.661  1.00  0.00     0.283 C 
HETATM   25  C   UNL     1      35.420   3.585 -10.461  1.00  0.00     0.153 C 
HETATM   26  C   UNL     1      30.018   8.819  -7.338  1.00  0.00     0.153 C 
HETATM   27  C   UNL     1      37.608  10.718  -8.650  1.00  0.00     0.153 C 
ENDROOT
BRANCH  16  28
HETATM   28  C   UNL     1      32.902   3.265  -7.781  1.00  0.00     0.016 C 
HETATM   29  C   UNL     1      33.455   2.838  -6.423  1.00  0.00     0.012 C 
HETATM   30  C   UNL     1      32.986   2.113  -8.780  1.00  0.00     0.012 C 
ENDBRANCH  16  28
BRANCH  14  31
HETATM   31  C   UNL     1      31.797   7.358  -5.598  1.00  0.00     0.014 C 
HETATM   32  C   UNL     1      31.361   5.896  -5.484  1.00  0.00     0.012 C 
BRANCH  31  33
HETATM   33  C   UNL     1      32.912   7.651  -4.580  1.00  0.00     0.002 C 
HETATM   34  C   UNL     1      33.264   9.128  -4.469  1.00  0.00     0.005 C 
ENDBRANCH  31  33
ENDBRANCH  14  31
BRANCH  13  35
HETATM   35  C   UNL     1      38.319   3.651 -10.021  1.00  0.00     0.014 C 
HETATM   36  C   UNL     1      39.610   4.457 -10.193  1.00  0.00     0.012 C 
BRANCH  35  37
HETATM   37  C   UNL     1      38.654   2.226  -9.548  1.00  0.00     0.002 C 
HETATM   38  C   UNL     1      38.776   2.100  -8.036  1.00  0.00     0.005 C 
ENDBRANCH  35  37
ENDBRANCH  13  35
BRANCH  18  39
HETATM   39  C   UNL     1      33.555  10.044 -10.595  1.00  0.00     0.016 C 
HETATM   40  C   UNL     1      35.032   9.996 -10.979  1.00  0.00     0.012 C 
HETATM   41  C   UNL     1      32.687   9.516 -11.735  1.00  0.00     0.012 C 
ENDBRANCH  18  39
BRANCH  17  42
HETATM   42  C   UNL     1      39.701   8.223  -7.667  1.00  0.00     0.016 C 
HETATM   43  C   UNL     1      40.809   8.382  -8.707  1.00  0.00     0.012 C 
HETATM   44  C   UNL     1      40.080   7.156  -6.641  1.00  0.00     0.012 C 
ENDBRANCH  17  42
BRANCH  15  45
HETATM   45  C   UNL     1      36.240  11.816  -6.296  1.00  0.00     0.014 C 
HETATM   46  C   UNL     1      34.998  12.493  -5.705  1.00  0.00     0.012 C 
BRANCH  45  47
HETATM   47  C   UNL     1      37.342  11.727  -5.222  1.00  0.00     0.002 C 
HETATM   48  C   UNL     1      37.217  10.505  -4.326  1.00  0.00     0.005 C 
ENDBRANCH  45  47
ENDBRANCH  15  45
TORSDOF 9
ENDMDL
MODEL 4
REMARK VINA RESULT:    -5.446      1.759      6.150
REMARK INTER + INTRA:          -7.843
REMARK INTER:                  -8.848
REMARK INTRA:                   1.005
REMARK UNBOUND:                 0.469
REMARK  9 active torsions:
REMARK  status: ('A' for Active; 'I' for Inactive)
REMARK    1  A    between atoms: C_13  and  C_16 
REMARK    2  A    between atoms: C_14  and  C_17 
REMARK    3  A    between atoms: C_15  and  C_18 
REMARK    4  A    between atoms: C_16  and  C_22 
REMARK    5  A    between atoms: C_17  and  C_23 
REMARK    6  A    between atoms: C_18  and  C_24 
REMARK    7  A    between atoms: C_19  and  C_25 
REMARK    8  A    between atoms: C_20  and  C_26 
REMARK    9  A    between atoms: C_21  and  C_27 
ROOT
HETATM    1  O   UNL     1      32.908   8.228  -7.826  1.00  0.00    -0.304 OA
HETATM    2  O   UNL     1      33.859   3.662  -5.822  1.00  0.00    -0.304 OA
HETATM    3  O   UNL     1      35.139   5.667 -10.041  1.00  0.00    -0.304 OA
HETATM    4  O   UNL     1      32.973   7.072  -5.506  1.00  0.00    -0.270 OA
HETATM    5  O   UNL     1      34.781   7.467 -12.960  1.00  0.00    -0.270 OA
HETATM    6  O   UNL     1      35.494   5.432  -6.888  1.00  0.00    -0.270 OA
HETATM    7  O   UNL     1      32.037   8.978  -9.825  1.00  0.00    -0.263 OA
HETATM    8  O   UNL     1      32.353   3.702  -7.571  1.00  0.00    -0.263 OA
HETATM    9  O   UNL     1      37.037   6.179 -11.237  1.00  0.00    -0.263 OA
HETATM   10  N   UNL     1      31.151   5.758  -6.084  1.00  0.00    -0.340 N 
HETATM   11  N   UNL     1      34.547   8.665 -10.988  1.00  0.00    -0.340 N 
HETATM   12  N   UNL     1      36.447   4.001  -8.446  1.00  0.00    -0.340 N 
HETATM   13  C   UNL     1      31.730   4.591  -5.389  1.00  0.00     0.190 C 
HETATM   14  C   UNL     1      34.448   8.721  -9.515  1.00  0.00     0.190 C 
HETATM   15  C   UNL     1      37.228   5.096  -9.066  1.00  0.00     0.190 C 
HETATM   16  C   UNL     1      31.610   7.902  -7.284  1.00  0.00     0.227 C 
HETATM   17  C   UNL     1      34.890   3.125  -6.674  1.00  0.00     0.227 C 
HETATM   18  C   UNL     1      34.219   6.159 -11.021  1.00  0.00     0.227 C 
HETATM   19  C   UNL     1      31.961   6.897  -6.194  1.00  0.00     0.250 C 
HETATM   20  C   UNL     1      34.558   7.481 -11.743  1.00  0.00     0.250 C 
HETATM   21  C   UNL     1      35.629   4.290  -7.343  1.00  0.00     0.250 C 
HETATM   22  C   UNL     1      32.982   8.675  -9.112  1.00  0.00     0.283 C 
HETATM   23  C   UNL     1      32.654   3.934  -6.407  1.00  0.00     0.283 C 
HETATM   24  C   UNL     1      36.482   5.675 -10.269  1.00  0.00     0.283 C 
HETATM   25  C   UNL     1      29.845   5.622  -6.732  1.00  0.00     0.153 C 
HETATM   26  C   UNL     1      34.638   9.934 -11.709  1.00  0.00     0.153 C 
HETATM   27  C   UNL     1      36.536   2.688  -9.094  1.00  0.00     0.153 C 
ENDROOT
BRANCH  16  28
HETATM   28  C   UNL     1      30.964   9.139  -6.686  1.00  0.00     0.016 C 
HETATM   29  C   UNL     1      31.228   9.212  -5.183  1.00  0.00     0.012 C 
HETATM   30  C   UNL     1      29.463   9.153  -6.967  1.00  0.00     0.012 C 
ENDBRANCH  16  28
BRANCH  14  31
HETATM   31  C   UNL     1      35.132   9.923  -8.866  1.00  0.00     0.014 C 
HETATM   32  C   UNL     1      34.076  10.913  -8.369  1.00  0.00     0.012 C 
BRANCH  31  33
HETATM   33  C   UNL     1      36.053   9.516  -7.704  1.00  0.00     0.002 C 
HETATM   34  C   UNL     1      35.538   9.947  -6.338  1.00  0.00     0.005 C 
ENDBRANCH  31  33
ENDBRANCH  14  31
BRANCH  13  35
HETATM   35  C   UNL     1      30.746   3.563  -4.848  1.00  0.00     0.014 C 
HETATM   36  C   UNL     1      31.328   2.156  -5.002  1.00  0.00     0.012 C 
BRANCH  35  37
HETATM   37  C   UNL     1      30.382   3.817  -3.374  1.00  0.00     0.002 C 
HETATM   38  C   UNL     1      31.347   4.754  -2.661  1.00  0.00     0.005 C 
ENDBRANCH  35  37
ENDBRANCH  13  35
BRANCH  18  39
HETATM   39  C   UNL     1      33.960   5.028 -12.018  1.00  0.00     0.016 C 
HETATM   40  C   UNL     1      35.071   3.983 -11.946  1.00  0.00     0.012 C 
HETATM   41  C   UNL     1      32.600   4.384 -11.756  1.00  0.00     0.012 C 
ENDBRANCH  18  39
BRANCH  17  42
HETATM   42  C   UNL     1      35.844   2.343  -5.781  1.00  0.00     0.016 C 
HETATM   43  C   UNL     1      35.776   0.849  -6.096  1.00  0.00     0.012 C 
HETATM   44  C   UNL     1      35.531   2.593  -4.306  1.00  0.00     0.012 C 
ENDBRANCH  17  42
BRANCH  15  45
HETATM   45  C   UNL     1      38.654   4.692  -9.434  1.00  0.00     0.014 C 
HETATM   46  C   UNL     1      39.474   5.936  -9.796  1.00  0.00     0.012 C 
BRANCH  45  47
HETATM   47  C   UNL     1      39.360   3.917  -8.305  1.00  0.00     0.002 C 
HETATM   48  C   UNL     1      40.304   2.837  -8.810  1.00  0.00     0.005 C 
ENDBRANCH  45  47
ENDBRANCH  15  45
TORSDOF 9
ENDMDL
MODEL 5
REMARK VINA RESULT:    -5.396     17.562     21.482
REMARK INTER + INTRA:          -7.767
REMARK INTER:                  -7.641
REMARK INTRA:                  -0.126
REMARK UNBOUND:                 0.469
REMARK  9 active torsions:
REMARK  status: ('A' for Active; 'I' for Inactive)
REMARK    1  A    between atoms: C_13  and  C_16 
REMARK    2  A    between atoms: C_14  and  C_17 
REMARK    3  A    between atoms: C_15  and  C_18 
REMARK    4  A    between atoms: C_16  and  C_22 
REMARK    5  A    between atoms: C_17  and  C_23 
REMARK    6  A    between atoms: C_18  and  C_24 
REMARK    7  A    between atoms: C_19  and  C_25 
REMARK    8  A    between atoms: C_20  and  C_26 
REMARK    9  A    between atoms: C_21  and  C_27 
ROOT
HETATM    1  O   UNL     1      30.060  24.051  -3.925  1.00  0.00    -0.304 OA
HETATM    2  O   UNL     1      27.993  26.300   0.129  1.00  0.00    -0.304 OA
HETATM    3  O   UNL     1      26.116  24.969  -4.133  1.00  0.00    -0.304 OA
HETATM    4  O   UNL     1      30.505  24.323  -1.385  1.00  0.00    -0.270 OA
HETATM    5  O   UNL     1      25.930  24.553  -7.550  1.00  0.00    -0.270 OA
HETATM    6  O   UNL     1      27.201  24.195  -1.244  1.00  0.00    -0.270 OA
HETATM    7  O   UNL     1      30.145  24.523  -6.181  1.00  0.00    -0.263 OA
HETATM    8  O   UNL     1      28.299  27.643  -1.723  1.00  0.00    -0.263 OA
HETATM    9  O   UNL     1      24.437  23.638  -4.972  1.00  0.00    -0.263 OA
HETATM   10  N   UNL     1      30.902  26.591  -1.675  1.00  0.00    -0.340 N 
HETATM   11  N   UNL     1      27.620  23.388  -6.471  1.00  0.00    -0.340 N 
HETATM   12  N   UNL     1      25.062  24.971  -1.699  1.00  0.00    -0.340 N 
HETATM   13  C   UNL     1      30.213  26.906  -0.407  1.00  0.00     0.190 C 
HETATM   14  C   UNL     1      28.404  23.077  -5.258  1.00  0.00     0.190 C 
HETATM   15  C   UNL     1      24.759  23.809  -2.566  1.00  0.00     0.190 C 
HETATM   16  C   UNL     1      31.092  25.006  -3.598  1.00  0.00     0.227 C 
HETATM   17  C   UNL     1      26.576  26.215  -0.120  1.00  0.00     0.227 C 
HETATM   18  C   UNL     1      26.579  25.429  -5.406  1.00  0.00     0.227 C 
HETATM   19  C   UNL     1      30.835  25.262  -2.120  1.00  0.00     0.250 C 
HETATM   20  C   UNL     1      26.664  24.412  -6.564  1.00  0.00     0.250 C 
HETATM   21  C   UNL     1      26.315  25.041  -1.071  1.00  0.00     0.250 C 
HETATM   22  C   UNL     1      29.635  23.968  -5.218  1.00  0.00     0.283 C 
HETATM   23  C   UNL     1      28.737  27.016  -0.767  1.00  0.00     0.283 C 
HETATM   24  C   UNL     1      25.036  24.144  -4.032  1.00  0.00     0.283 C 
HETATM   25  C   UNL     1      31.483  27.683  -2.458  1.00  0.00     0.153 C 
HETATM   26  C   UNL     1      27.859  22.569  -7.660  1.00  0.00     0.153 C 
HETATM   27  C   UNL     1      24.035  26.014  -1.623  1.00  0.00     0.153 C 
ENDROOT
BRANCH  16  28
HETATM   28  C   UNL     1      32.464  24.389  -3.807  1.00  0.00     0.016 C 
HETATM   29  C   UNL     1      33.238  24.341  -2.491  1.00  0.00     0.012 C 
HETATM   30  C   UNL     1      33.249  25.166  -4.862  1.00  0.00     0.012 C 
ENDBRANCH  16  28
BRANCH  14  31
HETATM   31  C   UNL     1      28.813  21.612  -5.110  1.00  0.00     0.014 C 
HETATM   32  C   UNL     1      30.333  21.485  -5.240  1.00  0.00     0.012 C 
BRANCH  31  33
HETATM   33  C   UNL     1      28.350  21.008  -3.773  1.00  0.00     0.002 C 
HETATM   34  C   UNL     1      26.839  20.866  -3.659  1.00  0.00     0.005 C 
ENDBRANCH  31  33
ENDBRANCH  14  31
BRANCH  13  35
HETATM   35  C   UNL     1      30.663  28.168   0.316  1.00  0.00     0.014 C 
HETATM   36  C   UNL     1      29.563  28.637   1.273  1.00  0.00     0.012 C 
BRANCH  35  37
HETATM   37  C   UNL     1      31.976  27.966   1.091  1.00  0.00     0.002 C 
HETATM   38  C   UNL     1      32.086  26.601   1.757  1.00  0.00     0.005 C 
ENDBRANCH  35  37
ENDBRANCH  13  35
BRANCH  18  39
HETATM   39  C   UNL     1      25.735  26.646  -5.791  1.00  0.00     0.016 C 
HETATM   40  C   UNL     1      25.413  27.488  -4.559  1.00  0.00     0.012 C 
HETATM   41  C   UNL     1      26.455  27.487  -6.843  1.00  0.00     0.012 C 
ENDBRANCH  18  39
BRANCH  17  42
HETATM   42  C   UNL     1      25.901  25.964   1.221  1.00  0.00     0.016 C 
HETATM   43  C   UNL     1      25.445  27.279   1.851  1.00  0.00     0.012 C 
HETATM   44  C   UNL     1      26.840  25.215   2.166  1.00  0.00     0.012 C 
ENDBRANCH  17  42
BRANCH  15  45
HETATM   45  C   UNL     1      23.345  23.262  -2.375  1.00  0.00     0.014 C 
HETATM   46  C   UNL     1      23.228  21.877  -3.021  1.00  0.00     0.012 C 
BRANCH  45  47
HETATM   47  C   UNL     1      22.939  23.177  -0.892  1.00  0.00     0.002 C 
HETATM   48  C   UNL     1      21.840  22.160  -0.621  1.00  0.00     0.005 C 
ENDBRANCH  45  47
ENDBRANCH  15  45
TORSDOF 9
ENDMDL
MODEL 6
REMARK VINA RESULT:    -5.338      2.174      6.538
REMARK INTER + INTRA:          -7.678
REMARK INTER:                  -7.869
REMARK INTRA:                   0.191
REMARK UNBOUND:                 0.469
REMARK  9 active torsions:
REMARK  status: ('A' for Active; 'I' for Inactive)
REMARK    1  A    between atoms: C_13  and  C_16 
REMARK    2  A    between atoms: C_14  and  C_17 
REMARK    3  A    between atoms: C_15  and  C_18 
REMARK    4  A    between atoms: C_16  and  C_22 
REMARK    5  A    between atoms: C_17  and  C_23 
REMARK    6  A    between atoms: C_18  and  C_24 
REMARK    7  A    between atoms: C_19  and  C_25 
REMARK    8  A    between atoms: C_20  and  C_26 
REMARK    9  A    between atoms: C_21  and  C_27 
ROOT
HETATM    1  O   UNL     1      33.410   9.047  -7.066  1.00  0.00    -0.304 OA
HETATM    2  O   UNL     1      35.168   4.291  -7.293  1.00  0.00    -0.304 OA
HETATM    3  O   UNL     1      35.834   8.121 -10.182  1.00  0.00    -0.304 OA
HETATM    4  O   UNL     1      33.810   7.021  -5.499  1.00  0.00    -0.270 OA
HETATM    5  O   UNL     1      35.009  10.931 -12.000  1.00  0.00    -0.270 OA
HETATM    6  O   UNL     1      36.442   6.591  -7.459  1.00  0.00    -0.270 OA
HETATM    7  O   UNL     1      32.298  10.443  -8.528  1.00  0.00    -0.263 OA
HETATM    8  O   UNL     1      33.553   4.845  -8.847  1.00  0.00    -0.263 OA
HETATM    9  O   UNL     1      37.546   9.409 -11.021  1.00  0.00    -0.263 OA
HETATM   10  N   UNL     1      32.166   5.812  -6.605  1.00  0.00    -0.340 N 
HETATM   11  N   UNL     1      34.738  11.088  -9.702  1.00  0.00    -0.340 N 
HETATM   12  N   UNL     1      37.485   6.165  -9.488  1.00  0.00    -0.340 N 
HETATM   13  C   UNL     1      32.961   4.572  -6.499  1.00  0.00     0.190 C 
HETATM   14  C   UNL     1      34.736  10.476  -8.357  1.00  0.00     0.190 C 
HETATM   15  C   UNL     1      38.049   7.534  -9.555  1.00  0.00     0.190 C 
HETATM   16  C   UNL     1      32.216   8.309  -6.728  1.00  0.00     0.227 C 
HETATM   17  C   UNL     1      36.205   4.359  -8.292  1.00  0.00     0.227 C 
HETATM   18  C   UNL     1      34.785   8.834 -10.844  1.00  0.00     0.227 C 
HETATM   19  C   UNL     1      32.788   7.001  -6.197  1.00  0.00     0.250 C 
HETATM   20  C   UNL     1      34.872  10.374 -10.904  1.00  0.00     0.250 C 
HETATM   21  C   UNL     1      36.714   5.803  -8.373  1.00  0.00     0.250 C 
HETATM   22  C   UNL     1      33.326  10.018  -8.020  1.00  0.00     0.283 C 
HETATM   23  C   UNL     1      33.897   4.589  -7.700  1.00  0.00     0.283 C 
HETATM   24  C   UNL     1      37.142   8.449 -10.378  1.00  0.00     0.283 C 
HETATM   25  C   UNL     1      30.853   5.761  -7.251  1.00  0.00     0.153 C 
HETATM   26  C   UNL     1      34.589  12.541  -9.785  1.00  0.00     0.153 C 
HETATM   27  C   UNL     1      37.722   5.303 -10.650  1.00  0.00     0.153 C 
ENDROOT
BRANCH  16  28
HETATM   28  C   UNL     1      31.437   9.034  -5.646  1.00  0.00     0.016 C 
HETATM   29  C   UNL     1      31.479   8.251  -4.336  1.00  0.00     0.012 C 
HETATM   30  C   UNL     1      29.993   9.267  -6.085  1.00  0.00     0.012 C 
ENDBRANCH  16  28
BRANCH  14  31
HETATM   31  C   UNL     1      35.278  11.368  -7.241  1.00  0.00     0.014 C 
HETATM   32  C   UNL     1      34.131  11.807  -6.327  1.00  0.00     0.012 C 
BRANCH  31  33
HETATM   33  C   UNL     1      36.368  10.668  -6.411  1.00  0.00     0.002 C 
HETATM   34  C   UNL     1      35.911  10.274  -5.014  1.00  0.00     0.005 C 
ENDBRANCH  31  33
ENDBRANCH  14  31
BRANCH  13  35
HETATM   35  C   UNL     1      32.180   3.265  -6.472  1.00  0.00     0.014 C 
HETATM   36  C   UNL     1      32.987   2.165  -7.169  1.00  0.00     0.012 C 
BRANCH  35  37
HETATM   37  C   UNL     1      31.824   2.822  -5.042  1.00  0.00     0.002 C 
HETATM   38  C   UNL     1      30.443   3.280  -4.590  1.00  0.00     0.005 C 
ENDBRANCH  35  37
ENDBRANCH  13  35
BRANCH  18  39
HETATM   39  C   UNL     1      34.627   8.228 -12.240  1.00  0.00     0.016 C 
HETATM   40  C   UNL     1      34.692   6.704 -12.175  1.00  0.00     0.012 C 
HETATM   41  C   UNL     1      33.315   8.682 -12.876  1.00  0.00     0.012 C 
ENDBRANCH  18  39
BRANCH  17  42
HETATM   42  C   UNL     1      37.325   3.434  -7.836  1.00  0.00     0.016 C 
HETATM   43  C   UNL     1      37.497   2.272  -8.814  1.00  0.00     0.012 C 
HETATM   44  C   UNL     1      37.053   2.910  -6.426  1.00  0.00     0.012 C 
ENDBRANCH  17  42
BRANCH  15  45
HETATM   45  C   UNL     1      39.490   7.572 -10.061  1.00  0.00     0.014 C 
HETATM   46  C   UNL     1      40.116   8.937  -9.753  1.00  0.00     0.012 C 
BRANCH  45  47
HETATM   47  C   UNL     1      40.360   6.455  -9.453  1.00  0.00     0.002 C 
HETATM   48  C   UNL     1      41.664   6.228 -10.202  1.00  0.00     0.005 C 
ENDBRANCH  45  47
ENDBRANCH  15  45
TORSDOF 9
ENDMDL
MODEL 7
REMARK VINA RESULT:    -5.195      1.848      6.668
REMARK INTER + INTRA:          -7.459
REMARK INTER:                  -9.001
REMARK INTRA:                   1.542
REMARK UNBOUND:                 0.469
REMARK  9 active torsions:
REMARK  status: ('A' for Active; 'I' for Inactive)
REMARK    1  A    between atoms: C_13  and  C_16 
REMARK    2  A    between atoms: C_14  and  C_17 
REMARK    3  A    between atoms: C_15  and  C_18 
REMARK    4  A    between atoms: C_16  and  C_22 
REMARK    5  A    between atoms: C_17  and  C_23 
REMARK    6  A    between atoms: C_18  and  C_24 
REMARK    7  A    between atoms: C_19  and  C_25 
REMARK    8  A    between atoms: C_20  and  C_26 
REMARK    9  A    between atoms: C_21  and  C_27 
ROOT
HETATM    1  O   UNL     1      36.406   7.021  -7.959  1.00  0.00    -0.304 OA
HETATM    2  O   UNL     1      32.427   5.827  -5.043  1.00  0.00    -0.304 OA
HETATM    3  O   UNL     1      34.876   3.287  -8.361  1.00  0.00    -0.304 OA
HETATM    4  O   UNL     1      35.284   7.788  -5.751  1.00  0.00    -0.270 OA
HETATM    5  O   UNL     1      36.512   2.653 -11.329  1.00  0.00    -0.270 OA
HETATM    6  O   UNL     1      34.694   4.546  -5.445  1.00  0.00    -0.270 OA
HETATM    7  O   UNL     1      36.852   6.930 -10.221  1.00  0.00    -0.263 OA
HETATM    8  O   UNL     1      31.976   6.142  -7.285  1.00  0.00    -0.263 OA
HETATM    9  O   UNL     1      36.067   1.327  -8.544  1.00  0.00    -0.263 OA
HETATM   10  N   UNL     1      33.422   8.522  -6.925  1.00  0.00    -0.340 N 
HETATM   11  N   UNL     1      37.490   4.235  -9.944  1.00  0.00    -0.340 N 
HETATM   12  N   UNL     1      33.743   2.529  -6.087  1.00  0.00    -0.340 N 
HETATM   13  C   UNL     1      32.520   8.042  -5.859  1.00  0.00     0.190 C 
HETATM   14  C   UNL     1      37.465   5.087  -8.737  1.00  0.00     0.190 C 
HETATM   15  C   UNL     1      35.063   1.940  -6.414  1.00  0.00     0.190 C 
HETATM   16  C   UNL     1      35.622   8.229  -8.075  1.00  0.00     0.227 C 
HETATM   17  C   UNL     1      32.318   4.396  -5.185  1.00  0.00     0.227 C 
HETATM   18  C   UNL     1      35.034   3.675  -9.730  1.00  0.00     0.227 C 
HETATM   19  C   UNL     1      34.779   8.185  -6.808  1.00  0.00     0.250 C 
HETATM   20  C   UNL     1      36.411   3.459 -10.396  1.00  0.00     0.250 C 
HETATM   21  C   UNL     1      33.689   3.838  -5.585  1.00  0.00     0.250 C 
HETATM   22  C   UNL     1      36.887   6.446  -9.099  1.00  0.00     0.283 C 
HETATM   23  C   UNL     1      32.266   6.574  -6.176  1.00  0.00     0.283 C 
HETATM   24  C   UNL     1      35.371   2.104  -7.903  1.00  0.00     0.283 C 
HETATM   25  C   UNL     1      32.846   9.185  -8.096  1.00  0.00     0.153 C 
HETATM   26  C   UNL     1      38.728   4.200 -10.722  1.00  0.00     0.153 C 
HETATM   27  C   UNL     1      32.568   1.705  -6.389  1.00  0.00     0.153 C 
ENDROOT
BRANCH  16  28
HETATM   28  C   UNL     1      36.529   9.446  -8.076  1.00  0.00     0.016 C 
HETATM   29  C   UNL     1      36.298  10.291  -6.825  1.00  0.00     0.012 C 
HETATM   30  C   UNL     1      36.307  10.282  -9.335  1.00  0.00     0.012 C 
ENDBRANCH  16  28
BRANCH  14  31
HETATM   31  C   UNL     1      38.813   5.261  -8.040  1.00  0.00     0.014 C 
HETATM   32  C   UNL     1      38.966   6.706  -7.560  1.00  0.00     0.012 C 
BRANCH  31  33
HETATM   33  C   UNL     1      38.988   4.296  -6.854  1.00  0.00     0.002 C 
HETATM   34  C   UNL     1      40.367   4.360  -6.215  1.00  0.00     0.005 C 
ENDBRANCH  31  33
ENDBRANCH  14  31
BRANCH  13  35
HETATM   35  C   UNL     1      31.194   8.774  -5.709  1.00  0.00     0.014 C 
HETATM   36  C   UNL     1      31.433  10.286  -5.706  1.00  0.00     0.012 C 
BRANCH  35  37
HETATM   37  C   UNL     1      30.192   8.409  -6.818  1.00  0.00     0.002 C 
HETATM   38  C   UNL     1      29.156   9.493  -7.084  1.00  0.00     0.005 C 
ENDBRANCH  35  37
ENDBRANCH  13  35
BRANCH  18  39
HETATM   39  C   UNL     1      33.914   3.008 -10.530  1.00  0.00     0.016 C 
HETATM   40  C   UNL     1      32.647   2.893  -9.687  1.00  0.00     0.012 C 
HETATM   41  C   UNL     1      33.637   3.786 -11.815  1.00  0.00     0.012 C 
ENDBRANCH  18  39
BRANCH  17  42
HETATM   42  C   UNL     1      31.904   3.844  -3.828  1.00  0.00     0.016 C 
HETATM   43  C   UNL     1      30.432   3.431  -3.839  1.00  0.00     0.012 C 
HETATM   44  C   UNL     1      32.163   4.869  -2.725  1.00  0.00     0.012 C 
ENDBRANCH  17  42
BRANCH  15  45
HETATM   45  C   UNL     1      35.206   0.486  -5.970  1.00  0.00     0.014 C 
HETATM   46  C   UNL     1      36.660   0.029  -6.132  1.00  0.00     0.012 C 
BRANCH  45  47
HETATM   47  C   UNL     1      34.754   0.265  -4.513  1.00  0.00     0.002 C 
HETATM   48  C   UNL     1      35.741   0.797  -3.485  1.00  0.00     0.005 C 
ENDBRANCH  45  47
ENDBRANCH  15  45
TORSDOF 9
ENDMDL
MODEL 8
REMARK VINA RESULT:    -5.191      2.114      6.418
REMARK INTER + INTRA:          -7.453
REMARK INTER:                  -7.644
REMARK INTRA:                   0.192
REMARK UNBOUND:                 0.469
REMARK  9 active torsions:
REMARK  status: ('A' for Active; 'I' for Inactive)
REMARK    1  A    between atoms: C_13  and  C_16 
REMARK    2  A    between atoms: C_14  and  C_17 
REMARK    3  A    between atoms: C_15  and  C_18 
REMARK    4  A    between atoms: C_16  and  C_22 
REMARK    5  A    between atoms: C_17  and  C_23 
REMARK    6  A    between atoms: C_18  and  C_24 
REMARK    7  A    between atoms: C_19  and  C_25 
REMARK    8  A    between atoms: C_20  and  C_26 
REMARK    9  A    between atoms: C_21  and  C_27 
ROOT
HETATM    1  O   UNL     1      35.949   9.348  -7.829  1.00  0.00    -0.304 OA
HETATM    2  O   UNL     1      34.169   5.031  -5.837  1.00  0.00    -0.304 OA
HETATM    3  O   UNL     1      35.651   6.154 -10.310  1.00  0.00    -0.304 OA
HETATM    4  O   UNL     1      35.684   8.211  -5.514  1.00  0.00    -0.270 OA
HETATM    5  O   UNL     1      35.992   8.024 -13.186  1.00  0.00    -0.270 OA
HETATM    6  O   UNL     1      36.330   5.484  -7.274  1.00  0.00    -0.270 OA
HETATM    7  O   UNL     1      35.404  10.642  -9.659  1.00  0.00    -0.263 OA
HETATM    8  O   UNL     1      32.741   6.146  -7.268  1.00  0.00    -0.263 OA
HETATM    9  O   UNL     1      37.204   5.474 -11.866  1.00  0.00    -0.263 OA
HETATM   10  N   UNL     1      33.375   8.369  -5.674  1.00  0.00    -0.340 N 
HETATM   11  N   UNL     1      36.910   8.937 -11.262  1.00  0.00    -0.340 N 
HETATM   12  N   UNL     1      35.885   3.908  -8.918  1.00  0.00    -0.340 N 
HETATM   13  C   UNL     1      33.208   7.041  -5.050  1.00  0.00     0.190 C 
HETATM   14  C   UNL     1      37.130   8.917  -9.800  1.00  0.00     0.190 C 
HETATM   15  C   UNL     1      37.054   4.329  -9.725  1.00  0.00     0.190 C 
HETATM   16  C   UNL     1      34.854   9.855  -7.036  1.00  0.00     0.227 C 
HETATM   17  C   UNL     1      34.466   4.044  -6.845  1.00  0.00     0.227 C 
HETATM   18  C   UNL     1      35.088   7.191 -11.118  1.00  0.00     0.227 C 
HETATM   19  C   UNL     1      34.684   8.763  -5.989  1.00  0.00     0.250 C 
HETATM   20  C   UNL     1      36.045   8.071 -11.951  1.00  0.00     0.250 C 
HETATM   21  C   UNL     1      35.638   4.548  -7.694  1.00  0.00     0.250 C 
HETATM   22  C   UNL     1      36.059   9.759  -9.125  1.00  0.00     0.283 C 
HETATM   23  C   UNL     1      33.319   6.042  -6.194  1.00  0.00     0.283 C 
HETATM   24  C   UNL     1      36.637   5.345 -10.788  1.00  0.00     0.283 C 
HETATM   25  C   UNL     1      32.183   9.129  -6.056  1.00  0.00     0.153 C 
HETATM   26  C   UNL     1      37.647   9.929 -12.044  1.00  0.00     0.153 C 
HETATM   27  C   UNL     1      35.017   2.886  -9.511  1.00  0.00     0.153 C 
ENDROOT
BRANCH  16  28
HETATM   28  C   UNL     1      35.242  11.169  -6.383  1.00  0.00     0.016 C 
HETATM   29  C   UNL     1      36.329  10.949  -5.332  1.00  0.00     0.012 C 
HETATM   30  C   UNL     1      34.022  11.843  -5.758  1.00  0.00     0.012 C 
ENDBRANCH  16  28
BRANCH  14  31
HETATM   31  C   UNL     1      38.516   9.374  -9.349  1.00  0.00     0.014 C 
HETATM   32  C   UNL     1      38.412  10.735  -8.655  1.00  0.00     0.012 C 
BRANCH  31  33
HETATM   33  C   UNL     1      39.190   8.359  -8.409  1.00  0.00     0.002 C 
HETATM   34  C   UNL     1      39.497   7.025  -9.074  1.00  0.00     0.005 C 
ENDBRANCH  31  33
ENDBRANCH  14  31
BRANCH  13  35
HETATM   35  C   UNL     1      31.912   6.807  -4.286  1.00  0.00     0.014 C 
HETATM   36  C   UNL     1      31.652   5.304  -4.154  1.00  0.00     0.012 C 
BRANCH  35  37
HETATM   37  C   UNL     1      31.926   7.457  -2.891  1.00  0.00     0.002 C 
HETATM   38  C   UNL     1      32.304   6.493  -1.775  1.00  0.00     0.005 C 
ENDBRANCH  35  37
ENDBRANCH  13  35
BRANCH  18  39
HETATM   39  C   UNL     1      34.007   6.556 -11.996  1.00  0.00     0.016 C 
HETATM   40  C   UNL     1      33.145   5.598 -11.176  1.00  0.00     0.012 C 
HETATM   41  C   UNL     1      33.143   7.634 -12.646  1.00  0.00     0.012 C 
ENDBRANCH  18  39
BRANCH  17  42
HETATM   42  C   UNL     1      34.859   2.767  -6.115  1.00  0.00     0.016 C 
HETATM   43  C   UNL     1      33.863   1.647  -6.412  1.00  0.00     0.012 C 
HETATM   44  C   UNL     1      34.954   3.012  -4.609  1.00  0.00     0.012 C 
ENDBRANCH  17  42
BRANCH  15  45
HETATM   45  C   UNL     1      37.821   3.159 -10.338  1.00  0.00     0.014 C 
HETATM   46  C   UNL     1      39.167   3.644 -10.888  1.00  0.00     0.012 C 
BRANCH  45  47
HETATM   47  C   UNL     1      38.054   2.013  -9.335  1.00  0.00     0.002 C 
HETATM   48  C   UNL     1      38.977   2.391  -8.187  1.00  0.00     0.005 C 
ENDBRANCH  45  47
ENDBRANCH  15  45
TORSDOF 9
ENDMDL
MODEL 9
REMARK VINA RESULT:    -5.136      1.917      6.362
REMARK INTER + INTRA:          -7.369
REMARK INTER:                  -7.545
REMARK INTRA:                   0.176
REMARK UNBOUND:                 0.469
REMARK  9 active torsions:
REMARK  status: ('A' for Active; 'I' for Inactive)
REMARK    1  A    between atoms: C_13  and  C_16 
REMARK    2  A    between atoms: C_14  and  C_17 
REMARK    3  A    between atoms: C_15  and  C_18 
REMARK    4  A    between atoms: C_16  and  C_22 
REMARK    5  A    between atoms: C_17  and  C_23 
REMARK    6  A    between atoms: C_18  and  C_24 
REMARK    7  A    between atoms: C_19  and  C_25 
REMARK    8  A    between atoms: C_20  and  C_26 
REMARK    9  A    between atoms: C_21  and  C_27 
ROOT
HETATM    1  O   UNL     1      34.560   8.874  -7.253  1.00  0.00    -0.304 OA
HETATM    2  O   UNL     1      34.586   3.853  -6.505  1.00  0.00    -0.304 OA
HETATM    3  O   UNL     1      36.028   6.568 -10.249  1.00  0.00    -0.304 OA
HETATM    4  O   UNL     1      34.504   7.176  -5.295  1.00  0.00    -0.270 OA
HETATM    5  O   UNL     1      35.909   9.087 -12.600  1.00  0.00    -0.270 OA
HETATM    6  O   UNL     1      36.508   5.470  -7.301  1.00  0.00    -0.270 OA
HETATM    7  O   UNL     1      33.762  10.269  -8.908  1.00  0.00    -0.263 OA
HETATM    8  O   UNL     1      33.026   4.641  -8.014  1.00  0.00    -0.263 OA
HETATM    9  O   UNL     1      37.918   6.975 -11.496  1.00  0.00    -0.263 OA
HETATM   10  N   UNL     1      32.403   6.448  -5.957  1.00  0.00    -0.340 N 
HETATM   11  N   UNL     1      36.065   9.764 -10.387  1.00  0.00    -0.340 N 
HETATM   12  N   UNL     1      37.024   4.322  -9.251  1.00  0.00    -0.340 N 
HETATM   13  C   UNL     1      32.747   5.050  -5.628  1.00  0.00     0.190 C 
HETATM   14  C   UNL     1      36.068   9.461  -8.941  1.00  0.00     0.190 C 
HETATM   15  C   UNL     1      37.991   5.359  -9.679  1.00  0.00     0.190 C 
HETATM   16  C   UNL     1      33.257   8.689  -6.660  1.00  0.00     0.227 C 
HETATM   17  C   UNL     1      35.419   3.355  -7.571  1.00  0.00     0.227 C 
HETATM   18  C   UNL     1      35.185   7.468 -10.974  1.00  0.00     0.227 C 
HETATM   19  C   UNL     1      33.439   7.390  -5.886  1.00  0.00     0.250 C 
HETATM   20  C   UNL     1      35.767   8.835 -11.397  1.00  0.00     0.250 C 
HETATM   21  C   UNL     1      36.358   4.478  -8.025  1.00  0.00     0.250 C 
HETATM   22  C   UNL     1      34.656   9.610  -8.397  1.00  0.00     0.283 C 
HETATM   23  C   UNL     1      33.439   4.502  -6.869  1.00  0.00     0.283 C 
HETATM   24  C   UNL     1      37.323   6.364 -10.618  1.00  0.00     0.283 C 
HETATM   25  C   UNL     1      31.063   6.747  -6.467  1.00  0.00     0.153 C 
HETATM   26  C   UNL     1      36.394  11.130 -10.794  1.00  0.00     0.153 C 
HETATM   27  C   UNL     1      36.779   3.228 -10.196  1.00  0.00     0.153 C 
ENDROOT
BRANCH  16  28
HETATM   28  C   UNL     1      32.940   9.837  -5.719  1.00  0.00     0.016 C 
HETATM   29  C   UNL     1      32.971   9.366  -4.266  1.00  0.00     0.012 C 
HETATM   30  C   UNL     1      31.582  10.450  -6.053  1.00  0.00     0.012 C 
ENDBRANCH  16  28
BRANCH  14  31
HETATM   31  C   UNL     1      37.041  10.295  -8.109  1.00  0.00     0.014 C 
HETATM   32  C   UNL     1      36.260  11.179  -7.133  1.00  0.00     0.012 C 
BRANCH  31  33
HETATM   33  C   UNL     1      38.045   9.424  -7.334  1.00  0.00     0.002 C 
HETATM   34  C   UNL     1      39.029   8.686  -8.230  1.00  0.00     0.005 C 
ENDBRANCH  31  33
ENDBRANCH  14  31
BRANCH  13  35
HETATM   35  C   UNL     1      31.592   4.138  -5.236  1.00  0.00     0.014 C 
HETATM   36  C   UNL     1      31.997   2.675  -5.435  1.00  0.00     0.012 C 
BRANCH  35  37
HETATM   37  C   UNL     1      31.134   4.359  -3.784  1.00  0.00     0.002 C 
HETATM   38  C   UNL     1      32.238   4.875  -2.870  1.00  0.00     0.005 C 
ENDBRANCH  35  37
ENDBRANCH  13  35
BRANCH  18  39
HETATM   39  C   UNL     1      34.621   6.705 -12.174  1.00  0.00     0.016 C 
HETATM   40  C   UNL     1      34.269   5.272 -11.782  1.00  0.00     0.012 C 
HETATM   41  C   UNL     1      33.397   7.423 -12.739  1.00  0.00     0.012 C 
ENDBRANCH  18  39
BRANCH  17  42
HETATM   42  C   UNL     1      36.225   2.196  -7.002  1.00  0.00     0.016 C 
HETATM   43  C   UNL     1      35.653   0.858  -7.470  1.00  0.00     0.012 C 
HETATM   44  C   UNL     1      36.257   2.258  -5.476  1.00  0.00     0.012 C 
ENDBRANCH  17  42
BRANCH  15  45
HETATM   45  C   UNL     1      39.267   4.784 -10.291  1.00  0.00     0.014 C 
HETATM   46  C   UNL     1      39.212   4.895 -11.818  1.00  0.00     0.012 C 
BRANCH  45  47
HETATM   47  C   UNL     1      40.539   5.477  -9.767  1.00  0.00     0.002 C 
HETATM   48  C   UNL     1      40.700   5.387  -8.257  1.00  0.00     0.005 C 
ENDBRANCH  45  47
ENDBRANCH  15  45
TORSDOF 9
ENDMDL
MODEL 10
REMARK VINA RESULT:    -5.136      3.237      5.964
REMARK INTER + INTRA:          -7.368
REMARK INTER:                  -7.571
REMARK INTRA:                   0.202
REMARK UNBOUND:                 0.469
REMARK  9 active torsions:
REMARK  status: ('A' for Active; 'I' for Inactive)
REMARK    1  A    between atoms: C_13  and  C_16 
REMARK    2  A    between atoms: C_14  and  C_17 
REMARK    3  A    between atoms: C_15  and  C_18 
REMARK    4  A    between atoms: C_16  and  C_22 
REMARK    5  A    between atoms: C_17  and  C_23 
REMARK    6  A    between atoms: C_18  and  C_24 
REMARK    7  A    between atoms: C_19  and  C_25 
REMARK    8  A    between atoms: C_20  and  C_26 
REMARK    9  A    between atoms: C_21  and  C_27 
ROOT
HETATM    1  O   UNL     1      37.438   7.980  -9.729  1.00  0.00    -0.304 OA
HETATM    2  O   UNL     1      32.604   7.982  -8.180  1.00  0.00    -0.304 OA
HETATM    3  O   UNL     1      36.423  10.646  -6.847  1.00  0.00    -0.304 OA
HETATM    4  O   UNL     1      35.101   7.240 -10.573  1.00  0.00    -0.270 OA
HETATM    5  O   UNL     1      39.685  11.337  -5.970  1.00  0.00    -0.270 OA
HETATM    6  O   UNL     1      34.146   9.969  -8.964  1.00  0.00    -0.270 OA
HETATM    7  O   UNL     1      39.484   7.833  -8.676  1.00  0.00    -0.263 OA
HETATM    8  O   UNL     1      34.140   7.113  -6.692  1.00  0.00    -0.263 OA
HETATM    9  O   UNL     1      37.069  12.852  -6.727  1.00  0.00    -0.263 OA
HETATM   10  N   UNL     1      34.989   5.622  -8.914  1.00  0.00    -0.340 N 
HETATM   11  N   UNL     1      39.353  10.559  -8.130  1.00  0.00    -0.340 N 
HETATM   12  N   UNL     1      33.859  11.283  -7.072  1.00  0.00    -0.340 N 
HETATM   13  C   UNL     1      33.549   5.883  -8.711  1.00  0.00     0.190 C 
HETATM   14  C   UNL     1      38.477  10.001  -9.182  1.00  0.00     0.190 C 
HETATM   15  C   UNL     1      34.848  12.282  -7.541  1.00  0.00     0.190 C 
HETATM   16  C   UNL     1      37.190   6.560  -9.635  1.00  0.00     0.227 C 
HETATM   17  C   UNL     1      32.493   9.198  -7.412  1.00  0.00     0.227 C 
HETATM   18  C   UNL     1      37.643  10.115  -6.322  1.00  0.00     0.227 C 
HETATM   19  C   UNL     1      35.676   6.489  -9.775  1.00  0.00     0.250 C 
HETATM   20  C   UNL     1      38.975  10.741  -6.789  1.00  0.00     0.250 C 
HETATM   21  C   UNL     1      33.574  10.176  -7.886  1.00  0.00     0.250 C 
HETATM   22  C   UNL     1      38.565   8.484  -9.150  1.00  0.00     0.283 C 
HETATM   23  C   UNL     1      33.486   7.042  -7.724  1.00  0.00     0.283 C 
HETATM   24  C   UNL     1      36.228  11.990  -6.953  1.00  0.00     0.283 C 
HETATM   25  C   UNL     1      35.641   4.583  -8.114  1.00  0.00     0.153 C 
HETATM   26  C   UNL     1      40.710  10.947  -8.514  1.00  0.00     0.153 C 
HETATM   27  C   UNL     1      33.299  11.497  -5.734  1.00  0.00     0.153 C 
ENDROOT
BRANCH  16  28
HETATM   28  C   UNL     1      37.871   5.831 -10.779  1.00  0.00     0.016 C 
HETATM   29  C   UNL     1      36.839   5.138 -11.666  1.00  0.00     0.012 C 
HETATM   30  C   UNL     1      38.885   4.820 -10.247  1.00  0.00     0.012 C 
ENDBRANCH  16  28
BRANCH  14  31
HETATM   31  C   UNL     1      38.757  10.513 -10.594  1.00  0.00     0.014 C 
HETATM   32  C   UNL     1      39.334   9.382 -11.448  1.00  0.00     0.012 C 
BRANCH  31  33
HETATM   33  C   UNL     1      37.499  11.087 -11.268  1.00  0.00     0.002 C 
HETATM   34  C   UNL     1      36.928  10.189 -12.356  1.00  0.00     0.005 C 
ENDBRANCH  31  33
ENDBRANCH  14  31
BRANCH  13  35
HETATM   35  C   UNL     1      32.713   4.720  -8.194  1.00  0.00     0.014 C 
HETATM   36  C   UNL     1      31.359   5.235  -7.699  1.00  0.00     0.012 C 
BRANCH  35  37
HETATM   37  C   UNL     1      32.498   3.631  -9.260  1.00  0.00     0.002 C 
HETATM   38  C   UNL     1      32.473   4.171 -10.684  1.00  0.00     0.005 C 
ENDBRANCH  35  37
ENDBRANCH  13  35
BRANCH  18  39
HETATM   39  C   UNL     1      37.529  10.120  -4.796  1.00  0.00     0.016 C 
HETATM   40  C   UNL     1      36.110   9.757  -4.363  1.00  0.00     0.012 C 
HETATM   41  C   UNL     1      38.541   9.157  -4.179  1.00  0.00     0.012 C 
ENDBRANCH  18  39
BRANCH  17  42
HETATM   42  C   UNL     1      31.110   9.772  -7.684  1.00  0.00     0.016 C 
HETATM   43  C   UNL     1      30.050   9.043  -6.859  1.00  0.00     0.012 C 
HETATM   44  C   UNL     1      30.776   9.694  -9.173  1.00  0.00     0.012 C 
ENDBRANCH  17  42
BRANCH  15  45
HETATM   45  C   UNL     1      34.422  13.726  -7.280  1.00  0.00     0.014 C 
HETATM   46  C   UNL     1      35.480  14.691  -7.827  1.00  0.00     0.012 C 
BRANCH  45  47
HETATM   47  C   UNL     1      33.050  14.059  -7.898  1.00  0.00     0.002 C 
HETATM   48  C   UNL     1      32.880  15.532  -8.237  1.00  0.00     0.005 C 
ENDBRANCH  45  47
ENDBRANCH  15  45
TORSDOF 9
ENDMDL
MODEL 11
REMARK VINA RESULT:    -5.110      2.894      6.694
REMARK INTER + INTRA:          -7.329
REMARK INTER:                  -7.586
REMARK INTRA:                   0.257
REMARK UNBOUND:                 0.469
REMARK  9 active torsions:
REMARK  status: ('A' for Active; 'I' for Inactive)
REMARK    1  A    between atoms: C_13  and  C_16 
REMARK    2  A    between atoms: C_14  and  C_17 
REMARK    3  A    between atoms: C_15  and  C_18 
REMARK    4  A    between atoms: C_16  and  C_22 
REMARK    5  A    between atoms: C_17  and  C_23 
REMARK    6  A    between atoms: C_18  and  C_24 
REMARK    7  A    between atoms: C_19  and  C_25 
REMARK    8  A    between atoms: C_20  and  C_26 
REMARK    9  A    between atoms: C_21  and  C_27 
ROOT
HETATM    1  O   UNL     1      37.813   8.662  -9.612  1.00  0.00    -0.304 OA
HETATM    2  O   UNL     1      34.123  10.184  -6.476  1.00  0.00    -0.304 OA
HETATM    3  O   UNL     1      34.017   7.616 -10.582  1.00  0.00    -0.304 OA
HETATM    4  O   UNL     1      37.511   9.424  -7.152  1.00  0.00    -0.270 OA
HETATM    5  O   UNL     1      34.808   6.740 -13.822  1.00  0.00    -0.270 OA
HETATM    6  O   UNL     1      34.645   7.799  -7.468  1.00  0.00    -0.270 OA
HETATM    7  O   UNL     1      38.196   8.835 -11.880  1.00  0.00    -0.263 OA
HETATM    8  O   UNL     1      34.233  11.274  -8.509  1.00  0.00    -0.263 OA
HETATM    9  O   UNL     1      33.311   5.566 -11.353  1.00  0.00    -0.263 OA
HETATM   10  N   UNL     1      36.949  11.561  -7.859  1.00  0.00    -0.340 N 
HETATM   11  N   UNL     1      36.541   6.634 -12.285  1.00  0.00    -0.340 N 
HETATM   12  N   UNL     1      32.545   7.433  -8.385  1.00  0.00    -0.340 N 
HETATM   13  C   UNL     1      35.925  11.677  -6.802  1.00  0.00     0.190 C 
HETATM   14  C   UNL     1      37.085   6.875 -10.932  1.00  0.00     0.190 C 
HETATM   15  C   UNL     1      32.974   6.165  -9.019  1.00  0.00     0.190 C 
HETATM   16  C   UNL     1      38.232  10.019  -9.351  1.00  0.00     0.227 C 
HETATM   17  C   UNL     1      32.976   9.422  -6.905  1.00  0.00     0.227 C 
HETATM   18  C   UNL     1      34.513   8.076 -11.843  1.00  0.00     0.227 C 
HETATM   19  C   UNL     1      37.562  10.309  -8.014  1.00  0.00     0.250 C 
HETATM   20  C   UNL     1      35.287   7.079 -12.733  1.00  0.00     0.250 C 
HETATM   21  C   UNL     1      33.468   8.153  -7.611  1.00  0.00     0.250 C 
HETATM   22  C   UNL     1      37.770   8.233 -10.906  1.00  0.00     0.283 C 
HETATM   23  C   UNL     1      34.669  11.045  -7.387  1.00  0.00     0.283 C 
HETATM   24  C   UNL     1      33.405   6.405 -10.466  1.00  0.00     0.283 C 
HETATM   25  C   UNL     1      37.166  12.691  -8.764  1.00  0.00     0.153 C 
HETATM   26  C   UNL     1      37.371   5.878 -13.224  1.00  0.00     0.153 C 
HETATM   27  C   UNL     1      31.181   7.883  -8.683  1.00  0.00     0.153 C 
ENDROOT
BRANCH  16  28
HETATM   28  C   UNL     1      39.743  10.087  -9.221  1.00  0.00     0.016 C 
HETATM   29  C   UNL     1      40.145  10.468  -7.798  1.00  0.00     0.012 C 
HETATM   30  C   UNL     1      40.326  11.080 -10.225  1.00  0.00     0.012 C 
ENDBRANCH  16  28
BRANCH  14  31
HETATM   31  C   UNL     1      38.038   5.798 -10.417  1.00  0.00     0.014 C 
HETATM   32  C   UNL     1      39.459   6.361 -10.335  1.00  0.00     0.012 C 
BRANCH  31  33
HETATM   33  C   UNL     1      37.613   5.249  -9.044  1.00  0.00     0.002 C 
HETATM   34  C   UNL     1      38.409   4.029  -8.604  1.00  0.00     0.005 C 
ENDBRANCH  31  33
ENDBRANCH  14  31
BRANCH  13  35
HETATM   35  C   UNL     1      35.612  13.083  -6.308  1.00  0.00     0.014 C 
HETATM   36  C   UNL     1      34.164  13.150  -5.815  1.00  0.00     0.012 C 
BRANCH  35  37
HETATM   37  C   UNL     1      36.564  13.538  -5.188  1.00  0.00     0.002 C 
HETATM   38  C   UNL     1      36.159  14.858  -4.544  1.00  0.00     0.005 C 
ENDBRANCH  35  37
ENDBRANCH  13  35
BRANCH  18  39
HETATM   39  C   UNL     1      33.340   8.705 -12.598  1.00  0.00     0.016 C 
HETATM   40  C   UNL     1      32.531   9.611 -11.673  1.00  0.00     0.012 C 
HETATM   41  C   UNL     1      33.841   9.485 -13.812  1.00  0.00     0.012 C 
ENDBRANCH  18  39
BRANCH  17  42
HETATM   42  C   UNL     1      32.191   9.056  -5.654  1.00  0.00     0.016 C 
HETATM   43  C   UNL     1      30.824   9.740  -5.654  1.00  0.00     0.012 C 
HETATM   44  C   UNL     1      32.974   9.428  -4.396  1.00  0.00     0.012 C 
ENDBRANCH  17  42
BRANCH  15  45
HETATM   45  C   UNL     1      31.930   5.054  -8.923  1.00  0.00     0.014 C 
HETATM   46  C   UNL     1      32.601   3.688  -9.103  1.00  0.00     0.012 C 
BRANCH  45  47
HETATM   47  C   UNL     1      31.159   5.080  -7.589  1.00  0.00     0.002 C 
HETATM   48  C   UNL     1      31.917   4.438  -6.438  1.00  0.00     0.005 C 
ENDBRANCH  45  47
ENDBRANCH  15  45
TORSDOF 9
ENDMDL
MODEL 12
REMARK VINA RESULT:    -5.104      3.102      6.476
REMARK INTER + INTRA:          -7.320
REMARK INTER:                  -8.169
REMARK INTRA:                   0.848
REMARK UNBOUND:                 0.469
REMARK  9 active torsions:
REMARK  status: ('A' for Active; 'I' for Inactive)
REMARK    1  A    between atoms: C_13  and  C_16 
REMARK    2  A    between atoms: C_14  and  C_17 
REMARK    3  A    between atoms: C_15  and  C_18 
REMARK    4  A    between atoms: C_16  and  C_22 
REMARK    5  A    between atoms: C_17  and  C_23 
REMARK    6  A    between atoms: C_18  and  C_24 
REMARK    7  A    between atoms: C_19  and  C_25 
REMARK    8  A    between atoms: C_20  and  C_26 
REMARK    9  A    between atoms: C_21  and  C_27 
ROOT
HETATM    1  O   UNL     1      33.043   9.080  -6.927  1.00  0.00    -0.304 OA
HETATM    2  O   UNL     1      35.927  12.545  -9.261  1.00  0.00    -0.304 OA
HETATM    3  O   UNL     1      34.757   7.995 -10.439  1.00  0.00    -0.304 OA
HETATM    4  O   UNL     1      33.374  11.651  -6.981  1.00  0.00    -0.270 OA
HETATM    5  O   UNL     1      34.176   4.627  -9.983  1.00  0.00    -0.270 OA
HETATM    6  O   UNL     1      33.955  11.064 -10.186  1.00  0.00    -0.270 OA
HETATM    7  O   UNL     1      33.344   6.891  -6.266  1.00  0.00    -0.263 OA
HETATM    8  O   UNL     1      37.057  10.785  -8.283  1.00  0.00    -0.263 OA
HETATM    9  O   UNL     1      33.759   6.827 -12.152  1.00  0.00    -0.263 OA
HETATM   10  N   UNL     1      35.485  11.422  -6.045  1.00  0.00    -0.340 N 
HETATM   11  N   UNL     1      32.751   6.069  -8.858  1.00  0.00    -0.340 N 
HETATM   12  N   UNL     1      35.134  10.137 -11.957  1.00  0.00    -0.340 N 
HETATM   13  C   UNL     1      36.018  12.502  -6.900  1.00  0.00     0.190 C 
HETATM   14  C   UNL     1      32.359   7.430  -8.436  1.00  0.00     0.190 C 
HETATM   15  C   UNL     1      34.010   9.241 -12.317  1.00  0.00     0.190 C 
HETATM   16  C   UNL     1      33.778   9.612  -5.804  1.00  0.00     0.227 C 
HETATM   17  C   UNL     1      36.128  11.991 -10.576  1.00  0.00     0.227 C 
HETATM   18  C   UNL     1      35.029   6.848  -9.627  1.00  0.00     0.227 C 
HETATM   19  C   UNL     1      34.175  10.994  -6.306  1.00  0.00     0.250 C 
HETATM   20  C   UNL     1      33.946   5.753  -9.524  1.00  0.00     0.250 C 
HETATM   21  C   UNL     1      34.977  11.024 -10.881  1.00  0.00     0.250 C 
HETATM   22  C   UNL     1      32.972   7.726  -7.076  1.00  0.00     0.283 C 
HETATM   23  C   UNL     1      36.413  11.824  -8.206  1.00  0.00     0.283 C 
HETATM   24  C   UNL     1      34.186   7.868 -11.669  1.00  0.00     0.283 C 
HETATM   25  C   UNL     1      36.379  10.770  -5.086  1.00  0.00     0.153 C 
HETATM   26  C   UNL     1      31.827   4.975  -8.558  1.00  0.00     0.153 C 
HETATM   27  C   UNL     1      36.373   9.969 -12.722  1.00  0.00     0.153 C 
ENDROOT
BRANCH  16  28
HETATM   28  C   UNL     1      32.875   9.720  -4.589  1.00  0.00     0.016 C 
HETATM   29  C   UNL     1      33.158   8.586  -3.605  1.00  0.00     0.012 C 
HETATM   30  C   UNL     1      31.405   9.712  -5.007  1.00  0.00     0.012 C 
ENDBRANCH  16  28
BRANCH  14  31
HETATM   31  C   UNL     1      30.853   7.687  -8.399  1.00  0.00     0.014 C 
HETATM   32  C   UNL     1      30.279   7.202  -7.065  1.00  0.00     0.012 C 
BRANCH  31  33
HETATM   33  C   UNL     1      30.507   9.171  -8.607  1.00  0.00     0.002 C 
HETATM   34  C   UNL     1      31.142   9.776  -9.852  1.00  0.00     0.005 C 
ENDBRANCH  31  33
ENDBRANCH  14  31
BRANCH  13  35
HETATM   35  C   UNL     1      37.200  13.286  -6.348  1.00  0.00     0.014 C 
HETATM   36  C   UNL     1      37.900  14.037  -7.484  1.00  0.00     0.012 C 
BRANCH  35  37
HETATM   37  C   UNL     1      36.785  14.279  -5.247  1.00  0.00     0.002 C 
HETATM   38  C   UNL     1      37.642  14.187  -3.992  1.00  0.00     0.005 C 
ENDBRANCH  35  37
ENDBRANCH  13  35
BRANCH  18  39
HETATM   39  C   UNL     1      36.369   6.268 -10.083  1.00  0.00     0.016 C 
HETATM   40  C   UNL     1      37.320   7.384 -10.507  1.00  0.00     0.012 C 
HETATM   41  C   UNL     1      36.993   5.424  -8.973  1.00  0.00     0.012 C 
ENDBRANCH  18  39
BRANCH  17  42
HETATM   42  C   UNL     1      36.108  13.154 -11.558  1.00  0.00     0.016 C 
HETATM   43  C   UNL     1      37.486  13.350 -12.191  1.00  0.00     0.012 C 
HETATM   44  C   UNL     1      35.651  14.438 -10.866  1.00  0.00     0.012 C 
ENDBRANCH  17  42
BRANCH  15  45
HETATM   45  C   UNL     1      33.786   9.125 -13.823  1.00  0.00     0.014 C 
HETATM   46  C   UNL     1      33.420  10.494 -14.407  1.00  0.00     0.012 C 
BRANCH  45  47
HETATM   47  C   UNL     1      35.013   8.558 -14.562  1.00  0.00     0.002 C 
HETATM   48  C   UNL     1      34.957   8.754 -16.070  1.00  0.00     0.005 C 
ENDBRANCH  45  47
ENDBRANCH  15  45
TORSDOF 9
ENDMDL
MODEL 13
REMARK VINA RESULT:    -4.942      2.567      7.040
REMARK INTER + INTRA:          -7.074
REMARK INTER:                  -7.268
REMARK INTRA:                   0.195
REMARK UNBOUND:                 0.469
REMARK  9 active torsions:
REMARK  status: ('A' for Active; 'I' for Inactive)
REMARK    1  A    between atoms: C_13  and  C_16 
REMARK    2  A    between atoms: C_14  and  C_17 
REMARK    3  A    between atoms: C_15  and  C_18 
REMARK    4  A    between atoms: C_16  and  C_22 
REMARK    5  A    between atoms: C_17  and  C_23 
REMARK    6  A    between atoms: C_18  and  C_24 
REMARK    7  A    between atoms: C_19  and  C_25 
REMARK    8  A    between atoms: C_20  and  C_26 
REMARK    9  A    between atoms: C_21  and  C_27 
ROOT
HETATM    1  O   UNL     1      35.683  10.578  -8.139  1.00  0.00    -0.304 OA
HETATM    2  O   UNL     1      33.031   6.396  -7.021  1.00  0.00    -0.304 OA
HETATM    3  O   UNL     1      36.934   7.097  -9.802  1.00  0.00    -0.304 OA
HETATM    4  O   UNL     1      34.058   9.707  -6.316  1.00  0.00    -0.270 OA
HETATM    5  O   UNL     1      38.964   8.634 -12.127  1.00  0.00    -0.270 OA
HETATM    6  O   UNL     1      35.624   6.853  -6.913  1.00  0.00    -0.270 OA
HETATM    7  O   UNL     1      36.370  11.595 -10.092  1.00  0.00    -0.263 OA
HETATM    8  O   UNL     1      32.774   7.210  -9.166  1.00  0.00    -0.263 OA
HETATM    9  O   UNL     1      39.109   6.368  -9.991  1.00  0.00    -0.263 OA
HETATM   10  N   UNL     1      32.323   9.652  -7.856  1.00  0.00    -0.340 N 
HETATM   11  N   UNL     1      38.530   9.842 -10.196  1.00  0.00    -0.340 N 
HETATM   12  N   UNL     1      36.260   5.061  -8.243  1.00  0.00    -0.340 N 
HETATM   13  C   UNL     1      31.803   8.398  -7.274  1.00  0.00     0.190 C 
HETATM   14  C   UNL     1      37.816  10.015  -8.913  1.00  0.00     0.190 C 
HETATM   15  C   UNL     1      37.681   5.478  -8.233  1.00  0.00     0.190 C 
HETATM   16  C   UNL     1      34.334  11.083  -8.250  1.00  0.00     0.227 C 
HETATM   17  C   UNL     1      33.873   5.324  -7.489  1.00  0.00     0.227 C 
HETATM   18  C   UNL     1      36.985   7.980 -10.927  1.00  0.00     0.227 C 
HETATM   19  C   UNL     1      33.556  10.112  -7.371  1.00  0.00     0.250 C 
HETATM   20  C   UNL     1      38.257   8.832 -11.132  1.00  0.00     0.250 C 
HETATM   21  C   UNL     1      35.324   5.819  -7.523  1.00  0.00     0.250 C 
HETATM   22  C   UNL     1      36.560  10.839  -9.150  1.00  0.00     0.283 C 
HETATM   23  C   UNL     1      32.580   7.282  -7.959  1.00  0.00     0.283 C 
HETATM   24  C   UNL     1      38.003   6.322  -9.467  1.00  0.00     0.283 C 
HETATM   25  C   UNL     1      31.614  10.259  -8.983  1.00  0.00     0.153 C 
HETATM   26  C   UNL     1      39.597  10.792 -10.511  1.00  0.00     0.153 C 
HETATM   27  C   UNL     1      35.924   3.906  -9.082  1.00  0.00     0.153 C 
ENDROOT
BRANCH  16  28
HETATM   28  C   UNL     1      34.255  12.493  -7.694  1.00  0.00     0.016 C 
HETATM   29  C   UNL     1      33.373  12.532  -6.448  1.00  0.00     0.012 C 
HETATM   30  C   UNL     1      33.728  13.460  -8.753  1.00  0.00     0.012 C 
ENDBRANCH  16  28
BRANCH  14  31
HETATM   31  C   UNL     1      38.645  10.637  -7.791  1.00  0.00     0.014 C 
HETATM   32  C   UNL     1      37.717  11.192  -6.708  1.00  0.00     0.012 C 
BRANCH  31  33
HETATM   33  C   UNL     1      39.631   9.633  -7.168  1.00  0.00     0.002 C 
HETATM   34  C   UNL     1      38.951   8.459  -6.478  1.00  0.00     0.005 C 
ENDBRANCH  31  33
ENDBRANCH  14  31
BRANCH  13  35
HETATM   35  C   UNL     1      30.308   8.150  -7.419  1.00  0.00     0.014 C 
HETATM   36  C   UNL     1      30.019   6.649  -7.320  1.00  0.00     0.012 C 
BRANCH  35  37
HETATM   37  C   UNL     1      29.480   8.909  -6.368  1.00  0.00     0.002 C 
HETATM   38  C   UNL     1      28.530   9.938  -6.969  1.00  0.00     0.005 C 
ENDBRANCH  35  37
ENDBRANCH  13  35
BRANCH  18  39
HETATM   39  C   UNL     1      36.656   7.157 -12.174  1.00  0.00     0.016 C 
HETATM   40  C   UNL     1      35.606   6.096 -11.855  1.00  0.00     0.012 C 
HETATM   41  C   UNL     1      36.176   8.065 -13.305  1.00  0.00     0.012 C 
ENDBRANCH  18  39
BRANCH  17  42
HETATM   42  C   UNL     1      33.734   4.180  -6.494  1.00  0.00     0.016 C 
HETATM   43  C   UNL     1      32.664   3.190  -6.956  1.00  0.00     0.012 C 
HETATM   44  C   UNL     1      33.403   4.713  -5.101  1.00  0.00     0.012 C 
ENDBRANCH  17  42
BRANCH  15  45
HETATM   45  C   UNL     1      38.655   4.311  -8.084  1.00  0.00     0.014 C 
HETATM   46  C   UNL     1      40.057   4.837  -7.754  1.00  0.00     0.012 C 
BRANCH  45  47
HETATM   47  C   UNL     1      38.213   3.306  -7.003  1.00  0.00     0.002 C 
HETATM   48  C   UNL     1      38.567   1.864  -7.336  1.00  0.00     0.005 C 
ENDBRANCH  45  47
ENDBRANCH  15  45
TORSDOF 9
ENDMDL
MODEL 14
REMARK VINA RESULT:    -4.931      2.416      6.063
REMARK INTER + INTRA:          -7.056
REMARK INTER:                  -6.992
REMARK INTRA:                  -0.064
REMARK UNBOUND:                 0.469
REMARK  9 active torsions:
REMARK  status: ('A' for Active; 'I' for Inactive)
REMARK    1  A    between atoms: C_13  and  C_16 
REMARK    2  A    between atoms: C_14  and  C_17 
REMARK    3  A    between atoms: C_15  and  C_18 
REMARK    4  A    between atoms: C_16  and  C_22 
REMARK    5  A    between atoms: C_17  and  C_23 
REMARK    6  A    between atoms: C_18  and  C_24 
REMARK    7  A    between atoms: C_19  and  C_25 
REMARK    8  A    between atoms: C_20  and  C_26 
REMARK    9  A    between atoms: C_21  and  C_27 
ROOT
HETATM    1  O   UNL     1      36.964   4.575  -9.139  1.00  0.00    -0.304 OA
HETATM    2  O   UNL     1      37.077   9.120  -6.881  1.00  0.00    -0.304 OA
HETATM    3  O   UNL     1      33.718   6.957  -9.619  1.00  0.00    -0.304 OA
HETATM    4  O   UNL     1      38.182   5.774  -7.189  1.00  0.00    -0.270 OA
HETATM    5  O   UNL     1      32.431   5.119 -12.237  1.00  0.00    -0.270 OA
HETATM    6  O   UNL     1      35.234   7.237  -6.836  1.00  0.00    -0.270 OA
HETATM    7  O   UNL     1      36.564   3.834 -11.286  1.00  0.00    -0.263 OA
HETATM    8  O   UNL     1      37.296   9.130  -9.179  1.00  0.00    -0.263 OA
HETATM    9  O   UNL     1      31.512   6.312  -9.508  1.00  0.00    -0.263 OA
HETATM   10  N   UNL     1      39.255   7.178  -8.692  1.00  0.00    -0.340 N 
HETATM   11  N   UNL     1      33.830   3.979 -10.782  1.00  0.00    -0.340 N 
HETATM   12  N   UNL     1      33.474   8.578  -7.535  1.00  0.00    -0.340 N 
HETATM   13  C   UNL     1      39.115   8.324  -7.771  1.00  0.00     0.190 C 
HETATM   14  C   UNL     1      34.764   3.959  -9.637  1.00  0.00     0.190 C 
HETATM   15  C   UNL     1      32.545   7.427  -7.608  1.00  0.00     0.190 C 
HETATM   16  C   UNL     1      38.315   4.986  -9.440  1.00  0.00     0.227 C 
HETATM   17  C   UNL     1      35.713   9.580  -6.973  1.00  0.00     0.227 C 
HETATM   18  C   UNL     1      33.930   6.498 -10.958  1.00  0.00     0.227 C 
HETATM   19  C   UNL     1      38.599   5.992  -8.333  1.00  0.00     0.250 C 
HETATM   20  C   UNL     1      33.315   5.144 -11.373  1.00  0.00     0.250 C 
HETATM   21  C   UNL     1      34.794   8.360  -7.111  1.00  0.00     0.250 C 
HETATM   22  C   UNL     1      36.188   4.097 -10.153  1.00  0.00     0.283 C 
HETATM   23  C   UNL     1      37.737   8.906  -8.059  1.00  0.00     0.283 C 
HETATM   24  C   UNL     1      32.493   6.867  -9.030  1.00  0.00     0.283 C 
HETATM   25  C   UNL     1      39.937   7.375  -9.973  1.00  0.00     0.153 C 
HETATM   26  C   UNL     1      33.415   2.691 -11.338  1.00  0.00     0.153 C 
HETATM   27  C   UNL     1      32.951   9.870  -7.992  1.00  0.00     0.153 C 
ENDROOT
BRANCH  16  28
HETATM   28  C   UNL     1      39.259   3.801  -9.345  1.00  0.00     0.016 C 
HETATM   29  C   UNL     1      40.291   4.022  -8.241  1.00  0.00     0.012 C 
HETATM   30  C   UNL     1      39.952   3.555 -10.684  1.00  0.00     0.012 C 
ENDBRANCH  16  28
BRANCH  14  31
HETATM   31  C   UNL     1      34.652   2.733  -8.732  1.00  0.00     0.014 C 
HETATM   32  C   UNL     1      35.875   1.834  -8.926  1.00  0.00     0.012 C 
BRANCH  31  33
HETATM   33  C   UNL     1      34.514   3.113  -7.247  1.00  0.00     0.002 C 
HETATM   34  C   UNL     1      35.710   2.702  -6.400  1.00  0.00     0.005 C 
ENDBRANCH  31  33
ENDBRANCH  14  31
BRANCH  13  35
HETATM   35  C   UNL     1      40.169   9.418  -7.881  1.00  0.00     0.014 C 
HETATM   36  C   UNL     1      39.611  10.733  -7.331  1.00  0.00     0.012 C 
BRANCH  35  37
HETATM   37  C   UNL     1      41.471   9.056  -7.145  1.00  0.00     0.002 C 
HETATM   38  C   UNL     1      41.248   8.239  -5.879  1.00  0.00     0.005 C 
ENDBRANCH  35  37
ENDBRANCH  13  35
BRANCH  18  39
HETATM   39  C   UNL     1      33.499   7.621 -11.904  1.00  0.00     0.016 C 
HETATM   40  C   UNL     1      33.752   8.985 -11.267  1.00  0.00     0.012 C 
HETATM   41  C   UNL     1      34.233   7.507 -13.239  1.00  0.00     0.012 C 
ENDBRANCH  18  39
BRANCH  17  42
HETATM   42  C   UNL     1      35.406  10.324  -5.681  1.00  0.00     0.016 C 
HETATM   43  C   UNL     1      35.396  11.834  -5.917  1.00  0.00     0.012 C 
HETATM   44  C   UNL     1      36.415   9.960  -4.594  1.00  0.00     0.012 C 
ENDBRANCH  17  42
BRANCH  15  45
HETATM   45  C   UNL     1      31.147   7.741  -7.079  1.00  0.00     0.014 C 
HETATM   46  C   UNL     1      30.309   6.458  -7.018  1.00  0.00     0.012 C 
BRANCH  45  47
HETATM   47  C   UNL     1      31.176   8.407  -5.690  1.00  0.00     0.002 C 
HETATM   48  C   UNL     1      31.814   7.540  -4.615  1.00  0.00     0.005 C 
ENDBRANCH  45  47
ENDBRANCH  15  45
TORSDOF 9
ENDMDL
MODEL 15
REMARK VINA RESULT:    -4.912      2.232      6.517
REMARK INTER + INTRA:          -7.027
REMARK INTER:                  -7.239
REMARK INTRA:                   0.212
REMARK UNBOUND:                 0.469
REMARK  9 active torsions:
REMARK  status: ('A' for Active; 'I' for Inactive)
REMARK    1  A    between atoms: C_13  and  C_16 
REMARK    2  A    between atoms: C_14  and  C_17 
REMARK    3  A    between atoms: C_15  and  C_18 
REMARK    4  A    between atoms: C_16  and  C_22 
REMARK    5  A    between atoms: C_17  and  C_23 
REMARK    6  A    between atoms: C_18  and  C_24 
REMARK    7  A    between atoms: C_19  and  C_25 
REMARK    8  A    between atoms: C_20  and  C_26 
REMARK    9  A    between atoms: C_21  and  C_27 
ROOT
HETATM    1  O   UNL     1      33.214   7.324  -6.940  1.00  0.00    -0.304 OA
HETATM    2  O   UNL     1      37.118   4.181  -7.746  1.00  0.00    -0.304 OA
HETATM    3  O   UNL     1      35.963   8.462  -9.695  1.00  0.00    -0.304 OA
HETATM    4  O   UNL     1      34.473   5.402  -5.739  1.00  0.00    -0.270 OA
HETATM    5  O   UNL     1      33.961  10.910 -11.067  1.00  0.00    -0.270 OA
HETATM    6  O   UNL     1      37.084   6.767  -7.247  1.00  0.00    -0.270 OA
HETATM    7  O   UNL     1      31.647   8.351  -8.286  1.00  0.00    -0.263 OA
HETATM    8  O   UNL     1      35.540   4.282  -9.428  1.00  0.00    -0.263 OA
HETATM    9  O   UNL     1      36.854  10.567  -9.960  1.00  0.00    -0.263 OA
HETATM   10  N   UNL     1      33.721   3.886  -7.326  1.00  0.00    -0.340 N 
HETATM   11  N   UNL     1      33.508  10.338  -8.866  1.00  0.00    -0.340 N 
HETATM   12  N   UNL     1      38.323   7.407  -9.102  1.00  0.00    -0.340 N 
HETATM   13  C   UNL     1      35.019   3.183  -7.317  1.00  0.00     0.190 C 
HETATM   14  C   UNL     1      33.729   9.481  -7.683  1.00  0.00     0.190 C 
HETATM   15  C   UNL     1      38.133   8.847  -8.809  1.00  0.00     0.190 C 
HETATM   16  C   UNL     1      32.528   6.053  -6.965  1.00  0.00     0.227 C 
HETATM   17  C   UNL     1      38.042   4.976  -8.514  1.00  0.00     0.227 C 
HETATM   18  C   UNL     1      34.742   8.739 -10.387  1.00  0.00     0.227 C 
HETATM   19  C   UNL     1      33.642   5.082  -6.597  1.00  0.00     0.250 C 
HETATM   20  C   UNL     1      34.053  10.099 -10.138  1.00  0.00     0.250 C 
HETATM   21  C   UNL     1      37.768   6.458  -8.230  1.00  0.00     0.250 C 
HETATM   22  C   UNL     1      32.716   8.346  -7.693  1.00  0.00     0.283 C 
HETATM   23  C   UNL     1      35.895   3.939  -8.308  1.00  0.00     0.283 C 
HETATM   24  C   UNL     1      36.943   9.403  -9.592  1.00  0.00     0.283 C 
HETATM   25  C   UNL     1      32.650   3.389  -8.192  1.00  0.00     0.153 C 
HETATM   26  C   UNL     1      32.660  11.518  -8.699  1.00  0.00     0.153 C 
HETATM   27  C   UNL     1      39.028   7.081 -10.345  1.00  0.00     0.153 C 
ENDROOT
BRANCH  16  28
HETATM   28  C   UNL     1      31.427   6.030  -5.920  1.00  0.00     0.016 C 
HETATM   29  C   UNL     1      31.904   6.674  -4.620  1.00  0.00     0.012 C 
HETATM   30  C   UNL     1      30.955   4.599  -5.667  1.00  0.00     0.012 C 
ENDBRANCH  16  28
BRANCH  14  31
HETATM   31  C   UNL     1      33.685  10.209  -6.340  1.00  0.00     0.014 C 
HETATM   32  C   UNL     1      32.277  10.114  -5.746  1.00  0.00     0.012 C 
BRANCH  31  33
HETATM   33  C   UNL     1      34.712   9.653  -5.339  1.00  0.00     0.002 C 
HETATM   34  C   UNL     1      36.157   9.852  -5.775  1.00  0.00     0.005 C 
ENDBRANCH  31  33
ENDBRANCH  14  31
BRANCH  13  35
HETATM   35  C   UNL     1      34.994   1.703  -7.676  1.00  0.00     0.014 C 
HETATM   36  C   UNL     1      36.204   1.361  -8.550  1.00  0.00     0.012 C 
BRANCH  35  37
HETATM   37  C   UNL     1      34.977   0.796  -6.433  1.00  0.00     0.002 C 
HETATM   38  C   UNL     1      33.631   0.765  -5.721  1.00  0.00     0.005 C 
ENDBRANCH  35  37
ENDBRANCH  13  35
BRANCH  18  39
HETATM   39  C   UNL     1      34.992   8.503 -11.877  1.00  0.00     0.016 C 
HETATM   40  C   UNL     1      35.941   7.325 -12.082  1.00  0.00     0.012 C 
HETATM   41  C   UNL     1      33.673   8.264 -12.611  1.00  0.00     0.012 C 
ENDBRANCH  18  39
BRANCH  17  42
HETATM   42  C   UNL     1      39.443   4.604  -8.051  1.00  0.00     0.016 C 
HETATM   43  C   UNL     1      40.150   3.747  -9.100  1.00  0.00     0.012 C 
HETATM   44  C   UNL     1      39.392   3.873  -6.710  1.00  0.00     0.012 C 
ENDBRANCH  17  42
BRANCH  15  45
HETATM   45  C   UNL     1      39.391   9.683  -9.035  1.00  0.00     0.014 C 
HETATM   46  C   UNL     1      39.274  11.017  -8.288  1.00  0.00     0.012 C 
BRANCH  45  47
HETATM   47  C   UNL     1      40.674   8.953  -8.593  1.00  0.00     0.002 C 
HETATM   48  C   UNL     1      41.948   9.591  -9.125  1.00  0.00     0.005 C 
ENDBRANCH  45  47
ENDBRANCH  15  45
TORSDOF 9
ENDMDL
MODEL 16
REMARK VINA RESULT:    -4.823      2.647      5.667
REMARK INTER + INTRA:          -6.892
REMARK INTER:                  -7.072
REMARK INTRA:                   0.180
REMARK UNBOUND:                 0.469
REMARK  9 active torsions:
REMARK  status: ('A' for Active; 'I' for Inactive)
REMARK    1  A    between atoms: C_13  and  C_16 
REMARK    2  A    between atoms: C_14  and  C_17 
REMARK    3  A    between atoms: C_15  and  C_18 
REMARK    4  A    between atoms: C_16  and  C_22 
REMARK    5  A    between atoms: C_17  and  C_23 
REMARK    6  A    between atoms: C_18  and  C_24 
REMARK    7  A    between atoms: C_19  and  C_25 
REMARK    8  A    between atoms: C_20  and  C_26 
REMARK    9  A    between atoms: C_21  and  C_27 
ROOT
HETATM    1  O   UNL     1      36.090   3.701  -8.853  1.00  0.00    -0.304 OA
HETATM    2  O   UNL     1      38.470   7.585  -6.614  1.00  0.00    -0.304 OA
HETATM    3  O   UNL     1      34.838   7.436  -9.815  1.00  0.00    -0.304 OA
HETATM    4  O   UNL     1      37.524   4.179  -6.747  1.00  0.00    -0.270 OA
HETATM    5  O   UNL     1      33.067   6.411 -12.590  1.00  0.00    -0.270 OA
HETATM    6  O   UNL     1      35.898   7.060  -6.839  1.00  0.00    -0.270 OA
HETATM    7  O   UNL     1      35.605   3.128 -11.034  1.00  0.00    -0.263 OA
HETATM    8  O   UNL     1      38.933   7.274  -8.854  1.00  0.00    -0.263 OA
HETATM    9  O   UNL     1      32.658   8.142 -10.031  1.00  0.00    -0.263 OA
HETATM   10  N   UNL     1      39.375   4.612  -8.077  1.00  0.00    -0.340 N 
HETATM   11  N   UNL     1      33.392   4.813 -10.941  1.00  0.00    -0.340 N 
HETATM   12  N   UNL     1      35.300   9.089  -7.794  1.00  0.00    -0.340 N 
HETATM   13  C   UNL     1      39.795   5.716  -7.191  1.00  0.00     0.190 C 
HETATM   14  C   UNL     1      34.005   4.375  -9.670  1.00  0.00     0.190 C 
HETATM   15  C   UNL     1      33.901   8.650  -8.002  1.00  0.00     0.190 C 
HETATM   16  C   UNL     1      37.461   3.261  -8.952  1.00  0.00     0.227 C 
HETATM   17  C   UNL     1      37.626   8.717  -6.908  1.00  0.00     0.227 C 
HETATM   18  C   UNL     1      34.915   6.824 -11.106  1.00  0.00     0.227 C 
HETATM   19  C   UNL     1      38.126   4.029  -7.817  1.00  0.00     0.250 C 
HETATM   20  C   UNL     1      33.699   6.012 -11.605  1.00  0.00     0.250 C 
HETATM   21  C   UNL     1      36.204   8.210  -7.178  1.00  0.00     0.250 C 
HETATM   22  C   UNL     1      35.309   3.652  -9.970  1.00  0.00     0.283 C 
HETATM   23  C   UNL     1      39.031   6.939  -7.681  1.00  0.00     0.283 C 
HETATM   24  C   UNL     1      33.715   8.094  -9.414  1.00  0.00     0.283 C 
HETATM   25  C   UNL     1      40.197   4.286  -9.244  1.00  0.00     0.153 C 
HETATM   26  C   UNL     1      32.393   3.934 -11.550  1.00  0.00     0.153 C 
HETATM   27  C   UNL     1      35.656  10.408  -8.326  1.00  0.00     0.153 C 
ENDROOT
BRANCH  16  28
HETATM   28  C   UNL     1      37.553   1.765  -8.715  1.00  0.00     0.016 C 
HETATM   29  C   UNL     1      38.317   1.469  -7.426  1.00  0.00     0.012 C 
HETATM   30  C   UNL     1      38.217   1.071  -9.902  1.00  0.00     0.012 C 
ENDBRANCH  16  28
BRANCH  14  31
HETATM   31  C   UNL     1      33.113   3.502  -8.789  1.00  0.00     0.014 C 
HETATM   32  C   UNL     1      33.645   2.067  -8.774  1.00  0.00     0.012 C 
BRANCH  31  33
HETATM   33  C   UNL     1      33.011   4.036  -7.349  1.00  0.00     0.002 C 
HETATM   34  C   UNL     1      32.852   2.941  -6.304  1.00  0.00     0.005 C 
ENDBRANCH  31  33
ENDBRANCH  14  31
BRANCH  13  35
HETATM   35  C   UNL     1      41.285   6.022  -7.146  1.00  0.00     0.014 C 
HETATM   36  C   UNL     1      41.504   7.473  -6.705  1.00  0.00     0.012 C 
BRANCH  35  37
HETATM   37  C   UNL     1      42.053   5.073  -6.209  1.00  0.00     0.002 C 
HETATM   38  C   UNL     1      41.244   4.626  -4.999  1.00  0.00     0.005 C 
ENDBRANCH  35  37
ENDBRANCH  13  35
BRANCH  18  39
HETATM   39  C   UNL     1      35.310   7.910 -12.108  1.00  0.00     0.016 C 
HETATM   40  C   UNL     1      36.303   8.884 -11.479  1.00  0.00     0.012 C 
HETATM   41  C   UNL     1      35.898   7.285 -13.372  1.00  0.00     0.012 C 
ENDBRANCH  18  39
BRANCH  17  42
HETATM   42  C   UNL     1      37.638   9.614  -5.678  1.00  0.00     0.016 C 
HETATM   43  C   UNL     1      38.255  10.973  -6.007  1.00  0.00     0.012 C 
HETATM   44  C   UNL     1      38.395   8.946  -4.531  1.00  0.00     0.012 C 
ENDBRANCH  17  42
BRANCH  15  45
HETATM   45  C   UNL     1      32.871   9.733  -7.686  1.00  0.00     0.014 C 
HETATM   46  C   UNL     1      31.461   9.133  -7.689  1.00  0.00     0.012 C 
BRANCH  45  47
HETATM   47  C   UNL     1      33.136  10.426  -6.336  1.00  0.00     0.002 C 
HETATM   48  C   UNL     1      32.962  11.936  -6.385  1.00  0.00     0.005 C 
ENDBRANCH  45  47
ENDBRANCH  15  45
TORSDOF 9
ENDMDL
MODEL 17
REMARK VINA RESULT:    -4.619     17.504     22.119
REMARK INTER + INTRA:          -6.581
REMARK INTER:                  -6.826
REMARK INTRA:                   0.246
REMARK UNBOUND:                 0.469
REMARK  9 active torsions:
REMARK  status: ('A' for Active; 'I' for Inactive)
REMARK    1  A    between atoms: C_13  and  C_16 
REMARK    2  A    between atoms: C_14  and  C_17 
REMARK    3  A    between atoms: C_15  and  C_18 
REMARK    4  A    between atoms: C_16  and  C_22 
REMARK    5  A    between atoms: C_17  and  C_23 
REMARK    6  A    between atoms: C_18  and  C_24 
REMARK    7  A    between atoms: C_19  and  C_25 
REMARK    8  A    between atoms: C_20  and  C_26 
REMARK    9  A    between atoms: C_21  and  C_27 
ROOT
HETATM    1  O   UNL     1      27.823  24.065  -4.014  1.00  0.00    -0.304 OA
HETATM    2  O   UNL     1      30.658  24.122   0.197  1.00  0.00    -0.304 OA
HETATM    3  O   UNL     1      27.698  27.426  -1.748  1.00  0.00    -0.304 OA
HETATM    4  O   UNL     1      28.950  22.399  -2.378  1.00  0.00    -0.270 OA
HETATM    5  O   UNL     1      26.231  29.344  -4.208  1.00  0.00    -0.270 OA
HETATM    6  O   UNL     1      28.113  24.703  -0.155  1.00  0.00    -0.270 OA
HETATM    7  O   UNL     1      27.592  25.455  -5.839  1.00  0.00    -0.263 OA
HETATM    8  O   UNL     1      31.406  25.444  -1.541  1.00  0.00    -0.263 OA
HETATM    9  O   UNL     1      25.824  28.643  -1.199  1.00  0.00    -0.263 OA
HETATM   10  N   UNL     1      31.050  23.111  -3.063  1.00  0.00    -0.340 N 
HETATM   11  N   UNL     1      25.872  27.057  -4.349  1.00  0.00    -0.340 N 
HETATM   12  N   UNL     1      28.197  26.823   0.785  1.00  0.00    -0.340 N 
HETATM   13  C   UNL     1      31.568  23.017  -1.683  1.00  0.00     0.190 C 
HETATM   14  C   UNL     1      26.135  25.678  -3.889  1.00  0.00     0.190 C 
HETATM   15  C   UNL     1      26.789  27.107   0.423  1.00  0.00     0.190 C 
HETATM   16  C   UNL     1      29.043  23.474  -4.509  1.00  0.00     0.227 C 
HETATM   17  C   UNL     1      30.177  25.275   0.915  1.00  0.00     0.227 C 
HETATM   18  C   UNL     1      27.843  27.977  -3.061  1.00  0.00     0.227 C 
HETATM   19  C   UNL     1      29.671  22.920  -3.237  1.00  0.00     0.250 C 
HETATM   20  C   UNL     1      26.569  28.193  -3.907  1.00  0.00     0.250 C 
HETATM   21  C   UNL     1      28.742  25.571   0.463  1.00  0.00     0.250 C 
HETATM   22  C   UNL     1      27.255  25.080  -4.726  1.00  0.00     0.283 C 
HETATM   23  C   UNL     1      31.219  24.348  -1.030  1.00  0.00     0.283 C 
HETATM   24  C   UNL     1      26.717  27.858  -0.907  1.00  0.00     0.283 C 
HETATM   25  C   UNL     1      31.955  23.532  -4.134  1.00  0.00     0.153 C 
HETATM   26  C   UNL     1      24.809  27.251  -5.335  1.00  0.00     0.153 C 
HETATM   27  C   UNL     1      28.947  27.923   1.401  1.00  0.00     0.153 C 
ENDROOT
BRANCH  16  28
HETATM   28  C   UNL     1      28.727  22.354  -5.484  1.00  0.00     0.016 C 
HETATM   29  C   UNL     1      28.891  22.832  -6.925  1.00  0.00     0.012 C 
HETATM   30  C   UNL     1      27.314  21.822  -5.254  1.00  0.00     0.012 C 
ENDBRANCH  16  28
BRANCH  14  31
HETATM   31  C   UNL     1      24.921  24.750  -3.900  1.00  0.00     0.014 C 
HETATM   32  C   UNL     1      24.837  24.024  -5.245  1.00  0.00     0.012 C 
BRANCH  31  33
HETATM   33  C   UNL     1      24.959  23.724  -2.755  1.00  0.00     0.002 C 
HETATM   34  C   UNL     1      24.785  24.344  -1.376  1.00  0.00     0.005 C 
ENDBRANCH  31  33
ENDBRANCH  14  31
BRANCH  13  35
HETATM   35  C   UNL     1      33.058  22.744  -1.533  1.00  0.00     0.014 C 
HETATM   36  C   UNL     1      33.596  23.468  -0.296  1.00  0.00     0.012 C 
BRANCH  35  37
HETATM   37  C   UNL     1      33.375  21.242  -1.436  1.00  0.00     0.002 C 
HETATM   38  C   UNL     1      32.430  20.480  -0.516  1.00  0.00     0.005 C 
ENDBRANCH  35  37
ENDBRANCH  13  35
BRANCH  18  39
HETATM   39  C   UNL     1      28.655  29.267  -2.932  1.00  0.00     0.016 C 
HETATM   40  C   UNL     1      29.717  29.126  -1.844  1.00  0.00     0.012 C 
HETATM   41  C   UNL     1      29.299  29.630  -4.268  1.00  0.00     0.012 C 
ENDBRANCH  18  39
BRANCH  17  42
HETATM   42  C   UNL     1      30.197  24.919   2.395  1.00  0.00     0.016 C 
HETATM   43  C   UNL     1      31.275  25.716   3.129  1.00  0.00     0.012 C 
HETATM   44  C   UNL     1      30.418  23.419   2.587  1.00  0.00     0.012 C 
ENDBRANCH  17  42
BRANCH  15  45
HETATM   45  C   UNL     1      26.015  27.837   1.519  1.00  0.00     0.014 C 
HETATM   46  C   UNL     1      24.519  27.845   1.188  1.00  0.00     0.012 C 
BRANCH  45  47
HETATM   47  C   UNL     1      26.234  27.214   2.912  1.00  0.00     0.002 C 
HETATM   48  C   UNL     1      25.019  27.321   3.821  1.00  0.00     0.005 C 
ENDBRANCH  45  47
ENDBRANCH  15  45
TORSDOF 9
ENDMDL
MODEL 18
REMARK VINA RESULT:    -4.610      3.379      5.087
REMARK INTER + INTRA:          -6.566
REMARK INTER:                  -6.814
REMARK INTRA:                   0.248
REMARK UNBOUND:                 0.469
REMARK  9 active torsions:
REMARK  status: ('A' for Active; 'I' for Inactive)
REMARK    1  A    between atoms: C_13  and  C_16 
REMARK    2  A    between atoms: C_14  and  C_17 
REMARK    3  A    between atoms: C_15  and  C_18 
REMARK    4  A    between atoms: C_16  and  C_22 
REMARK    5  A    between atoms: C_17  and  C_23 
REMARK    6  A    between atoms: C_18  and  C_24 
REMARK    7  A    between atoms: C_19  and  C_25 
REMARK    8  A    between atoms: C_20  and  C_26 
REMARK    9  A    between atoms: C_21  and  C_27 
ROOT
HETATM    1  O   UNL     1      36.550   6.292  -8.431  1.00  0.00    -0.304 OA
HETATM    2  O   UNL     1      33.869  10.489  -7.448  1.00  0.00    -0.304 OA
HETATM    3  O   UNL     1      38.599   9.516  -7.073  1.00  0.00    -0.304 OA
HETATM    4  O   UNL     1      34.281   7.372  -9.069  1.00  0.00    -0.270 OA
HETATM    5  O   UNL     1      41.438   7.717  -6.306  1.00  0.00    -0.270 OA
HETATM    6  O   UNL     1      36.058  10.157  -8.876  1.00  0.00    -0.270 OA
HETATM    7  O   UNL     1      38.059   5.010  -7.248  1.00  0.00    -0.263 OA
HETATM    8  O   UNL     1      34.657   9.340  -5.606  1.00  0.00    -0.263 OA
HETATM    9  O   UNL     1      40.618  10.292  -7.858  1.00  0.00    -0.263 OA
HETATM   10  N   UNL     1      33.521   7.117  -6.892  1.00  0.00    -0.340 N 
HETATM   11  N   UNL     1      40.067   6.809  -7.940  1.00  0.00    -0.340 N 
HETATM   12  N   UNL     1      37.337  11.743  -7.765  1.00  0.00    -0.340 N 
HETATM   13  C   UNL     1      32.836   8.424  -6.943  1.00  0.00     0.190 C 
HETATM   14  C   UNL     1      38.811   6.810  -8.720  1.00  0.00     0.190 C 
HETATM   15  C   UNL     1      38.554  11.389  -8.532  1.00  0.00     0.190 C 
HETATM   16  C   UNL     1      35.407   5.723  -7.758  1.00  0.00     0.227 C 
HETATM   17  C   UNL     1      34.877  11.507  -7.289  1.00  0.00     0.227 C 
HETATM   18  C   UNL     1      39.155   8.471  -6.269  1.00  0.00     0.227 C 
HETATM   19  C   UNL     1      34.340   6.787  -7.981  1.00  0.00     0.250 C 
HETATM   20  C   UNL     1      40.328   7.649  -6.846  1.00  0.00     0.250 C 
HETATM   21  C   UNL     1      36.138  11.070  -8.045  1.00  0.00     0.250 C 
HETATM   22  C   UNL     1      37.797   5.911  -8.032  1.00  0.00     0.283 C 
HETATM   23  C   UNL     1      33.896   9.449  -6.559  1.00  0.00     0.283 C 
HETATM   24  C   UNL     1      39.400  10.376  -7.761  1.00  0.00     0.283 C 
HETATM   25  C   UNL     1      33.427   6.314  -5.671  1.00  0.00     0.153 C 
HETATM   26  C   UNL     1      41.110   5.864  -8.338  1.00  0.00     0.153 C 
HETATM   27  C   UNL     1      37.503  12.738  -6.701  1.00  0.00     0.153 C 
ENDROOT
BRANCH  16  28
HETATM   28  C   UNL     1      35.006   4.414  -8.415  1.00  0.00     0.016 C 
HETATM   29  C   UNL     1      33.602   4.516  -9.008  1.00  0.00     0.012 C 
HETATM   30  C   UNL     1      35.082   3.263  -7.414  1.00  0.00     0.012 C 
ENDBRANCH  16  28
BRANCH  14  31
HETATM   31  C   UNL     1      38.961   6.405 -10.186  1.00  0.00     0.014 C 
HETATM   32  C   UNL     1      38.357   5.016 -10.403  1.00  0.00     0.012 C 
BRANCH  31  33
HETATM   33  C   UNL     1      38.302   7.415 -11.142  1.00  0.00     0.002 C 
HETATM   34  C   UNL     1      37.122   6.843 -11.914  1.00  0.00     0.005 C 
ENDBRANCH  31  33
ENDBRANCH  14  31
BRANCH  13  35
HETATM   35  C   UNL     1      31.615   8.588  -6.049  1.00  0.00     0.014 C 
HETATM   36  C   UNL     1      31.486  10.048  -5.608  1.00  0.00     0.012 C 
BRANCH  35  37
HETATM   37  C   UNL     1      30.316   8.137  -6.740  1.00  0.00     0.002 C 
HETATM   38  C   UNL     1      29.221   9.196  -6.727  1.00  0.00     0.005 C 
ENDBRANCH  35  37
ENDBRANCH  13  35
BRANCH  18  39
HETATM   39  C   UNL     1      39.511   9.075  -4.909  1.00  0.00     0.016 C 
HETATM   40  C   UNL     1      38.334   9.872  -4.351  1.00  0.00     0.012 C 
HETATM   41  C   UNL     1      39.932   7.981  -3.930  1.00  0.00     0.012 C 
ENDBRANCH  18  39
BRANCH  17  42
HETATM   42  C   UNL     1      34.319  12.786  -7.898  1.00  0.00     0.016 C 
HETATM   43  C   UNL     1      33.869  13.753  -6.803  1.00  0.00     0.012 C 
HETATM   44  C   UNL     1      33.160  12.473  -8.844  1.00  0.00     0.012 C 
ENDBRANCH  17  42
BRANCH  15  45
HETATM   45  C   UNL     1      39.380  12.603  -8.955  1.00  0.00     0.014 C 
HETATM   46  C   UNL     1      40.380  12.202 -10.045  1.00  0.00     0.012 C 
BRANCH  45  47
HETATM   47  C   UNL     1      38.505  13.767  -9.458  1.00  0.00     0.002 C 
HETATM   48  C   UNL     1      39.138  15.135  -9.247  1.00  0.00     0.005 C 
ENDBRANCH  45  47
ENDBRANCH  15  45
TORSDOF 9
ENDMDL
MODEL 19
REMARK VINA RESULT:    -4.456      2.285      7.300
REMARK INTER + INTRA:          -6.331
REMARK INTER:                  -7.058
REMARK INTRA:                   0.727
REMARK UNBOUND:                 0.469
REMARK  9 active torsions:
REMARK  status: ('A' for Active; 'I' for Inactive)
REMARK    1  A    between atoms: C_13  and  C_16 
REMARK    2  A    between atoms: C_14  and  C_17 
REMARK    3  A    between atoms: C_15  and  C_18 
REMARK    4  A    between atoms: C_16  and  C_22 
REMARK    5  A    between atoms: C_17  and  C_23 
REMARK    6  A    between atoms: C_18  and  C_24 
REMARK    7  A    between atoms: C_19  and  C_25 
REMARK    8  A    between atoms: C_20  and  C_26 
REMARK    9  A    between atoms: C_21  and  C_27 
ROOT
HETATM    1  O   UNL     1      33.729   8.173  -7.454  1.00  0.00    -0.304 OA
HETATM    2  O   UNL     1      35.060   9.139 -12.256  1.00  0.00    -0.304 OA
HETATM    3  O   UNL     1      35.367   5.123  -9.566  1.00  0.00    -0.304 OA
HETATM    4  O   UNL     1      33.178   9.855  -9.348  1.00  0.00    -0.270 OA
HETATM    5  O   UNL     1      35.986   3.182  -6.784  1.00  0.00    -0.270 OA
HETATM    6  O   UNL     1      33.616   7.180 -11.246  1.00  0.00    -0.270 OA
HETATM    7  O   UNL     1      34.803   7.289  -5.614  1.00  0.00    -0.263 OA
HETATM    8  O   UNL     1      36.799   8.898 -10.756  1.00  0.00    -0.263 OA
HETATM    9  O   UNL     1      34.657   2.934  -9.593  1.00  0.00    -0.263 OA
HETATM   10  N   UNL     1      35.323  10.731  -9.224  1.00  0.00    -0.340 N 
HETATM   11  N   UNL     1      34.275   4.734  -6.584  1.00  0.00    -0.340 N 
HETATM   12  N   UNL     1      34.863   5.444 -12.149  1.00  0.00    -0.340 N 
HETATM   13  C   UNL     1      35.383  10.880 -10.692  1.00  0.00     0.190 C 
HETATM   14  C   UNL     1      33.493   5.871  -7.113  1.00  0.00     0.190 C 
HETATM   15  C   UNL     1      34.073   4.419 -11.429  1.00  0.00     0.190 C 
HETATM   16  C   UNL     1      34.348   9.468  -7.300  1.00  0.00     0.227 C 
HETATM   17  C   UNL     1      35.309   7.831 -12.810  1.00  0.00     0.227 C 
HETATM   18  C   UNL     1      36.080   5.023  -8.329  1.00  0.00     0.227 C 
HETATM   19  C   UNL     1      34.213  10.055  -8.699  1.00  0.00     0.250 C 
HETATM   20  C   UNL     1      35.438   4.219  -7.177  1.00  0.00     0.250 C 
HETATM   21  C   UNL     1      34.523   6.797 -11.996  1.00  0.00     0.250 C 
HETATM   22  C   UNL     1      34.098   7.171  -6.605  1.00  0.00     0.283 C 
HETATM   23  C   UNL     1      35.856   9.530 -11.215  1.00  0.00     0.283 C 
HETATM   24  C   UNL     1      34.757   4.036 -10.116  1.00  0.00     0.283 C 
HETATM   25  C   UNL     1      36.470  11.160  -8.421  1.00  0.00     0.153 C 
HETATM   26  C   UNL     1      33.801   4.102  -5.352  1.00  0.00     0.153 C 
HETATM   27  C   UNL     1      36.009   4.959 -12.924  1.00  0.00     0.153 C 
ENDROOT
BRANCH  16  28
HETATM   28  C   UNL     1      33.579  10.302  -6.291  1.00  0.00     0.016 C 
HETATM   29  C   UNL     1      32.126  10.473  -6.729  1.00  0.00     0.012 C 
HETATM   30  C   UNL     1      34.244  11.663  -6.099  1.00  0.00     0.012 C 
ENDBRANCH  16  28
BRANCH  14  31
HETATM   31  C   UNL     1      31.999   5.831  -6.798  1.00  0.00     0.014 C 
HETATM   32  C   UNL     1      31.646   6.955  -5.821  1.00  0.00     0.012 C 
BRANCH  31  33
HETATM   33  C   UNL     1      31.131   5.948  -8.063  1.00  0.00     0.002 C 
HETATM   34  C   UNL     1      30.628   7.360  -8.329  1.00  0.00     0.005 C 
ENDBRANCH  31  33
ENDBRANCH  14  31
BRANCH  13  35
HETATM   35  C   UNL     1      36.283  11.985 -11.228  1.00  0.00     0.014 C 
HETATM   36  C   UNL     1      36.697  11.664 -12.667  1.00  0.00     0.012 C 
BRANCH  35  37
HETATM   37  C   UNL     1      35.610  13.368 -11.177  1.00  0.00     0.002 C 
HETATM   38  C   UNL     1      35.795  14.182 -12.451  1.00  0.00     0.005 C 
ENDBRANCH  35  37
ENDBRANCH  13  35
BRANCH  18  39
HETATM   39  C   UNL     1      37.487   4.516  -8.649  1.00  0.00     0.016 C 
HETATM   40  C   UNL     1      37.882   4.891 -10.075  1.00  0.00     0.012 C 
HETATM   41  C   UNL     1      38.498   5.073  -7.648  1.00  0.00     0.012 C 
ENDBRANCH  18  39
BRANCH  17  42
HETATM   42  C   UNL     1      34.811   7.854 -14.248  1.00  0.00     0.016 C 
HETATM   43  C   UNL     1      35.975   7.701 -15.226  1.00  0.00     0.012 C 
HETATM   44  C   UNL     1      34.040   9.143 -14.533  1.00  0.00     0.012 C 
ENDBRANCH  17  42
BRANCH  15  45
HETATM   45  C   UNL     1      33.759   3.188 -12.277  1.00  0.00     0.014 C 
HETATM   46  C   UNL     1      34.816   2.104 -12.037  1.00  0.00     0.012 C 
BRANCH  45  47
HETATM   47  C   UNL     1      32.357   2.615 -11.993  1.00  0.00     0.002 C 
HETATM   48  C   UNL     1      32.291   1.099 -12.089  1.00  0.00     0.005 C 
ENDBRANCH  45  47
ENDBRANCH  15  45
TORSDOF 9
ENDMDL
MODEL 20
REMARK VINA RESULT:    -4.324      2.030      6.292
REMARK INTER + INTRA:          -6.130
REMARK INTER:                  -6.694
REMARK INTRA:                   0.565
REMARK UNBOUND:                 0.469
REMARK  9 active torsions:
REMARK  status: ('A' for Active; 'I' for Inactive)
REMARK    1  A    between atoms: C_13  and  C_16 
REMARK    2  A    between atoms: C_14  and  C_17 
REMARK    3  A    between atoms: C_15  and  C_18 
REMARK    4  A    between atoms: C_16  and  C_22 
REMARK    5  A    between atoms: C_17  and  C_23 
REMARK    6  A    between atoms: C_18  and  C_24 
REMARK    7  A    between atoms: C_19  and  C_25 
REMARK    8  A    between atoms: C_20  and  C_26 
REMARK    9  A    between atoms: C_21  and  C_27 
ROOT
HETATM    1  O   UNL     1      37.374   8.105  -8.351  1.00  0.00    -0.304 OA
HETATM    2  O   UNL     1      33.146   6.714  -5.909  1.00  0.00    -0.304 OA
HETATM    3  O   UNL     1      35.219   5.074  -9.968  1.00  0.00    -0.304 OA
HETATM    4  O   UNL     1      36.330   8.254  -5.982  1.00  0.00    -0.270 OA
HETATM    5  O   UNL     1      36.819   5.215 -13.019  1.00  0.00    -0.270 OA
HETATM    6  O   UNL     1      35.162   5.265  -6.793  1.00  0.00    -0.270 OA
HETATM    7  O   UNL     1      37.875   8.717 -10.517  1.00  0.00    -0.263 OA
HETATM    8  O   UNL     1      32.837   7.856  -7.892  1.00  0.00    -0.263 OA
HETATM    9  O   UNL     1      36.048   3.116 -10.848  1.00  0.00    -0.263 OA
HETATM   10  N   UNL     1      34.671   9.667  -6.778  1.00  0.00    -0.340 N 
HETATM   11  N   UNL     1      38.014   6.023 -11.203  1.00  0.00    -0.340 N 
HETATM   12  N   UNL     1      33.891   3.796  -8.062  1.00  0.00    -0.340 N 
HETATM   13  C   UNL     1      33.661   9.020  -5.916  1.00  0.00     0.190 C 
HETATM   14  C   UNL     1      38.099   6.399  -9.776  1.00  0.00     0.190 C 
HETATM   15  C   UNL     1      35.095   3.130  -8.610  1.00  0.00     0.190 C 
HETATM   16  C   UNL     1      36.822   9.398  -8.021  1.00  0.00     0.227 C 
HETATM   17  C   UNL     1      32.790   5.463  -6.531  1.00  0.00     0.227 C 
HETATM   18  C   UNL     1      35.492   5.873 -11.124  1.00  0.00     0.227 C 
HETATM   19  C   UNL     1      35.941   9.074  -6.823  1.00  0.00     0.250 C 
HETATM   20  C   UNL     1      36.830   5.656 -11.863  1.00  0.00     0.250 C 
HETATM   21  C   UNL     1      34.053   4.841  -7.139  1.00  0.00     0.250 C 
HETATM   22  C   UNL     1      37.785   7.880  -9.632  1.00  0.00     0.283 C 
HETATM   23  C   UNL     1      33.161   7.821  -6.712  1.00  0.00     0.283 C 
HETATM   24  C   UNL     1      35.479   3.737  -9.960  1.00  0.00     0.283 C 
HETATM   25  C   UNL     1      34.264  10.784  -7.632  1.00  0.00     0.153 C 
HETATM   26  C   UNL     1      39.252   6.036 -11.981  1.00  0.00     0.153 C 
HETATM   27  C   UNL     1      32.599   3.351  -8.594  1.00  0.00     0.153 C 
ENDROOT
BRANCH  16  28
HETATM   28  C   UNL     1      37.931  10.358  -7.630  1.00  0.00     0.016 C 
HETATM   29  C   UNL     1      38.922   9.680  -6.685  1.00  0.00     0.012 C 
HETATM   30  C   UNL     1      37.351  11.616  -6.985  1.00  0.00     0.012 C 
ENDBRANCH  16  28
BRANCH  14  31
HETATM   31  C   UNL     1      39.431   6.078  -9.102  1.00  0.00     0.014 C 
HETATM   32  C   UNL     1      40.293   7.341  -9.031  1.00  0.00     0.012 C 
BRANCH  31  33
HETATM   33  C   UNL     1      39.247   5.493  -7.691  1.00  0.00     0.002 C 
HETATM   34  C   UNL     1      39.853   4.107  -7.523  1.00  0.00     0.005 C 
ENDBRANCH  31  33
ENDBRANCH  14  31
BRANCH  13  35
HETATM   35  C   UNL     1      32.481   9.881  -5.486  1.00  0.00     0.014 C 
HETATM   36  C   UNL     1      31.169   9.172  -5.830  1.00  0.00     0.012 C 
BRANCH  35  37
HETATM   37  C   UNL     1      32.514  10.215  -3.984  1.00  0.00     0.002 C 
HETATM   38  C   UNL     1      32.974   9.054  -3.112  1.00  0.00     0.005 C 
ENDBRANCH  35  37
ENDBRANCH  13  35
BRANCH  18  39
HETATM   39  C   UNL     1      34.300   5.733 -12.072  1.00  0.00     0.016 C 
HETATM   40  C   UNL     1      33.021   5.450 -11.288  1.00  0.00     0.012 C 
HETATM   41  C   UNL     1      34.141   6.992 -12.923  1.00  0.00     0.012 C 
ENDBRANCH  18  39
BRANCH  17  42
HETATM   42  C   UNL     1      32.237   4.562  -5.436  1.00  0.00     0.016 C 
HETATM   43  C   UNL     1      30.718   4.435  -5.557  1.00  0.00     0.012 C 
HETATM   44  C   UNL     1      32.621   5.092  -4.055  1.00  0.00     0.012 C 
ENDBRANCH  17  42
BRANCH  15  45
HETATM   45  C   UNL     1      34.962   1.611  -8.697  1.00  0.00     0.014 C 
HETATM   46  C   UNL     1      36.248   1.004  -9.268  1.00  0.00     0.012 C 
BRANCH  45  47
HETATM   47  C   UNL     1      34.646   0.965  -7.334  1.00  0.00     0.002 C 
HETATM   48  C   UNL     1      33.424   0.059  -7.361  1.00  0.00     0.005 C 
ENDBRANCH  45  47
ENDBRANCH  15  45
TORSDOF 9
ENDMDL
