MODEL 1
REMARK VINA RESULT:    -7.562      0.000      0.000
REMARK INTER + INTRA:         -10.403
REMARK INTER:                 -11.541
REMARK INTRA:                   1.139
REMARK UNBOUND:                 1.139
REMARK  9 active torsions:
REMARK  status: ('A' for Active; 'I' for Inactive)
REMARK    1  A    between atoms: C_13  and  C_16 
REMARK    2  A    between atoms: C_14  and  C_17 
REMARK    3  A    between atoms: C_15  and  C_18 
REMARK    4  A    between atoms: C_16  and  C_22 
REMARK    5  A    between atoms: C_17  and  C_23 
REMARK    6  A    between atoms: C_18  and  C_24 
REMARK    7  A    between atoms: C_19  and  C_25 
REMARK    8  A    between atoms: C_20  and  C_26 
REMARK    9  A    between atoms: C_21  and  C_27 
ROOT
HETATM    1  O   UNL     1      26.271  23.468  34.588  1.00  0.00    -0.304 OA
HETATM    2  O   UNL     1      26.666  26.099  30.265  1.00  0.00    -0.304 OA
HETATM    3  O   UNL     1      28.529  21.843  31.637  1.00  0.00    -0.304 OA
HETATM    4  O   UNL     1      25.004  25.320  33.289  1.00  0.00    -0.270 OA
HETATM    5  O   UNL     1      30.044  19.539  33.706  1.00  0.00    -0.270 OA
HETATM    6  O   UNL     1      26.038  23.573  30.675  1.00  0.00    -0.270 OA
HETATM    7  O   UNL     1      27.774  22.526  36.063  1.00  0.00    -0.263 OA
HETATM    8  O   UNL     1      28.553  26.053  31.594  1.00  0.00    -0.263 OA
HETATM    9  O   UNL     1      28.545  19.640  30.975  1.00  0.00    -0.263 OA
HETATM   10  N   UNL     1      26.764  26.793  33.628  1.00  0.00    -0.340 N 
HETATM   11  N   UNL     1      27.967  20.311  34.389  1.00  0.00    -0.340 N 
HETATM   12  N   UNL     1      27.654  22.672  29.275  1.00  0.00    -0.340 N 
HETATM   13  C   UNL     1      26.603  27.349  32.269  1.00  0.00     0.190 C 
HETATM   14  C   UNL     1      26.812  21.221  34.235  1.00  0.00     0.190 C 
HETATM   15  C   UNL     1      27.315  21.286  29.673  1.00  0.00     0.190 C 
HETATM   16  C   UNL     1      26.465  24.801  35.108  1.00  0.00     0.227 C 
HETATM   17  C   UNL     1      27.247  25.154  29.344  1.00  0.00     0.227 C 
HETATM   18  C   UNL     1      29.375  21.653  32.775  1.00  0.00     0.227 C 
HETATM   19  C   UNL     1      25.991  25.668  33.949  1.00  0.00     0.250 C 
HETATM   20  C   UNL     1      29.156  20.398  33.648  1.00  0.00     0.250 C 
HETATM   21  C   UNL     1      26.926  23.736  29.829  1.00  0.00     0.250 C 
HETATM   22  C   UNL     1      27.033  22.455  35.094  1.00  0.00     0.283 C 
HETATM   23  C   UNL     1      27.413  26.433  31.360  1.00  0.00     0.283 C 
HETATM   24  C   UNL     1      28.232  20.810  30.800  1.00  0.00     0.283 C 
HETATM   25  C   UNL     1      27.803  27.343  34.501  1.00  0.00     0.153 C 
HETATM   26  C   UNL     1      27.862  19.246  35.386  1.00  0.00     0.153 C 
HETATM   27  C   UNL     1      28.797  22.830  28.369  1.00  0.00     0.153 C 
ENDROOT
BRANCH  16  28
HETATM   28  C   UNL     1      25.595  25.019  36.333  1.00  0.00     0.016 C 
HETATM   29  C   UNL     1      26.399  24.791  37.611  1.00  0.00     0.012 C 
HETATM   30  C   UNL     1      24.374  24.102  36.297  1.00  0.00     0.012 C 
ENDBRANCH  16  28
BRANCH  14  31
HETATM   31  C   UNL     1      25.453  20.599  34.551  1.00  0.00     0.014 C 
HETATM   32  C   UNL     1      25.099  20.848  36.019  1.00  0.00     0.012 C 
BRANCH  31  33
HETATM   33  C   UNL     1      24.335  21.143  33.645  1.00  0.00     0.002 C 
HETATM   34  C   UNL     1      22.945  21.023  34.253  1.00  0.00     0.005 C 
ENDBRANCH  31  33
ENDBRANCH  14  31
BRANCH  13  35
HETATM   35  C   UNL     1      27.042  28.793  32.068  1.00  0.00     0.014 C 
HETATM   36  C   UNL     1      26.728  29.236  30.637  1.00  0.00     0.012 C 
BRANCH  35  37
HETATM   37  C   UNL     1      26.376  29.754  33.068  1.00  0.00     0.002 C 
HETATM   38  C   UNL     1      24.857  29.777  32.972  1.00  0.00     0.005 C 
ENDBRANCH  35  37
ENDBRANCH  13  35
BRANCH  18  39
HETATM   39  C   UNL     1      30.824  21.754  32.293  1.00  0.00     0.016 C 
HETATM   40  C   UNL     1      30.961  22.840  31.229  1.00  0.00     0.012 C 
HETATM   41  C   UNL     1      31.761  22.032  33.468  1.00  0.00     0.012 C 
ENDBRANCH  18  39
BRANCH  17  42
HETATM   42  C   UNL     1      26.604  25.402  27.986  1.00  0.00     0.016 C 
HETATM   43  C   UNL     1      27.671  25.641  26.919  1.00  0.00     0.012 C 
HETATM   44  C   UNL     1      25.640  26.586  28.053  1.00  0.00     0.012 C 
ENDBRANCH  17  42
BRANCH  15  45
HETATM   45  C   UNL     1      27.308  20.303  28.504  1.00  0.00     0.014 C 
HETATM   46  C   UNL     1      28.717  19.740  28.285  1.00  0.00     0.012 C 
BRANCH  45  47
HETATM   47  C   UNL     1      26.314  19.144  28.711  1.00  0.00     0.002 C 
HETATM   48  C   UNL     1      25.267  19.427  29.778  1.00  0.00     0.005 C 
ENDBRANCH  45  47
ENDBRANCH  15  45
TORSDOF 9
ENDMDL
MODEL 2
REMARK VINA RESULT:    -7.545      1.931      6.375
REMARK INTER + INTRA:         -10.376
REMARK INTER:                 -10.398
REMARK INTRA:                   0.023
REMARK UNBOUND:                 1.139
REMARK  9 active torsions:
REMARK  status: ('A' for Active; 'I' for Inactive)
REMARK    1  A    between atoms: C_13  and  C_16 
REMARK    2  A    between atoms: C_14  and  C_17 
REMARK    3  A    between atoms: C_15  and  C_18 
REMARK    4  A    between atoms: C_16  and  C_22 
REMARK    5  A    between atoms: C_17  and  C_23 
REMARK    6  A    between atoms: C_18  and  C_24 
REMARK    7  A    between atoms: C_19  and  C_25 
REMARK    8  A    between atoms: C_20  and  C_26 
REMARK    9  A    between atoms: C_21  and  C_27 
ROOT
HETATM    1  O   UNL     1      29.089  23.197  28.980  1.00  0.00    -0.304 OA
HETATM    2  O   UNL     1      26.621  25.190  32.943  1.00  0.00    -0.304 OA
HETATM    3  O   UNL     1      27.952  20.646  31.920  1.00  0.00    -0.304 OA
HETATM    4  O   UNL     1      28.777  25.487  30.154  1.00  0.00    -0.270 OA
HETATM    5  O   UNL     1      28.446  17.815  30.015  1.00  0.00    -0.270 OA
HETATM    6  O   UNL     1      28.712  23.588  32.864  1.00  0.00    -0.270 OA
HETATM    7  O   UNL     1      28.682  21.465  27.513  1.00  0.00    -0.263 OA
HETATM    8  O   UNL     1      25.346  23.924  31.493  1.00  0.00    -0.263 OA
HETATM    9  O   UNL     1      29.207  18.940  32.820  1.00  0.00    -0.263 OA
HETATM   10  N   UNL     1      26.544  25.531  29.526  1.00  0.00    -0.340 N 
HETATM   11  N   UNL     1      29.678  19.683  29.404  1.00  0.00    -0.340 N 
HETATM   12  N   UNL     1      27.827  21.937  34.233  1.00  0.00    -0.340 N 
HETATM   13  C   UNL     1      26.157  26.123  30.822  1.00  0.00     0.190 C 
HETATM   14  C   UNL     1      30.001  21.118  29.541  1.00  0.00     0.190 C 
HETATM   15  C   UNL     1      28.992  21.047  34.018  1.00  0.00     0.190 C 
HETATM   16  C   UNL     1      28.187  24.098  28.303  1.00  0.00     0.227 C 
HETATM   17  C   UNL     1      26.631  24.128  33.919  1.00  0.00     0.227 C 
HETATM   18  C   UNL     1      27.553  19.924  30.752  1.00  0.00     0.227 C 
HETATM   19  C   UNL     1      27.877  25.119  29.390  1.00  0.00     0.250 C 
HETATM   20  C   UNL     1      28.603  19.042  30.042  1.00  0.00     0.250 C 
HETATM   21  C   UNL     1      27.812  23.199  33.619  1.00  0.00     0.250 C 
HETATM   22  C   UNL     1      29.181  21.911  28.535  1.00  0.00     0.283 C 
HETATM   23  C   UNL     1      25.972  24.941  31.765  1.00  0.00     0.283 C 
HETATM   24  C   UNL     1      28.711  20.058  32.886  1.00  0.00     0.283 C 
HETATM   25  C   UNL     1      25.507  25.279  28.523  1.00  0.00     0.153 C 
HETATM   26  C   UNL     1      30.539  18.873  28.543  1.00  0.00     0.153 C 
HETATM   27  C   UNL     1      26.725  21.387  35.029  1.00  0.00     0.153 C 
ENDROOT
BRANCH  16  28
HETATM   28  C   UNL     1      28.886  24.758  27.128  1.00  0.00     0.016 C 
HETATM   29  C   UNL     1      30.265  25.268  27.540  1.00  0.00     0.012 C 
HETATM   30  C   UNL     1      28.038  25.899  26.568  1.00  0.00     0.012 C 
ENDBRANCH  16  28
BRANCH  14  31
HETATM   31  C   UNL     1      31.482  21.464  29.396  1.00  0.00     0.014 C 
HETATM   32  C   UNL     1      31.748  22.026  27.997  1.00  0.00     0.012 C 
BRANCH  31  33
HETATM   33  C   UNL     1      31.955  22.468  30.461  1.00  0.00     0.002 C 
HETATM   34  C   UNL     1      31.837  21.946  31.886  1.00  0.00     0.005 C 
ENDBRANCH  31  33
ENDBRANCH  14  31
BRANCH  13  35
HETATM   35  C   UNL     1      24.904  26.988  30.828  1.00  0.00     0.014 C 
HETATM   36  C   UNL     1      24.435  27.212  32.269  1.00  0.00     0.012 C 
BRANCH  35  37
HETATM   37  C   UNL     1      25.122  28.344  30.135  1.00  0.00     0.002 C 
HETATM   38  C   UNL     1      26.444  29.007  30.498  1.00  0.00     0.005 C 
ENDBRANCH  35  37
ENDBRANCH  13  35
BRANCH  18  39
HETATM   39  C   UNL     1      26.300  19.122  31.111  1.00  0.00     0.016 C 
HETATM   40  C   UNL     1      25.431  19.899  32.097  1.00  0.00     0.012 C 
HETATM   41  C   UNL     1      25.507  18.775  29.853  1.00  0.00     0.012 C 
ENDBRANCH  18  39
BRANCH  17  42
HETATM   42  C   UNL     1      26.808  24.779  35.283  1.00  0.00     0.016 C 
HETATM   43  C   UNL     1      25.501  24.742  36.074  1.00  0.00     0.012 C 
HETATM   44  C   UNL     1      27.303  26.217  35.136  1.00  0.00     0.012 C 
ENDBRANCH  17  42
BRANCH  15  45
HETATM   45  C   UNL     1      29.452  20.332  35.286  1.00  0.00     0.014 C 
HETATM   46  C   UNL     1      30.769  19.593  35.022  1.00  0.00     0.012 C 
BRANCH  45  47
HETATM   47  C   UNL     1      29.627  21.293  36.478  1.00  0.00     0.002 C 
HETATM   48  C   UNL     1      30.518  22.486  36.168  1.00  0.00     0.005 C 
ENDBRANCH  45  47
ENDBRANCH  15  45
TORSDOF 9
ENDMDL
MODEL 3
REMARK VINA RESULT:    -7.523      2.011      6.245
REMARK INTER + INTRA:         -10.343
REMARK INTER:                 -10.648
REMARK INTRA:                   0.305
REMARK UNBOUND:                 1.139
REMARK  9 active torsions:
REMARK  status: ('A' for Active; 'I' for Inactive)
REMARK    1  A    between atoms: C_13  and  C_16 
REMARK    2  A    between atoms: C_14  and  C_17 
REMARK    3  A    between atoms: C_15  and  C_18 
REMARK    4  A    between atoms: C_16  and  C_22 
REMARK    5  A    between atoms: C_17  and  C_23 
REMARK    6  A    between atoms: C_18  and  C_24 
REMARK    7  A    between atoms: C_19  and  C_25 
REMARK    8  A    between atoms: C_20  and  C_26 
REMARK    9  A    between atoms: C_21  and  C_27 
ROOT
HETATM    1  O   UNL     1      30.586  22.121  31.264  1.00  0.00    -0.304 OA
HETATM    2  O   UNL     1      26.771  25.403  30.593  1.00  0.00    -0.304 OA
HETATM    3  O   UNL     1      27.134  21.374  33.257  1.00  0.00    -0.304 OA
HETATM    4  O   UNL     1      30.209  24.574  30.511  1.00  0.00    -0.270 OA
HETATM    5  O   UNL     1      27.978  18.121  34.028  1.00  0.00    -0.270 OA
HETATM    6  O   UNL     1      27.830  24.446  32.808  1.00  0.00    -0.270 OA
HETATM    7  O   UNL     1      30.814  19.833  31.085  1.00  0.00    -0.263 OA
HETATM    8  O   UNL     1      26.517  23.341  29.586  1.00  0.00    -0.263 OA
HETATM    9  O   UNL     1      26.931  20.692  35.445  1.00  0.00    -0.263 OA
HETATM   10  N   UNL     1      29.101  23.843  28.608  1.00  0.00    -0.340 N 
HETATM   11  N   UNL     1      29.748  19.569  33.643  1.00  0.00    -0.340 N 
HETATM   12  N   UNL     1      25.851  23.647  33.719  1.00  0.00    -0.340 N 
HETATM   13  C   UNL     1      28.126  24.948  28.712  1.00  0.00     0.190 C 
HETATM   14  C   UNL     1      30.272  20.886  33.223  1.00  0.00     0.190 C 
HETATM   15  C   UNL     1      26.556  23.025  34.863  1.00  0.00     0.190 C 
HETATM   16  C   UNL     1      30.663  22.327  29.836  1.00  0.00     0.227 C 
HETATM   17  C   UNL     1      25.835  25.052  31.631  1.00  0.00     0.227 C 
HETATM   18  C   UNL     1      27.444  20.078  32.735  1.00  0.00     0.227 C 
HETATM   19  C   UNL     1      30.000  23.688  29.673  1.00  0.00     0.250 C 
HETATM   20  C   UNL     1      28.404  19.175  33.541  1.00  0.00     0.250 C 
HETATM   21  C   UNL     1      26.597  24.355  32.764  1.00  0.00     0.250 C 
HETATM   22  C   UNL     1      30.595  20.843  31.738  1.00  0.00     0.283 C 
HETATM   23  C   UNL     1      27.044  24.444  29.657  1.00  0.00     0.283 C 
HETATM   24  C   UNL     1      26.850  21.552  34.577  1.00  0.00     0.283 C 
HETATM   25  C   UNL     1      28.988  22.900  27.494  1.00  0.00     0.153 C 
HETATM   26  C   UNL     1      30.699  18.608  34.202  1.00  0.00     0.153 C 
HETATM   27  C   UNL     1      24.407  23.408  33.634  1.00  0.00     0.153 C 
ENDROOT
BRANCH  16  28
HETATM   28  C   UNL     1      32.112  22.377  29.390  1.00  0.00     0.016 C 
HETATM   29  C   UNL     1      32.376  23.630  28.557  1.00  0.00     0.012 C 
HETATM   30  C   UNL     1      32.477  21.122  28.598  1.00  0.00     0.012 C 
ENDBRANCH  16  28
BRANCH  14  31
HETATM   31  C   UNL     1      31.485  21.378  34.010  1.00  0.00     0.014 C 
HETATM   32  C   UNL     1      32.614  21.744  33.043  1.00  0.00     0.012 C 
BRANCH  31  33
HETATM   33  C   UNL     1      31.153  22.585  34.905  1.00  0.00     0.002 C 
HETATM   34  C   UNL     1      30.361  22.218  36.152  1.00  0.00     0.005 C 
ENDBRANCH  31  33
ENDBRANCH  14  31
BRANCH  13  35
HETATM   35  C   UNL     1      27.494  25.422  27.410  1.00  0.00     0.014 C 
HETATM   36  C   UNL     1      26.428  26.480  27.707  1.00  0.00     0.012 C 
BRANCH  35  37
HETATM   37  C   UNL     1      28.530  25.989  26.425  1.00  0.00     0.002 C 
HETATM   38  C   UNL     1      27.912  26.787  25.284  1.00  0.00     0.005 C 
ENDBRANCH  35  37
ENDBRANCH  13  35
BRANCH  18  39
HETATM   39  C   UNL     1      26.120  19.368  32.446  1.00  0.00     0.016 C 
HETATM   40  C   UNL     1      25.086  20.358  31.915  1.00  0.00     0.012 C 
HETATM   41  C   UNL     1      26.328  18.226  31.454  1.00  0.00     0.012 C 
ENDBRANCH  18  39
BRANCH  17  42
HETATM   42  C   UNL     1      25.220  26.351  32.135  1.00  0.00     0.016 C 
HETATM   43  C   UNL     1      24.336  26.983  31.061  1.00  0.00     0.012 C 
HETATM   44  C   UNL     1      26.310  27.329  32.573  1.00  0.00     0.012 C 
ENDBRANCH  17  42
BRANCH  15  45
HETATM   45  C   UNL     1      25.829  23.202  36.194  1.00  0.00     0.014 C 
HETATM   46  C   UNL     1      26.783  22.905  37.356  1.00  0.00     0.012 C 
BRANCH  45  47
HETATM   47  C   UNL     1      25.234  24.613  36.361  1.00  0.00     0.002 C 
HETATM   48  C   UNL     1      23.895  24.626  37.082  1.00  0.00     0.005 C 
ENDBRANCH  45  47
ENDBRANCH  15  45
TORSDOF 9
ENDMDL
MODEL 4
REMARK VINA RESULT:    -7.264      2.066      4.438
REMARK INTER + INTRA:          -9.948
REMARK INTER:                 -10.130
REMARK INTRA:                   0.182
REMARK UNBOUND:                 1.139
REMARK  9 active torsions:
REMARK  status: ('A' for Active; 'I' for Inactive)
REMARK    1  A    between atoms: C_13  and  C_16 
REMARK    2  A    between atoms: C_14  and  C_17 
REMARK    3  A    between atoms: C_15  and  C_18 
REMARK    4  A    between atoms: C_16  and  C_22 
REMARK    5  A    between atoms: C_17  and  C_23 
REMARK    6  A    between atoms: C_18  and  C_24 
REMARK    7  A    between atoms: C_19  and  C_25 
REMARK    8  A    between atoms: C_20  and  C_26 
REMARK    9  A    between atoms: C_21  and  C_27 
ROOT
HETATM    1  O   UNL     1      25.187  24.347  33.218  1.00  0.00    -0.304 OA
HETATM    2  O   UNL     1      27.595  22.136  29.334  1.00  0.00    -0.304 OA
HETATM    3  O   UNL     1      27.828  21.403  34.117  1.00  0.00    -0.304 OA
HETATM    4  O   UNL     1      24.899  23.999  30.664  1.00  0.00    -0.270 OA
HETATM    5  O   UNL     1      27.982  22.205  37.466  1.00  0.00    -0.270 OA
HETATM    6  O   UNL     1      26.281  21.073  31.356  1.00  0.00    -0.270 OA
HETATM    7  O   UNL     1      25.851  25.350  35.185  1.00  0.00    -0.263 OA
HETATM    8  O   UNL     1      28.873  23.542  30.645  1.00  0.00    -0.263 OA
HETATM    9  O   UNL     1      27.531  19.713  35.650  1.00  0.00    -0.263 OA
HETATM   10  N   UNL     1      26.749  25.336  30.251  1.00  0.00    -0.340 N 
HETATM   11  N   UNL     1      26.045  22.833  36.356  1.00  0.00    -0.340 N 
HETATM   12  N   UNL     1      28.001  19.700  32.092  1.00  0.00    -0.340 N 
HETATM   13  C   UNL     1      27.181  24.454  29.147  1.00  0.00     0.190 C 
HETATM   14  C   UNL     1      25.258  22.980  35.114  1.00  0.00     0.190 C 
HETATM   15  C   UNL     1      27.229  19.264  33.278  1.00  0.00     0.190 C 
HETATM   16  C   UNL     1      25.513  25.503  32.417  1.00  0.00     0.227 C 
HETATM   17  C   UNL     1      28.202  20.971  29.929  1.00  0.00     0.227 C 
HETATM   18  C   UNL     1      28.182  22.402  35.077  1.00  0.00     0.227 C 
HETATM   19  C   UNL     1      25.668  24.897  31.028  1.00  0.00     0.250 C 
HETATM   20  C   UNL     1      27.396  22.452  36.405  1.00  0.00     0.250 C 
HETATM   21  C   UNL     1      27.409  20.594  31.186  1.00  0.00     0.250 C 
HETATM   22  C   UNL     1      25.474  24.376  34.550  1.00  0.00     0.283 C 
HETATM   23  C   UNL     1      27.999  23.353  29.809  1.00  0.00     0.283 C 
HETATM   24  C   UNL     1      27.583  20.118  34.495  1.00  0.00     0.283 C 
HETATM   25  C   UNL     1      27.544  26.526  30.560  1.00  0.00     0.153 C 
HETATM   26  C   UNL     1      25.366  23.104  37.623  1.00  0.00     0.153 C 
HETATM   27  C   UNL     1      29.380  19.210  31.995  1.00  0.00     0.153 C 
ENDROOT
BRANCH  16  28
HETATM   28  C   UNL     1      24.369  26.500  32.444  1.00  0.00     0.016 C 
HETATM   29  C   UNL     1      23.966  26.896  31.025  1.00  0.00     0.012 C 
HETATM   30  C   UNL     1      24.751  27.737  33.256  1.00  0.00     0.012 C 
ENDBRANCH  16  28
BRANCH  14  31
HETATM   31  C   UNL     1      23.763  22.700  35.258  1.00  0.00     0.014 C 
HETATM   32  C   UNL     1      22.967  23.975  34.973  1.00  0.00     0.012 C 
BRANCH  31  33
HETATM   33  C   UNL     1      23.288  21.569  34.329  1.00  0.00     0.002 C 
HETATM   34  C   UNL     1      23.916  20.218  34.643  1.00  0.00     0.005 C 
ENDBRANCH  31  33
ENDBRANCH  14  31
BRANCH  13  35
HETATM   35  C   UNL     1      27.994  25.103  28.036  1.00  0.00     0.014 C 
HETATM   36  C   UNL     1      29.055  24.123  27.529  1.00  0.00     0.012 C 
BRANCH  35  37
HETATM   37  C   UNL     1      27.116  25.571  26.862  1.00  0.00     0.002 C 
HETATM   38  C   UNL     1      26.611  27.000  27.012  1.00  0.00     0.005 C 
ENDBRANCH  35  37
ENDBRANCH  13  35
BRANCH  18  39
HETATM   39  C   UNL     1      29.688  22.291  35.323  1.00  0.00     0.016 C 
HETATM   40  C   UNL     1      30.409  21.858  34.049  1.00  0.00     0.012 C 
HETATM   41  C   UNL     1      30.248  23.617  35.833  1.00  0.00     0.012 C 
ENDBRANCH  18  39
BRANCH  17  42
HETATM   42  C   UNL     1      28.118  19.851  28.901  1.00  0.00     0.016 C 
HETATM   43  C   UNL     1      28.831  20.249  27.609  1.00  0.00     0.012 C 
HETATM   44  C   UNL     1      26.662  19.486  28.617  1.00  0.00     0.012 C 
ENDBRANCH  17  42
BRANCH  15  45
HETATM   45  C   UNL     1      27.370  17.773  33.580  1.00  0.00     0.014 C 
HETATM   46  C   UNL     1      26.468  17.389  34.758  1.00  0.00     0.012 C 
BRANCH  45  47
HETATM   47  C   UNL     1      27.036  16.888  32.363  1.00  0.00     0.002 C 
HETATM   48  C   UNL     1      27.949  15.680  32.223  1.00  0.00     0.005 C 
ENDBRANCH  45  47
ENDBRANCH  15  45
TORSDOF 9
ENDMDL
MODEL 5
REMARK VINA RESULT:    -7.180      2.017      7.741
REMARK INTER + INTRA:          -9.819
REMARK INTER:                 -10.383
REMARK INTRA:                   0.565
REMARK UNBOUND:                 1.139
REMARK  9 active torsions:
REMARK  status: ('A' for Active; 'I' for Inactive)
REMARK    1  A    between atoms: C_13  and  C_16 
REMARK    2  A    between atoms: C_14  and  C_17 
REMARK    3  A    between atoms: C_15  and  C_18 
REMARK    4  A    between atoms: C_16  and  C_22 
REMARK    5  A    between atoms: C_17  and  C_23 
REMARK    6  A    between atoms: C_18  and  C_24 
REMARK    7  A    between atoms: C_19  and  C_25 
REMARK    8  A    between atoms: C_20  and  C_26 
REMARK    9  A    between atoms: C_21  and  C_27 
ROOT
HETATM    1  O   UNL     1      27.805  24.049  30.319  1.00  0.00    -0.304 OA
HETATM    2  O   UNL     1      28.015  19.442  32.440  1.00  0.00    -0.304 OA
HETATM    3  O   UNL     1      26.209  23.648  34.025  1.00  0.00    -0.304 OA
HETATM    4  O   UNL     1      28.064  21.568  29.613  1.00  0.00    -0.270 OA
HETATM    5  O   UNL     1      26.067  27.041  34.617  1.00  0.00    -0.270 OA
HETATM    6  O   UNL     1      25.984  21.093  32.143  1.00  0.00    -0.270 OA
HETATM    7  O   UNL     1      28.430  26.171  30.971  1.00  0.00    -0.263 OA
HETATM    8  O   UNL     1      29.433  21.030  33.334  1.00  0.00    -0.263 OA
HETATM    9  O   UNL     1      24.221  24.535  34.769  1.00  0.00    -0.263 OA
HETATM   10  N   UNL     1      30.137  21.465  30.650  1.00  0.00    -0.340 N 
HETATM   11  N   UNL     1      26.047  26.393  32.390  1.00  0.00    -0.340 N 
HETATM   12  N   UNL     1      25.370  21.157  34.380  1.00  0.00    -0.340 N 
HETATM   13  C   UNL     1      29.868  20.093  31.126  1.00  0.00     0.190 C 
HETATM   14  C   UNL     1      26.158  25.352  31.347  1.00  0.00     0.190 C 
HETATM   15  C   UNL     1      24.338  22.190  34.131  1.00  0.00     0.190 C 
HETATM   16  C   UNL     1      29.153  23.663  29.977  1.00  0.00     0.227 C 
HETATM   17  C   UNL     1      27.126  19.547  33.570  1.00  0.00     0.227 C 
HETATM   18  C   UNL     1      26.964  24.854  34.173  1.00  0.00     0.227 C 
HETATM   19  C   UNL     1      29.075  22.143  30.033  1.00  0.00     0.250 C 
HETATM   20  C   UNL     1      26.304  26.186  33.755  1.00  0.00     0.250 C 
HETATM   21  C   UNL     1      26.117  20.668  33.297  1.00  0.00     0.250 C 
HETATM   22  C   UNL     1      27.600  25.280  30.868  1.00  0.00     0.283 C 
HETATM   23  C   UNL     1      29.109  20.263  32.436  1.00  0.00     0.283 C 
HETATM   24  C   UNL     1      24.899  23.587  34.393  1.00  0.00     0.283 C 
HETATM   25  C   UNL     1      31.424  22.087  30.968  1.00  0.00     0.153 C 
HETATM   26  C   UNL     1      25.639  27.733  31.969  1.00  0.00     0.153 C 
HETATM   27  C   UNL     1      25.586  20.774  35.778  1.00  0.00     0.153 C 
ENDROOT
BRANCH  16  28
HETATM   28  C   UNL     1      29.495  24.132  28.575  1.00  0.00     0.016 C 
HETATM   29  C   UNL     1      29.566  22.948  27.613  1.00  0.00     0.012 C 
HETATM   30  C   UNL     1      30.813  24.904  28.571  1.00  0.00     0.012 C 
ENDBRANCH  16  28
BRANCH  14  31
HETATM   31  C   UNL     1      25.219  25.529  30.155  1.00  0.00     0.014 C 
HETATM   32  C   UNL     1      25.998  26.085  28.961  1.00  0.00     0.012 C 
BRANCH  31  33
HETATM   33  C   UNL     1      24.523  24.215  29.759  1.00  0.00     0.002 C 
HETATM   34  C   UNL     1      24.947  23.689  28.395  1.00  0.00     0.005 C 
ENDBRANCH  31  33
ENDBRANCH  14  31
BRANCH  13  35
HETATM   35  C   UNL     1      31.080  19.199  31.345  1.00  0.00     0.014 C 
HETATM   36  C   UNL     1      30.727  18.078  32.327  1.00  0.00     0.012 C 
BRANCH  35  37
HETATM   37  C   UNL     1      31.610  18.595  30.033  1.00  0.00     0.002 C 
HETATM   38  C   UNL     1      30.516  18.292  29.018  1.00  0.00     0.005 C 
ENDBRANCH  35  37
ENDBRANCH  13  35
BRANCH  18  39
HETATM   39  C   UNL     1      27.468  24.908  35.617  1.00  0.00     0.016 C 
HETATM   40  C   UNL     1      27.445  23.517  36.246  1.00  0.00     0.012 C 
HETATM   41  C   UNL     1      28.875  25.500  35.672  1.00  0.00     0.012 C 
ENDBRANCH  18  39
BRANCH  17  42
HETATM   42  C   UNL     1      26.406  18.212  33.696  1.00  0.00     0.016 C 
HETATM   43  C   UNL     1      26.894  17.449  34.927  1.00  0.00     0.012 C 
HETATM   44  C   UNL     1      26.601  17.371  32.435  1.00  0.00     0.012 C 
ENDBRANCH  17  42
BRANCH  15  45
HETATM   45  C   UNL     1      23.043  21.952  34.905  1.00  0.00     0.014 C 
HETATM   46  C   UNL     1      22.451  20.589  34.532  1.00  0.00     0.012 C 
BRANCH  45  47
HETATM   47  C   UNL     1      23.243  22.029  36.431  1.00  0.00     0.002 C 
HETATM   48  C   UNL     1      21.950  22.242  37.202  1.00  0.00     0.005 C 
ENDBRANCH  45  47
ENDBRANCH  15  45
TORSDOF 9
ENDMDL
MODEL 6
REMARK VINA RESULT:    -7.138      1.713      6.300
REMARK INTER + INTRA:          -9.755
REMARK INTER:                 -10.872
REMARK INTRA:                   1.117
REMARK UNBOUND:                 1.139
REMARK  9 active torsions:
REMARK  status: ('A' for Active; 'I' for Inactive)
REMARK    1  A    between atoms: C_13  and  C_16 
REMARK    2  A    between atoms: C_14  and  C_17 
REMARK    3  A    between atoms: C_15  and  C_18 
REMARK    4  A    between atoms: C_16  and  C_22 
REMARK    5  A    between atoms: C_17  and  C_23 
REMARK    6  A    between atoms: C_18  and  C_24 
REMARK    7  A    between atoms: C_19  and  C_25 
REMARK    8  A    between atoms: C_20  and  C_26 
REMARK    9  A    between atoms: C_21  and  C_27 
ROOT
HETATM    1  O   UNL     1      27.812  24.668  29.516  1.00  0.00    -0.304 OA
HETATM    2  O   UNL     1      26.468  25.474  34.344  1.00  0.00    -0.304 OA
HETATM    3  O   UNL     1      27.740  21.445  31.975  1.00  0.00    -0.304 OA
HETATM    4  O   UNL     1      27.704  26.610  31.231  1.00  0.00    -0.270 OA
HETATM    5  O   UNL     1      27.845  19.152  29.403  1.00  0.00    -0.270 OA
HETATM    6  O   UNL     1      28.546  24.203  33.340  1.00  0.00    -0.270 OA
HETATM    7  O   UNL     1      27.112  23.236  27.849  1.00  0.00    -0.263 OA
HETATM    8  O   UNL     1      24.914  24.380  33.033  1.00  0.00    -0.263 OA
HETATM    9  O   UNL     1      29.309  19.765  32.086  1.00  0.00    -0.263 OA
HETATM   10  N   UNL     1      25.387  26.496  31.248  1.00  0.00    -0.340 N 
HETATM   11  N   UNL     1      28.725  21.246  28.938  1.00  0.00    -0.340 N 
HETATM   12  N   UNL     1      28.203  22.207  34.472  1.00  0.00    -0.340 N 
HETATM   13  C   UNL     1      25.352  26.754  32.702  1.00  0.00     0.190 C 
HETATM   14  C   UNL     1      28.980  22.653  29.313  1.00  0.00     0.190 C 
HETATM   15  C   UNL     1      29.311  21.537  33.753  1.00  0.00     0.190 C 
HETATM   16  C   UNL     1      26.696  25.566  29.333  1.00  0.00     0.227 C 
HETATM   17  C   UNL     1      26.827  24.245  35.007  1.00  0.00     0.227 C 
HETATM   18  C   UNL     1      27.068  20.933  30.821  1.00  0.00     0.227 C 
HETATM   19  C   UNL     1      26.648  26.294  30.669  1.00  0.00     0.250 C 
HETATM   20  C   UNL     1      27.924  20.356  29.672  1.00  0.00     0.250 C 
HETATM   21  C   UNL     1      27.930  23.555  34.195  1.00  0.00     0.250 C 
HETATM   22  C   UNL     1      27.855  23.523  28.776  1.00  0.00     0.283 C 
HETATM   23  C   UNL     1      25.524  25.391  33.358  1.00  0.00     0.283 C 
HETATM   24  C   UNL     1      28.782  20.773  32.540  1.00  0.00     0.283 C 
HETATM   25  C   UNL     1      24.124  26.324  30.528  1.00  0.00     0.153 C 
HETATM   26  C   UNL     1      29.352  20.748  27.714  1.00  0.00     0.153 C 
HETATM   27  C   UNL     1      27.415  21.370  35.383  1.00  0.00     0.153 C 
ENDROOT
BRANCH  16  28
HETATM   28  C   UNL     1      26.982  26.536  28.201  1.00  0.00     0.016 C 
HETATM   29  C   UNL     1      25.963  27.674  28.197  1.00  0.00     0.012 C 
HETATM   30  C   UNL     1      26.982  25.812  26.856  1.00  0.00     0.012 C 
ENDBRANCH  16  28
BRANCH  14  31
HETATM   31  C   UNL     1      30.331  23.207  28.864  1.00  0.00     0.014 C 
HETATM   32  C   UNL     1      30.125  24.521  28.107  1.00  0.00     0.012 C 
BRANCH  31  33
HETATM   33  C   UNL     1      31.294  23.429  30.043  1.00  0.00     0.002 C 
HETATM   34  C   UNL     1      31.733  22.139  30.722  1.00  0.00     0.005 C 
ENDBRANCH  31  33
ENDBRANCH  14  31
BRANCH  13  35
HETATM   35  C   UNL     1      24.101  27.432  33.243  1.00  0.00     0.014 C 
HETATM   36  C   UNL     1      23.547  26.631  34.424  1.00  0.00     0.012 C 
BRANCH  35  37
HETATM   37  C   UNL     1      24.360  28.886  33.676  1.00  0.00     0.002 C 
HETATM   38  C   UNL     1      25.813  29.316  33.527  1.00  0.00     0.005 C 
ENDBRANCH  35  37
ENDBRANCH  13  35
BRANCH  18  39
HETATM   39  C   UNL     1      26.027  19.921  31.304  1.00  0.00     0.016 C 
HETATM   40  C   UNL     1      25.247  20.479  32.492  1.00  0.00     0.012 C 
HETATM   41  C   UNL     1      25.078  19.543  30.168  1.00  0.00     0.012 C 
ENDBRANCH  18  39
BRANCH  17  42
HETATM   42  C   UNL     1      27.349  24.619  36.388  1.00  0.00     0.016 C 
HETATM   43  C   UNL     1      26.298  24.329  37.459  1.00  0.00     0.012 C 
HETATM   44  C   UNL     1      27.762  26.090  36.429  1.00  0.00     0.012 C 
ENDBRANCH  17  42
BRANCH  15  45
HETATM   45  C   UNL     1      30.163  20.641  34.650  1.00  0.00     0.014 C 
HETATM   46  C   UNL     1      31.420  20.190  33.898  1.00  0.00     0.012 C 
BRANCH  45  47
HETATM   47  C   UNL     1      30.568  21.334  35.966  1.00  0.00     0.002 C 
HETATM   48  C   UNL     1      30.578  20.399  37.165  1.00  0.00     0.005 C 
ENDBRANCH  45  47
ENDBRANCH  15  45
TORSDOF 9
ENDMDL
MODEL 7
REMARK VINA RESULT:    -7.069      2.251      6.692
REMARK INTER + INTRA:          -9.650
REMARK INTER:                 -10.167
REMARK INTRA:                   0.517
REMARK UNBOUND:                 1.139
REMARK  9 active torsions:
REMARK  status: ('A' for Active; 'I' for Inactive)
REMARK    1  A    between atoms: C_13  and  C_16 
REMARK    2  A    between atoms: C_14  and  C_17 
REMARK    3  A    between atoms: C_15  and  C_18 
REMARK    4  A    between atoms: C_16  and  C_22 
REMARK    5  A    between atoms: C_17  and  C_23 
REMARK    6  A    between atoms: C_18  and  C_24 
REMARK    7  A    between atoms: C_19  and  C_25 
REMARK    8  A    between atoms: C_20  and  C_26 
REMARK    9  A    between atoms: C_21  and  C_27 
ROOT
HETATM    1  O   UNL     1      29.757  22.790  34.382  1.00  0.00    -0.304 OA
HETATM    2  O   UNL     1      30.419  21.626  29.486  1.00  0.00    -0.304 OA
HETATM    3  O   UNL     1      26.589  23.333  31.910  1.00  0.00    -0.304 OA
HETATM    4  O   UNL     1      31.684  22.499  32.672  1.00  0.00    -0.270 OA
HETATM    5  O   UNL     1      24.303  23.623  34.475  1.00  0.00    -0.270 OA
HETATM    6  O   UNL     1      29.452  23.806  30.607  1.00  0.00    -0.270 OA
HETATM    7  O   UNL     1      28.217  22.211  35.999  1.00  0.00    -0.263 OA
HETATM    8  O   UNL     1      29.094  20.175  30.698  1.00  0.00    -0.263 OA
HETATM    9  O   UNL     1      25.158  25.135  31.887  1.00  0.00    -0.263 OA
HETATM   10  N   UNL     1      31.233  20.228  32.516  1.00  0.00    -0.340 N 
HETATM   11  N   UNL     1      26.498  24.158  35.000  1.00  0.00    -0.340 N 
HETATM   12  N   UNL     1      27.442  23.825  29.448  1.00  0.00    -0.340 N 
HETATM   13  C   UNL     1      31.502  20.241  31.064  1.00  0.00     0.190 C 
HETATM   14  C   UNL     1      27.931  24.226  34.646  1.00  0.00     0.190 C 
HETATM   15  C   UNL     1      26.932  24.976  30.230  1.00  0.00     0.190 C 
HETATM   16  C   UNL     1      30.480  21.546  34.502  1.00  0.00     0.227 C 
HETATM   17  C   UNL     1      29.264  22.199  28.841  1.00  0.00     0.227 C 
HETATM   18  C   UNL     1      25.969  22.678  33.021  1.00  0.00     0.227 C 
HETATM   19  C   UNL     1      31.210  21.469  33.168  1.00  0.00     0.250 C 
HETATM   20  C   UNL     1      25.510  23.540  34.216  1.00  0.00     0.250 C 
HETATM   21  C   UNL     1      28.732  23.342  29.714  1.00  0.00     0.250 C 
HETATM   22  C   UNL     1      28.621  22.956  35.119  1.00  0.00     0.283 C 
HETATM   23  C   UNL     1      30.186  20.649  30.414  1.00  0.00     0.283 C 
HETATM   24  C   UNL     1      26.083  24.494  31.406  1.00  0.00     0.283 C 
HETATM   25  C   UNL     1      30.869  18.964  33.159  1.00  0.00     0.153 C 
HETATM   26  C   UNL     1      26.081  24.779  36.257  1.00  0.00     0.153 C 
HETATM   27  C   UNL     1      26.510  23.223  28.489  1.00  0.00     0.153 C 
ENDROOT
BRANCH  16  28
HETATM   28  C   UNL     1      31.467  21.620  35.652  1.00  0.00     0.016 C 
HETATM   29  C   UNL     1      32.819  21.039  35.241  1.00  0.00     0.012 C 
HETATM   30  C   UNL     1      30.923  20.890  36.879  1.00  0.00     0.012 C 
ENDBRANCH  16  28
BRANCH  14  31
HETATM   31  C   UNL     1      28.671  25.453  35.178  1.00  0.00     0.014 C 
HETATM   32  C   UNL     1      29.808  25.011  36.102  1.00  0.00     0.012 C 
BRANCH  31  33
HETATM   33  C   UNL     1      29.229  26.334  34.047  1.00  0.00     0.002 C 
HETATM   34  C   UNL     1      28.152  27.045  33.240  1.00  0.00     0.005 C 
ENDBRANCH  31  33
ENDBRANCH  14  31
BRANCH  13  35
HETATM   35  C   UNL     1      31.997  18.937  30.452  1.00  0.00     0.014 C 
HETATM   36  C   UNL     1      31.026  18.475  29.362  1.00  0.00     0.012 C 
BRANCH  35  37
HETATM   37  C   UNL     1      33.414  19.063  29.867  1.00  0.00     0.002 C 
HETATM   38  C   UNL     1      33.432  19.398  28.382  1.00  0.00     0.005 C 
ENDBRANCH  35  37
ENDBRANCH  13  35
BRANCH  18  39
HETATM   39  C   UNL     1      24.823  21.826  32.472  1.00  0.00     0.016 C 
HETATM   40  C   UNL     1      25.277  21.042  31.244  1.00  0.00     0.012 C 
HETATM   41  C   UNL     1      24.295  20.880  33.549  1.00  0.00     0.012 C 
ENDBRANCH  18  39
BRANCH  17  42
HETATM   42  C   UNL     1      29.727  22.740  27.495  1.00  0.00     0.016 C 
HETATM   43  C   UNL     1      30.433  21.650  26.689  1.00  0.00     0.012 C 
HETATM   44  C   UNL     1      30.648  23.945  27.685  1.00  0.00     0.012 C 
ENDBRANCH  17  42
BRANCH  15  45
HETATM   45  C   UNL     1      26.181  26.001  29.381  1.00  0.00     0.014 C 
HETATM   46  C   UNL     1      26.273  27.386  30.030  1.00  0.00     0.012 C 
BRANCH  45  47
HETATM   47  C   UNL     1      26.707  26.071  27.935  1.00  0.00     0.002 C 
HETATM   48  C   UNL     1      26.290  27.335  27.199  1.00  0.00     0.005 C 
ENDBRANCH  45  47
ENDBRANCH  15  45
TORSDOF 9
ENDMDL
MODEL 8
REMARK VINA RESULT:    -7.034      2.382      6.682
REMARK INTER + INTRA:          -9.596
REMARK INTER:                 -10.114
REMARK INTRA:                   0.518
REMARK UNBOUND:                 1.139
REMARK  9 active torsions:
REMARK  status: ('A' for Active; 'I' for Inactive)
REMARK    1  A    between atoms: C_13  and  C_16 
REMARK    2  A    between atoms: C_14  and  C_17 
REMARK    3  A    between atoms: C_15  and  C_18 
REMARK    4  A    between atoms: C_16  and  C_22 
REMARK    5  A    between atoms: C_17  and  C_23 
REMARK    6  A    between atoms: C_18  and  C_24 
REMARK    7  A    between atoms: C_19  and  C_25 
REMARK    8  A    between atoms: C_20  and  C_26 
REMARK    9  A    between atoms: C_21  and  C_27 
ROOT
HETATM    1  O   UNL     1      27.667  24.071  34.453  1.00  0.00    -0.304 OA
HETATM    2  O   UNL     1      31.868  21.409  33.438  1.00  0.00    -0.304 OA
HETATM    3  O   UNL     1      28.048  22.582  30.701  1.00  0.00    -0.304 OA
HETATM    4  O   UNL     1      30.081  23.786  35.354  1.00  0.00    -0.270 OA
HETATM    5  O   UNL     1      24.734  23.076  29.886  1.00  0.00    -0.270 OA
HETATM    6  O   UNL     1      30.762  23.415  32.136  1.00  0.00    -0.270 OA
HETATM    7  O   UNL     1      25.403  23.690  34.223  1.00  0.00    -0.263 OA
HETATM    8  O   UNL     1      29.917  20.187  33.615  1.00  0.00    -0.263 OA
HETATM    9  O   UNL     1      27.567  23.675  28.734  1.00  0.00    -0.263 OA
HETATM   10  N   UNL     1      29.604  21.614  36.013  1.00  0.00    -0.340 N 
HETATM   11  N   UNL     1      25.590  24.445  31.551  1.00  0.00    -0.340 N 
HETATM   12  N   UNL     1      30.615  22.344  30.083  1.00  0.00    -0.340 N 
HETATM   13  C   UNL     1      30.946  21.158  35.599  1.00  0.00     0.190 C 
HETATM   14  C   UNL     1      26.676  24.830  32.476  1.00  0.00     0.190 C 
HETATM   15  C   UNL     1      29.876  23.476  29.476  1.00  0.00     0.190 C 
HETATM   16  C   UNL     1      27.767  23.271  35.651  1.00  0.00     0.227 C 
HETATM   17  C   UNL     1      31.856  21.289  32.001  1.00  0.00     0.227 C 
HETATM   18  C   UNL     1      26.692  22.238  31.003  1.00  0.00     0.227 C 
HETATM   19  C   UNL     1      29.252  22.931  35.685  1.00  0.00     0.250 C 
HETATM   20  C   UNL     1      25.595  23.293  30.748  1.00  0.00     0.250 C 
HETATM   21  C   UNL     1      31.028  22.442  31.421  1.00  0.00     0.250 C 
HETATM   22  C   UNL     1      26.466  24.131  33.810  1.00  0.00     0.283 C 
HETATM   23  C   UNL     1      30.824  20.841  34.114  1.00  0.00     0.283 C 
HETATM   24  C   UNL     1      28.368  23.233  29.548  1.00  0.00     0.283 C 
HETATM   25  C   UNL     1      28.676  20.646  36.603  1.00  0.00     0.153 C 
HETATM   26  C   UNL     1      24.427  25.329  31.469  1.00  0.00     0.153 C 
HETATM   27  C   UNL     1      30.798  21.158  29.241  1.00  0.00     0.153 C 
ENDROOT
BRANCH  16  28
HETATM   28  C   UNL     1      27.375  24.091  36.866  1.00  0.00     0.016 C 
HETATM   29  C   UNL     1      25.960  23.738  37.320  1.00  0.00     0.012 C 
HETATM   30  C   UNL     1      27.485  25.585  36.567  1.00  0.00     0.012 C 
ENDBRANCH  16  28
BRANCH  14  31
HETATM   31  C   UNL     1      26.839  26.333  32.693  1.00  0.00     0.014 C 
HETATM   32  C   UNL     1      25.910  26.797  33.818  1.00  0.00     0.012 C 
BRANCH  31  33
HETATM   33  C   UNL     1      28.291  26.724  33.019  1.00  0.00     0.002 C 
HETATM   34  C   UNL     1      28.420  28.088  33.683  1.00  0.00     0.005 C 
ENDBRANCH  31  33
ENDBRANCH  14  31
BRANCH  13  35
HETATM   35  C   UNL     1      31.514  19.954  36.338  1.00  0.00     0.014 C 
HETATM   36  C   UNL     1      32.611  19.298  35.495  1.00  0.00     0.012 C 
BRANCH  35  37
HETATM   37  C   UNL     1      32.073  20.324  37.723  1.00  0.00     0.002 C 
HETATM   38  C   UNL     1      33.520  19.896  37.929  1.00  0.00     0.005 C 
ENDBRANCH  35  37
ENDBRANCH  13  35
BRANCH  18  39
HETATM   39  C   UNL     1      26.380  20.922  30.288  1.00  0.00     0.016 C 
HETATM   40  C   UNL     1      27.638  20.064  30.169  1.00  0.00     0.012 C 
HETATM   41  C   UNL     1      25.278  20.161  31.021  1.00  0.00     0.012 C 
ENDBRANCH  18  39
BRANCH  17  42
HETATM   42  C   UNL     1      33.300  21.394  31.533  1.00  0.00     0.016 C 
HETATM   43  C   UNL     1      33.786  20.057  30.974  1.00  0.00     0.012 C 
HETATM   44  C   UNL     1      34.206  21.856  32.674  1.00  0.00     0.012 C 
ENDBRANCH  17  42
BRANCH  15  45
HETATM   45  C   UNL     1      30.323  23.800  28.052  1.00  0.00     0.014 C 
HETATM   46  C   UNL     1      29.522  24.988  27.508  1.00  0.00     0.012 C 
BRANCH  45  47
HETATM   47  C   UNL     1      31.831  24.106  27.961  1.00  0.00     0.002 C 
HETATM   48  C   UNL     1      32.143  25.593  27.885  1.00  0.00     0.005 C 
ENDBRANCH  45  47
ENDBRANCH  15  45
TORSDOF 9
ENDMDL
MODEL 9
REMARK VINA RESULT:    -6.809      1.780      7.303
REMARK INTER + INTRA:          -9.253
REMARK INTER:                 -10.507
REMARK INTRA:                   1.255
REMARK UNBOUND:                 1.139
REMARK  9 active torsions:
REMARK  status: ('A' for Active; 'I' for Inactive)
REMARK    1  A    between atoms: C_13  and  C_16 
REMARK    2  A    between atoms: C_14  and  C_17 
REMARK    3  A    between atoms: C_15  and  C_18 
REMARK    4  A    between atoms: C_16  and  C_22 
REMARK    5  A    between atoms: C_17  and  C_23 
REMARK    6  A    between atoms: C_18  and  C_24 
REMARK    7  A    between atoms: C_19  and  C_25 
REMARK    8  A    between atoms: C_20  and  C_26 
REMARK    9  A    between atoms: C_21  and  C_27 
ROOT
HETATM    1  O   UNL     1      26.774  25.407  30.867  1.00  0.00    -0.304 OA
HETATM    2  O   UNL     1      27.212  20.429  31.758  1.00  0.00    -0.304 OA
HETATM    3  O   UNL     1      27.031  24.240  34.742  1.00  0.00    -0.304 OA
HETATM    4  O   UNL     1      26.284  23.148  29.694  1.00  0.00    -0.270 OA
HETATM    5  O   UNL     1      27.715  27.406  35.923  1.00  0.00    -0.270 OA
HETATM    6  O   UNL     1      25.562  22.207  32.784  1.00  0.00    -0.270 OA
HETATM    7  O   UNL     1      27.955  27.284  31.500  1.00  0.00    -0.263 OA
HETATM    8  O   UNL     1      29.113  21.690  32.118  1.00  0.00    -0.263 OA
HETATM    9  O   UNL     1      25.779  25.033  36.502  1.00  0.00    -0.263 OA
HETATM   10  N   UNL     1      28.556  22.699  29.558  1.00  0.00    -0.340 N 
HETATM   11  N   UNL     1      26.566  27.294  33.912  1.00  0.00    -0.340 N 
HETATM   12  N   UNL     1      26.071  21.783  35.008  1.00  0.00    -0.340 N 
HETATM   13  C   UNL     1      28.325  21.270  29.850  1.00  0.00     0.190 C 
HETATM   14  C   UNL     1      26.017  26.520  32.779  1.00  0.00     0.190 C 
HETATM   15  C   UNL     1      25.217  22.897  35.480  1.00  0.00     0.190 C 
HETATM   16  C   UNL     1      27.732  25.041  29.851  1.00  0.00     0.227 C 
HETATM   17  C   UNL     1      26.975  20.315  33.175  1.00  0.00     0.227 C 
HETATM   18  C   UNL     1      27.949  25.337  34.718  1.00  0.00     0.227 C 
HETATM   19  C   UNL     1      27.451  23.556  29.666  1.00  0.00     0.250 C 
HETATM   20  C   UNL     1      27.389  26.763  34.918  1.00  0.00     0.250 C 
HETATM   21  C   UNL     1      26.144  21.520  33.631  1.00  0.00     0.250 C 
HETATM   22  C   UNL     1      27.043  26.486  31.657  1.00  0.00     0.283 C 
HETATM   23  C   UNL     1      28.294  21.170  31.370  1.00  0.00     0.283 C 
HETATM   24  C   UNL     1      26.048  24.164  35.682  1.00  0.00     0.283 C 
HETATM   25  C   UNL     1      29.924  23.162  29.316  1.00  0.00     0.153 C 
HETATM   26  C   UNL     1      26.227  28.715  33.989  1.00  0.00     0.153 C 
HETATM   27  C   UNL     1      26.844  21.074  36.032  1.00  0.00     0.153 C 
ENDROOT
BRANCH  16  28
HETATM   28  C   UNL     1      27.457  25.804  28.569  1.00  0.00     0.016 C 
HETATM   29  C   UNL     1      25.954  25.953  28.342  1.00  0.00     0.012 C 
HETATM   30  C   UNL     1      28.111  25.109  27.376  1.00  0.00     0.012 C 
ENDBRANCH  16  28
BRANCH  14  31
HETATM   31  C   UNL     1      24.675  27.018  32.246  1.00  0.00     0.014 C 
HETATM   32  C   UNL     1      24.079  25.978  31.294  1.00  0.00     0.012 C 
BRANCH  31  33
HETATM   33  C   UNL     1      23.676  27.326  33.375  1.00  0.00     0.002 C 
HETATM   34  C   UNL     1      23.484  26.174  34.350  1.00  0.00     0.005 C 
ENDBRANCH  31  33
ENDBRANCH  14  31
BRANCH  13  35
HETATM   35  C   UNL     1      29.343  20.287  29.289  1.00  0.00     0.014 C 
HETATM   36  C   UNL     1      29.616  19.182  30.314  1.00  0.00     0.012 C 
BRANCH  35  37
HETATM   37  C   UNL     1      28.888  19.663  27.959  1.00  0.00     0.002 C 
HETATM   38  C   UNL     1      27.417  19.265  27.946  1.00  0.00     0.005 C 
ENDBRANCH  35  37
ENDBRANCH  13  35
BRANCH  18  39
HETATM   39  C   UNL     1      29.063  25.029  35.719  1.00  0.00     0.016 C 
HETATM   40  C   UNL     1      29.495  23.569  35.607  1.00  0.00     0.012 C 
HETATM   41  C   UNL     1      30.255  25.959  35.498  1.00  0.00     0.012 C 
ENDBRANCH  18  39
BRANCH  17  42
HETATM   42  C   UNL     1      26.195  19.026  33.394  1.00  0.00     0.016 C 
HETATM   43  C   UNL     1      26.801  18.215  34.539  1.00  0.00     0.012 C 
HETATM   44  C   UNL     1      26.154  18.195  32.113  1.00  0.00     0.012 C 
ENDBRANCH  17  42
BRANCH  15  45
HETATM   45  C   UNL     1      24.407  22.554  36.729  1.00  0.00     0.014 C 
HETATM   46  C   UNL     1      23.542  23.752  37.138  1.00  0.00     0.012 C 
BRANCH  45  47
HETATM   47  C   UNL     1      23.514  21.314  36.534  1.00  0.00     0.002 C 
HETATM   48  C   UNL     1      22.625  21.395  35.303  1.00  0.00     0.005 C 
ENDBRANCH  45  47
ENDBRANCH  15  45
TORSDOF 9
ENDMDL
MODEL 10
REMARK VINA RESULT:    -6.745      2.124      8.066
REMARK INTER + INTRA:          -9.155
REMARK INTER:                  -9.295
REMARK INTRA:                   0.140
REMARK UNBOUND:                 1.139
REMARK  9 active torsions:
REMARK  status: ('A' for Active; 'I' for Inactive)
REMARK    1  A    between atoms: C_13  and  C_16 
REMARK    2  A    between atoms: C_14  and  C_17 
REMARK    3  A    between atoms: C_15  and  C_18 
REMARK    4  A    between atoms: C_16  and  C_22 
REMARK    5  A    between atoms: C_17  and  C_23 
REMARK    6  A    between atoms: C_18  and  C_24 
REMARK    7  A    between atoms: C_19  and  C_25 
REMARK    8  A    between atoms: C_20  and  C_26 
REMARK    9  A    between atoms: C_21  and  C_27 
ROOT
HETATM    1  O   UNL     1      28.940  22.959  30.306  1.00  0.00    -0.304 OA
HETATM    2  O   UNL     1      29.464  20.102  34.469  1.00  0.00    -0.304 OA
HETATM    3  O   UNL     1      27.434  24.444  33.767  1.00  0.00    -0.304 OA
HETATM    4  O   UNL     1      29.337  20.481  30.954  1.00  0.00    -0.270 OA
HETATM    5  O   UNL     1      27.097  27.652  32.550  1.00  0.00    -0.270 OA
HETATM    6  O   UNL     1      27.332  21.278  33.463  1.00  0.00    -0.270 OA
HETATM    7  O   UNL     1      29.448  25.141  29.755  1.00  0.00    -0.263 OA
HETATM    8  O   UNL     1      30.798  21.984  34.362  1.00  0.00    -0.263 OA
HETATM    9  O   UNL     1      25.408  25.499  34.042  1.00  0.00    -0.263 OA
HETATM   10  N   UNL     1      31.430  21.014  31.804  1.00  0.00    -0.340 N 
HETATM   11  N   UNL     1      27.079  25.955  30.969  1.00  0.00    -0.340 N 
HETATM   12  N   UNL     1      26.753  22.452  35.379  1.00  0.00    -0.340 N 
HETATM   13  C   UNL     1      31.252  20.069  32.925  1.00  0.00     0.190 C 
HETATM   14  C   UNL     1      27.236  24.533  30.599  1.00  0.00     0.190 C 
HETATM   15  C   UNL     1      25.656  23.166  34.685  1.00  0.00     0.190 C 
HETATM   16  C   UNL     1      30.304  22.512  30.149  1.00  0.00     0.227 C 
HETATM   17  C   UNL     1      28.589  20.732  35.427  1.00  0.00     0.227 C 
HETATM   18  C   UNL     1      28.118  25.587  33.244  1.00  0.00     0.227 C 
HETATM   19  C   UNL     1      30.319  21.233  30.977  1.00  0.00     0.250 C 
HETATM   20  C   UNL     1      27.371  26.487  32.235  1.00  0.00     0.250 C 
HETATM   21  C   UNL     1      27.509  21.510  34.665  1.00  0.00     0.250 C 
HETATM   22  C   UNL     1      28.671  24.288  30.159  1.00  0.00     0.283 C 
HETATM   23  C   UNL     1      30.506  20.852  33.998  1.00  0.00     0.283 C 
HETATM   24  C   UNL     1      26.137  24.524  34.173  1.00  0.00     0.283 C 
HETATM   25  C   UNL     1      32.682  21.766  31.701  1.00  0.00     0.153 C 
HETATM   26  C   UNL     1      26.585  26.872  29.942  1.00  0.00     0.153 C 
HETATM   27  C   UNL     1      27.015  22.849  36.767  1.00  0.00     0.153 C 
ENDROOT
BRANCH  16  28
HETATM   28  C   UNL     1      30.594  22.211  28.690  1.00  0.00     0.016 C 
HETATM   29  C   UNL     1      30.936  20.734  28.502  1.00  0.00     0.012 C 
HETATM   30  C   UNL     1      31.728  23.094  28.172  1.00  0.00     0.012 C 
ENDBRANCH  16  28
BRANCH  14  31
HETATM   31  C   UNL     1      26.268  24.034  29.527  1.00  0.00     0.014 C 
HETATM   32  C   UNL     1      27.040  23.692  28.251  1.00  0.00     0.012 C 
BRANCH  31  33
HETATM   33  C   UNL     1      25.461  22.809  29.992  1.00  0.00     0.002 C 
HETATM   34  C   UNL     1      25.916  21.503  29.356  1.00  0.00     0.005 C 
ENDBRANCH  31  33
ENDBRANCH  14  31
BRANCH  13  35
HETATM   35  C   UNL     1      32.519  19.466  33.514  1.00  0.00     0.014 C 
HETATM   36  C   UNL     1      32.284  19.095  34.981  1.00  0.00     0.012 C 
BRANCH  35  37
HETATM   37  C   UNL     1      33.000  18.230  32.736  1.00  0.00     0.002 C 
HETATM   38  C   UNL     1      34.308  18.453  31.987  1.00  0.00     0.005 C 
ENDBRANCH  35  37
ENDBRANCH  13  35
BRANCH  18  39
HETATM   39  C   UNL     1      28.641  26.395  34.433  1.00  0.00     0.016 C 
HETATM   40  C   UNL     1      29.222  25.467  35.497  1.00  0.00     0.012 C 
HETATM   41  C   UNL     1      29.687  27.409  33.974  1.00  0.00     0.012 C 
ENDBRANCH  18  39
BRANCH  17  42
HETATM   42  C   UNL     1      27.953  19.620  36.249  1.00  0.00     0.016 C 
HETATM   43  C   UNL     1      28.907  19.143  37.343  1.00  0.00     0.012 C 
HETATM   44  C   UNL     1      27.542  18.453  35.352  1.00  0.00     0.012 C 
ENDBRANCH  17  42
BRANCH  15  45
HETATM   45  C   UNL     1      24.391  23.303  35.530  1.00  0.00     0.014 C 
HETATM   46  C   UNL     1      23.229  23.792  34.659  1.00  0.00     0.012 C 
BRANCH  45  47
HETATM   47  C   UNL     1      23.998  21.985  36.225  1.00  0.00     0.002 C 
HETATM   48  C   UNL     1      22.505  21.695  36.174  1.00  0.00     0.005 C 
ENDBRANCH  45  47
ENDBRANCH  15  45
TORSDOF 9
ENDMDL
MODEL 11
REMARK VINA RESULT:    -6.415      2.080      7.553
REMARK INTER + INTRA:          -8.652
REMARK INTER:                  -9.719
REMARK INTRA:                   1.067
REMARK UNBOUND:                 1.139
REMARK  9 active torsions:
REMARK  status: ('A' for Active; 'I' for Inactive)
REMARK    1  A    between atoms: C_13  and  C_16 
REMARK    2  A    between atoms: C_14  and  C_17 
REMARK    3  A    between atoms: C_15  and  C_18 
REMARK    4  A    between atoms: C_16  and  C_22 
REMARK    5  A    between atoms: C_17  and  C_23 
REMARK    6  A    between atoms: C_18  and  C_24 
REMARK    7  A    between atoms: C_19  and  C_25 
REMARK    8  A    between atoms: C_20  and  C_26 
REMARK    9  A    between atoms: C_21  and  C_27 
ROOT
HETATM    1  O   UNL     1      27.786  23.776  29.745  1.00  0.00    -0.304 OA
HETATM    2  O   UNL     1      27.656  18.714  30.106  1.00  0.00    -0.304 OA
HETATM    3  O   UNL     1      27.175  22.202  33.432  1.00  0.00    -0.304 OA
HETATM    4  O   UNL     1      27.368  21.706  28.241  1.00  0.00    -0.270 OA
HETATM    5  O   UNL     1      27.848  25.149  35.089  1.00  0.00    -0.270 OA
HETATM    6  O   UNL     1      25.975  20.533  31.004  1.00  0.00    -0.270 OA
HETATM    7  O   UNL     1      28.957  25.454  30.810  1.00  0.00    -0.263 OA
HETATM    8  O   UNL     1      29.537  19.739  30.967  1.00  0.00    -0.263 OA
HETATM    9  O   UNL     1      25.660  22.931  35.004  1.00  0.00    -0.263 OA
HETATM   10  N   UNL     1      29.581  21.053  28.486  1.00  0.00    -0.340 N 
HETATM   11  N   UNL     1      27.119  25.355  32.898  1.00  0.00    -0.340 N 
HETATM   12  N   UNL     1      25.995  19.837  33.217  1.00  0.00    -0.340 N 
HETATM   13  C   UNL     1      29.188  19.631  28.558  1.00  0.00     0.190 C 
HETATM   14  C   UNL     1      26.750  24.758  31.597  1.00  0.00     0.190 C 
HETATM   15  C   UNL     1      25.152  20.976  33.648  1.00  0.00     0.190 C 
HETATM   16  C   UNL     1      28.897  23.422  28.894  1.00  0.00     0.227 C 
HETATM   17  C   UNL     1      27.133  18.480  31.429  1.00  0.00     0.227 C 
HETATM   18  C   UNL     1      28.159  23.201  33.713  1.00  0.00     0.227 C 
HETATM   19  C   UNL     1      28.546  21.998  28.483  1.00  0.00     0.250 C 
HETATM   20  C   UNL     1      27.682  24.647  33.971  1.00  0.00     0.250 C 
HETATM   21  C   UNL     1      26.322  19.709  31.858  1.00  0.00     0.250 C 
HETATM   22  C   UNL     1      27.974  24.737  30.694  1.00  0.00     0.283 C 
HETATM   23  C   UNL     1      28.847  19.381  30.021  1.00  0.00     0.283 C 
HETATM   24  C   UNL     1      26.021  22.128  34.153  1.00  0.00     0.283 C 
HETATM   25  C   UNL     1      31.001  21.401  28.565  1.00  0.00     0.153 C 
HETATM   26  C   UNL     1      26.882  26.788  33.077  1.00  0.00     0.153 C 
HETATM   27  C   UNL     1      26.492  18.955  34.278  1.00  0.00     0.153 C 
ENDROOT
BRANCH  16  28
HETATM   28  C   UNL     1      28.942  24.335  27.682  1.00  0.00     0.016 C 
HETATM   29  C   UNL     1      30.204  25.196  27.703  1.00  0.00     0.012 C 
HETATM   30  C   UNL     1      27.695  25.215  27.623  1.00  0.00     0.012 C 
ENDBRANCH  16  28
BRANCH  14  31
HETATM   31  C   UNL     1      25.583  25.437  30.882  1.00  0.00     0.014 C 
HETATM   32  C   UNL     1      24.350  25.434  31.788  1.00  0.00     0.012 C 
BRANCH  31  33
HETATM   33  C   UNL     1      25.916  26.878  30.457  1.00  0.00     0.002 C 
HETATM   34  C   UNL     1      25.116  27.357  29.254  1.00  0.00     0.005 C 
ENDBRANCH  31  33
ENDBRANCH  14  31
BRANCH  13  35
HETATM   35  C   UNL     1      30.220  18.615  28.088  1.00  0.00     0.014 C 
HETATM   36  C   UNL     1      29.988  17.276  28.794  1.00  0.00     0.012 C 
BRANCH  35  37
HETATM   37  C   UNL     1      30.193  18.411  26.563  1.00  0.00     0.002 C 
HETATM   38  C   UNL     1      31.461  18.882  25.864  1.00  0.00     0.005 C 
ENDBRANCH  35  37
ENDBRANCH  13  35
BRANCH  18  39
HETATM   39  C   UNL     1      29.025  22.684  34.864  1.00  0.00     0.016 C 
HETATM   40  C   UNL     1      29.273  21.185  34.717  1.00  0.00     0.012 C 
HETATM   41  C   UNL     1      30.349  23.445  34.922  1.00  0.00     0.012 C 
ENDBRANCH  18  39
BRANCH  17  42
HETATM   42  C   UNL     1      26.228  17.259  31.341  1.00  0.00     0.016 C 
HETATM   43  C   UNL     1      26.927  16.026  31.912  1.00  0.00     0.012 C 
HETATM   44  C   UNL     1      25.797  17.009  29.896  1.00  0.00     0.012 C 
ENDBRANCH  17  42
BRANCH  15  45
HETATM   45  C   UNL     1      24.085  20.589  34.671  1.00  0.00     0.014 C 
HETATM   46  C   UNL     1      24.565  20.936  36.085  1.00  0.00     0.012 C 
BRANCH  45  47
HETATM   47  C   UNL     1      22.731  21.273  34.401  1.00  0.00     0.002 C 
HETATM   48  C   UNL     1      22.246  22.134  35.557  1.00  0.00     0.005 C 
ENDBRANCH  45  47
ENDBRANCH  15  45
TORSDOF 9
ENDMDL
MODEL 12
REMARK VINA RESULT:    -6.400      1.547      2.035
REMARK INTER + INTRA:          -8.628
REMARK INTER:                  -9.026
REMARK INTRA:                   0.398
REMARK UNBOUND:                 1.139
REMARK  9 active torsions:
REMARK  status: ('A' for Active; 'I' for Inactive)
REMARK    1  A    between atoms: C_13  and  C_16 
REMARK    2  A    between atoms: C_14  and  C_17 
REMARK    3  A    between atoms: C_15  and  C_18 
REMARK    4  A    between atoms: C_16  and  C_22 
REMARK    5  A    between atoms: C_17  and  C_23 
REMARK    6  A    between atoms: C_18  and  C_24 
REMARK    7  A    between atoms: C_19  and  C_25 
REMARK    8  A    between atoms: C_20  and  C_26 
REMARK    9  A    between atoms: C_21  and  C_27 
ROOT
HETATM    1  O   UNL     1      27.238  21.909  35.044  1.00  0.00    -0.304 OA
HETATM    2  O   UNL     1      26.944  24.511  30.695  1.00  0.00    -0.304 OA
HETATM    3  O   UNL     1      29.630  20.698  32.002  1.00  0.00    -0.304 OA
HETATM    4  O   UNL     1      25.591  23.474  33.795  1.00  0.00    -0.270 OA
HETATM    5  O   UNL     1      31.639  18.745  34.011  1.00  0.00    -0.270 OA
HETATM    6  O   UNL     1      26.819  21.918  31.145  1.00  0.00    -0.270 OA
HETATM    7  O   UNL     1      28.953  21.285  36.455  1.00  0.00    -0.263 OA
HETATM    8  O   UNL     1      28.862  24.836  31.938  1.00  0.00    -0.263 OA
HETATM    9  O   UNL     1      30.031  18.528  31.350  1.00  0.00    -0.263 OA
HETATM   10  N   UNL     1      27.056  25.255  34.047  1.00  0.00    -0.340 N 
HETATM   11  N   UNL     1      29.486  19.124  34.783  1.00  0.00    -0.340 N 
HETATM   12  N   UNL     1      28.514  21.317  29.678  1.00  0.00    -0.340 N 
HETATM   13  C   UNL     1      26.735  25.753  32.694  1.00  0.00     0.190 C 
HETATM   14  C   UNL     1      28.175  19.798  34.677  1.00  0.00     0.190 C 
HETATM   15  C   UNL     1      28.458  19.897  30.097  1.00  0.00     0.190 C 
HETATM   16  C   UNL     1      27.200  23.261  35.548  1.00  0.00     0.227 C 
HETATM   17  C   UNL     1      27.651  23.680  29.753  1.00  0.00     0.227 C 
HETATM   18  C   UNL     1      30.545  20.685  33.101  1.00  0.00     0.227 C 
HETATM   19  C   UNL     1      26.522  24.009  34.408  1.00  0.00     0.250 C 
HETATM   20  C   UNL     1      30.604  19.422  33.989  1.00  0.00     0.250 C 
HETATM   21  C   UNL     1      27.623  22.233  30.259  1.00  0.00     0.250 C 
HETATM   22  C   UNL     1      28.197  21.064  35.520  1.00  0.00     0.283 C 
HETATM   23  C   UNL     1      27.662  24.994  31.754  1.00  0.00     0.283 C 
HETATM   24  C   UNL     1      29.496  19.616  31.184  1.00  0.00     0.283 C 
HETATM   25  C   UNL     1      28.010  26.001  34.870  1.00  0.00     0.153 C 
HETATM   26  C   UNL     1      29.625  18.071  35.789  1.00  0.00     0.153 C 
HETATM   27  C   UNL     1      29.566  21.674  28.721  1.00  0.00     0.153 C 
ENDROOT
BRANCH  16  28
HETATM   28  C   UNL     1      26.359  23.329  36.810  1.00  0.00     0.016 C 
HETATM   29  C   UNL     1      25.169  24.266  36.615  1.00  0.00     0.012 C 
HETATM   30  C   UNL     1      27.206  23.779  37.999  1.00  0.00     0.012 C 
ENDBRANCH  16  28
BRANCH  14  31
HETATM   31  C   UNL     1      26.972  18.937  35.057  1.00  0.00     0.014 C 
HETATM   32  C   UNL     1      25.760  19.832  35.327  1.00  0.00     0.012 C 
BRANCH  31  33
HETATM   33  C   UNL     1      26.627  17.903  33.972  1.00  0.00     0.002 C 
HETATM   34  C   UNL     1      26.365  18.518  32.605  1.00  0.00     0.005 C 
ENDBRANCH  31  33
ENDBRANCH  14  31
BRANCH  13  35
HETATM   35  C   UNL     1      26.885  27.251  32.467  1.00  0.00     0.014 C 
HETATM   36  C   UNL     1      26.898  27.549  30.965  1.00  0.00     0.012 C 
BRANCH  35  37
HETATM   37  C   UNL     1      25.772  28.064  33.150  1.00  0.00     0.002 C 
HETATM   38  C   UNL     1      26.103  29.543  33.300  1.00  0.00     0.005 C 
ENDBRANCH  35  37
ENDBRANCH  13  35
BRANCH  18  39
HETATM   39  C   UNL     1      31.927  21.049  32.555  1.00  0.00     0.016 C 
HETATM   40  C   UNL     1      31.817  22.162  31.515  1.00  0.00     0.012 C 
HETATM   41  C   UNL     1      32.860  21.465  33.690  1.00  0.00     0.012 C 
ENDBRANCH  18  39
BRANCH  17  42
HETATM   42  C   UNL     1      26.915  23.785  28.425  1.00  0.00     0.016 C 
HETATM   43  C   UNL     1      27.285  25.080  27.703  1.00  0.00     0.012 C 
HETATM   44  C   UNL     1      25.403  23.705  28.638  1.00  0.00     0.012 C 
ENDBRANCH  17  42
BRANCH  15  45
HETATM   45  C   UNL     1      28.585  18.915  28.934  1.00  0.00     0.014 C 
HETATM   46  C   UNL     1      28.221  17.501  29.401  1.00  0.00     0.012 C 
BRANCH  45  47
HETATM   47  C   UNL     1      27.706  19.306  27.731  1.00  0.00     0.002 C 
HETATM   48  C   UNL     1      27.243  18.114  26.907  1.00  0.00     0.005 C 
ENDBRANCH  45  47
ENDBRANCH  15  45
TORSDOF 9
ENDMDL
MODEL 13
REMARK VINA RESULT:    -6.341     21.498     25.713
REMARK INTER + INTRA:          -8.539
REMARK INTER:                  -8.516
REMARK INTRA:                  -0.023
REMARK UNBOUND:                 1.139
REMARK  9 active torsions:
REMARK  status: ('A' for Active; 'I' for Inactive)
REMARK    1  A    between atoms: C_13  and  C_16 
REMARK    2  A    between atoms: C_14  and  C_17 
REMARK    3  A    between atoms: C_15  and  C_18 
REMARK    4  A    between atoms: C_16  and  C_22 
REMARK    5  A    between atoms: C_17  and  C_23 
REMARK    6  A    between atoms: C_18  and  C_24 
REMARK    7  A    between atoms: C_19  and  C_25 
REMARK    8  A    between atoms: C_20  and  C_26 
REMARK    9  A    between atoms: C_21  and  C_27 
ROOT
HETATM    1  O   UNL     1      25.386   6.733  11.114  1.00  0.00    -0.304 OA
HETATM    2  O   UNL     1      26.483  11.227  13.204  1.00  0.00    -0.304 OA
HETATM    3  O   UNL     1      29.198   7.303  12.374  1.00  0.00    -0.304 OA
HETATM    4  O   UNL     1      24.478   9.161  11.148  1.00  0.00    -0.270 OA
HETATM    5  O   UNL     1      30.019   3.957  12.244  1.00  0.00    -0.270 OA
HETATM    6  O   UNL     1      27.703   9.893  11.287  1.00  0.00    -0.270 OA
HETATM    7  O   UNL     1      25.652   4.533  11.753  1.00  0.00    -0.263 OA
HETATM    8  O   UNL     1      26.379   9.437  14.658  1.00  0.00    -0.263 OA
HETATM    9  O   UNL     1      31.118   6.701  11.257  1.00  0.00    -0.263 OA
HETATM   10  N   UNL     1      23.922   8.946  13.391  1.00  0.00    -0.340 N 
HETATM   11  N   UNL     1      28.287   4.636  10.860  1.00  0.00    -0.340 N 
HETATM   12  N   UNL     1      29.803   9.882  12.273  1.00  0.00    -0.340 N 
HETATM   13  C   UNL     1      24.344  10.335  13.663  1.00  0.00     0.190 C 
HETATM   14  C   UNL     1      27.336   5.665  10.390  1.00  0.00     0.190 C 
HETATM   15  C   UNL     1      30.365   9.014  11.212  1.00  0.00     0.190 C 
HETATM   16  C   UNL     1      24.225   6.925  11.951  1.00  0.00     0.227 C 
HETATM   17  C   UNL     1      27.924  11.234  13.258  1.00  0.00     0.227 C 
HETATM   18  C   UNL     1      28.923   5.998  12.892  1.00  0.00     0.227 C 
HETATM   19  C   UNL     1      24.193   8.439  12.112  1.00  0.00     0.250 C 
HETATM   20  C   UNL     1      29.141   4.782  11.965  1.00  0.00     0.250 C 
HETATM   21  C   UNL     1      28.459  10.276  12.188  1.00  0.00     0.250 C 
HETATM   22  C   UNL     1      26.037   5.536  11.170  1.00  0.00     0.283 C 
HETATM   23  C   UNL     1      25.842  10.257  13.924  1.00  0.00     0.283 C 
HETATM   24  C   UNL     1      30.317   7.546  11.637  1.00  0.00     0.283 C 
HETATM   25  C   UNL     1      23.384   8.140  14.489  1.00  0.00     0.153 C 
HETATM   26  C   UNL     1      28.339   3.375  10.120  1.00  0.00     0.153 C 
HETATM   27  C   UNL     1      30.696  10.209  13.390  1.00  0.00     0.153 C 
ENDROOT
BRANCH  16  28
HETATM   28  C   UNL     1      22.977   6.433  11.240  1.00  0.00     0.016 C 
HETATM   29  C   UNL     1      22.012   7.589  10.984  1.00  0.00     0.012 C 
HETATM   30  C   UNL     1      22.292   5.335  12.051  1.00  0.00     0.012 C 
ENDBRANCH  16  28
BRANCH  14  31
HETATM   31  C   UNL     1      27.050   5.645   8.890  1.00  0.00     0.014 C 
HETATM   32  C   UNL     1      25.634   5.121   8.640  1.00  0.00     0.012 C 
BRANCH  31  33
HETATM   33  C   UNL     1      27.215   7.032   8.244  1.00  0.00     0.002 C 
HETATM   34  C   UNL     1      28.641   7.562   8.296  1.00  0.00     0.005 C 
ENDBRANCH  31  33
ENDBRANCH  14  31
BRANCH  13  35
HETATM   35  C   UNL     1      23.655  11.041  14.822  1.00  0.00     0.014 C 
HETATM   36  C   UNL     1      24.496  12.238  15.274  1.00  0.00     0.012 C 
BRANCH  35  37
HETATM   37  C   UNL     1      22.233  11.509  14.465  1.00  0.00     0.002 C 
HETATM   38  C   UNL     1      21.429  11.984  15.668  1.00  0.00     0.005 C 
ENDBRANCH  35  37
ENDBRANCH  13  35
BRANCH  18  39
HETATM   39  C   UNL     1      29.700   5.849  14.201  1.00  0.00     0.016 C 
HETATM   40  C   UNL     1      29.678   7.155  14.990  1.00  0.00     0.012 C 
HETATM   41  C   UNL     1      29.127   4.706  15.038  1.00  0.00     0.012 C 
ENDBRANCH  18  39
BRANCH  17  42
HETATM   42  C   UNL     1      28.374  12.658  12.960  1.00  0.00     0.016 C 
HETATM   43  C   UNL     1      28.585  13.440  14.255  1.00  0.00     0.012 C 
HETATM   44  C   UNL     1      27.360  13.369  12.065  1.00  0.00     0.012 C 
ENDBRANCH  17  42
BRANCH  15  45
HETATM   45  C   UNL     1      31.769   9.424  10.772  1.00  0.00     0.014 C 
HETATM   46  C   UNL     1      32.146   8.696   9.477  1.00  0.00     0.012 C 
BRANCH  45  47
HETATM   47  C   UNL     1      31.905  10.946  10.568  1.00  0.00     0.002 C 
HETATM   48  C   UNL     1      33.272  11.368  10.053  1.00  0.00     0.005 C 
ENDBRANCH  45  47
ENDBRANCH  15  45
TORSDOF 9
ENDMDL
MODEL 14
REMARK VINA RESULT:    -6.213      2.465      6.520
REMARK INTER + INTRA:          -8.344
REMARK INTER:                  -9.107
REMARK INTRA:                   0.763
REMARK UNBOUND:                 1.139
REMARK  9 active torsions:
REMARK  status: ('A' for Active; 'I' for Inactive)
REMARK    1  A    between atoms: C_13  and  C_16 
REMARK    2  A    between atoms: C_14  and  C_17 
REMARK    3  A    between atoms: C_15  and  C_18 
REMARK    4  A    between atoms: C_16  and  C_22 
REMARK    5  A    between atoms: C_17  and  C_23 
REMARK    6  A    between atoms: C_18  and  C_24 
REMARK    7  A    between atoms: C_19  and  C_25 
REMARK    8  A    between atoms: C_20  and  C_26 
REMARK    9  A    between atoms: C_21  and  C_27 
ROOT
HETATM    1  O   UNL     1      29.293  21.331  34.554  1.00  0.00    -0.304 OA
HETATM    2  O   UNL     1      31.405  21.843  29.966  1.00  0.00    -0.304 OA
HETATM    3  O   UNL     1      26.780  21.770  31.401  1.00  0.00    -0.304 OA
HETATM    4  O   UNL     1      31.553  22.036  33.495  1.00  0.00    -0.270 OA
HETATM    5  O   UNL     1      23.993  20.727  33.142  1.00  0.00    -0.270 OA
HETATM    6  O   UNL     1      29.563  23.293  31.168  1.00  0.00    -0.270 OA
HETATM    7  O   UNL     1      27.688  19.945  35.461  1.00  0.00    -0.263 OA
HETATM    8  O   UNL     1      30.369  19.822  30.380  1.00  0.00    -0.263 OA
HETATM    9  O   UNL     1      24.896  23.088  31.319  1.00  0.00    -0.263 OA
HETATM   10  N   UNL     1      31.898  19.871  32.735  1.00  0.00    -0.340 N 
HETATM   11  N   UNL     1      25.718  21.611  34.415  1.00  0.00    -0.340 N 
HETATM   12  N   UNL     1      27.977  23.151  29.481  1.00  0.00    -0.340 N 
HETATM   13  C   UNL     1      32.477  20.371  31.472  1.00  0.00     0.190 C 
HETATM   14  C   UNL     1      27.096  22.131  34.540  1.00  0.00     0.190 C 
HETATM   15  C   UNL     1      26.961  23.861  30.291  1.00  0.00     0.190 C 
HETATM   16  C   UNL     1      30.326  20.325  34.625  1.00  0.00     0.227 C 
HETATM   17  C   UNL     1      30.311  22.275  29.134  1.00  0.00     0.227 C 
HETATM   18  C   UNL     1      26.162  20.687  32.104  1.00  0.00     0.227 C 
HETATM   19  C   UNL     1      31.330  20.823  33.594  1.00  0.00     0.250 C 
HETATM   20  C   UNL     1      25.188  21.024  33.255  1.00  0.00     0.250 C 
HETATM   21  C   UNL     1      29.256  22.946  30.021  1.00  0.00     0.250 C 
HETATM   22  C   UNL     1      28.025  20.990  34.924  1.00  0.00     0.283 C 
HETATM   23  C   UNL     1      31.288  20.613  30.551  1.00  0.00     0.283 C 
HETATM   24  C   UNL     1      26.062  22.864  31.022  1.00  0.00     0.283 C 
HETATM   25  C   UNL     1      31.817  18.425  32.955  1.00  0.00     0.153 C 
HETATM   26  C   UNL     1      24.846  21.716  35.585  1.00  0.00     0.153 C 
HETATM   27  C   UNL     1      27.535  22.643  28.178  1.00  0.00     0.153 C 
ENDROOT
BRANCH  16  28
HETATM   28  C   UNL     1      30.944  20.303  36.011  1.00  0.00     0.016 C 
HETATM   29  C   UNL     1      32.452  20.529  35.932  1.00  0.00     0.012 C 
HETATM   30  C   UNL     1      30.636  18.984  36.718  1.00  0.00     0.012 C 
ENDBRANCH  16  28
BRANCH  14  31
HETATM   31  C   UNL     1      27.262  23.293  35.518  1.00  0.00     0.014 C 
HETATM   32  C   UNL     1      28.098  22.843  36.719  1.00  0.00     0.012 C 
BRANCH  31  33
HETATM   33  C   UNL     1      27.912  24.523  34.861  1.00  0.00     0.002 C 
HETATM   34  C   UNL     1      27.044  25.172  33.792  1.00  0.00     0.005 C 
ENDBRANCH  31  33
ENDBRANCH  14  31
BRANCH  13  35
HETATM   35  C   UNL     1      33.489  19.467  30.782  1.00  0.00     0.014 C 
HETATM   36  C   UNL     1      33.730  19.955  29.351  1.00  0.00     0.012 C 
BRANCH  35  37
HETATM   37  C   UNL     1      34.826  19.395  31.539  1.00  0.00     0.002 C 
HETATM   38  C   UNL     1      35.983  20.050  30.795  1.00  0.00     0.005 C 
ENDBRANCH  35  37
ENDBRANCH  13  35
BRANCH  18  39
HETATM   39  C   UNL     1      25.506  19.777  31.065  1.00  0.00     0.016 C 
HETATM   40  C   UNL     1      25.881  20.219  29.652  1.00  0.00     0.012 C 
HETATM   41  C   UNL     1      25.909  18.322  31.297  1.00  0.00     0.012 C 
ENDBRANCH  18  39
BRANCH  17  42
HETATM   42  C   UNL     1      30.876  23.281  28.140  1.00  0.00     0.016 C 
HETATM   43  C   UNL     1      31.681  22.571  27.052  1.00  0.00     0.012 C 
HETATM   44  C   UNL     1      31.742  24.318  28.855  1.00  0.00     0.012 C 
ENDBRANCH  17  42
BRANCH  15  45
HETATM   45  C   UNL     1      26.141  24.870  29.489  1.00  0.00     0.014 C 
HETATM   46  C   UNL     1      24.835  24.223  29.013  1.00  0.00     0.012 C 
BRANCH  45  47
HETATM   47  C   UNL     1      25.824  26.147  30.291  1.00  0.00     0.002 C 
HETATM   48  C   UNL     1      24.867  27.089  29.577  1.00  0.00     0.005 C 
ENDBRANCH  45  47
ENDBRANCH  15  45
TORSDOF 9
ENDMDL
MODEL 15
REMARK VINA RESULT:    -6.203     14.751     20.400
REMARK INTER + INTRA:          -8.328
REMARK INTER:                  -8.549
REMARK INTRA:                   0.221
REMARK UNBOUND:                 1.139
REMARK  9 active torsions:
REMARK  status: ('A' for Active; 'I' for Inactive)
REMARK    1  A    between atoms: C_13  and  C_16 
REMARK    2  A    between atoms: C_14  and  C_17 
REMARK    3  A    between atoms: C_15  and  C_18 
REMARK    4  A    between atoms: C_16  and  C_22 
REMARK    5  A    between atoms: C_17  and  C_23 
REMARK    6  A    between atoms: C_18  and  C_24 
REMARK    7  A    between atoms: C_19  and  C_25 
REMARK    8  A    between atoms: C_20  and  C_26 
REMARK    9  A    between atoms: C_21  and  C_27 
ROOT
HETATM    1  O   UNL     1      27.896  12.544  14.211  1.00  0.00    -0.304 OA
HETATM    2  O   UNL     1      31.797  12.469  17.458  1.00  0.00    -0.304 OA
HETATM    3  O   UNL     1      28.300  15.730  16.687  1.00  0.00    -0.304 OA
HETATM    4  O   UNL     1      29.494  10.835  15.329  1.00  0.00    -0.270 OA
HETATM    5  O   UNL     1      26.137  17.729  14.896  1.00  0.00    -0.270 OA
HETATM    6  O   UNL     1      29.238  12.932  17.876  1.00  0.00    -0.270 OA
HETATM    7  O   UNL     1      27.114  14.042  12.641  1.00  0.00    -0.263 OA
HETATM    8  O   UNL     1      31.982  13.947  15.694  1.00  0.00    -0.263 OA
HETATM    9  O   UNL     1      26.617  16.803  17.832  1.00  0.00    -0.263 OA
HETATM   10  N   UNL     1      31.290  11.707  14.148  1.00  0.00    -0.340 N 
HETATM   11  N   UNL     1      25.830  15.441  14.675  1.00  0.00    -0.340 N 
HETATM   12  N   UNL     1      29.512  14.984  18.925  1.00  0.00    -0.340 N 
HETATM   13  C   UNL     1      32.179  11.547  15.316  1.00  0.00     0.190 C 
HETATM   14  C   UNL     1      26.258  14.050  14.930  1.00  0.00     0.190 C 
HETATM   15  C   UNL     1      28.050  15.215  18.992  1.00  0.00     0.190 C 
HETATM   16  C   UNL     1      28.947  12.056  13.350  1.00  0.00     0.227 C 
HETATM   17  C   UNL     1      31.499  13.542  18.373  1.00  0.00     0.227 C 
HETATM   18  C   UNL     1      28.051  16.377  15.435  1.00  0.00     0.227 C 
HETATM   19  C   UNL     1      29.926  11.453  14.348  1.00  0.00     0.250 C 
HETATM   20  C   UNL     1      26.585  16.581  14.996  1.00  0.00     0.250 C 
HETATM   21  C   UNL     1      29.986  13.789  18.363  1.00  0.00     0.250 C 
HETATM   22  C   UNL     1      27.117  13.573  13.770  1.00  0.00     0.283 C 
HETATM   23  C   UNL     1      31.983  12.809  16.147  1.00  0.00     0.283 C 
HETATM   24  C   UNL     1      27.581  16.049  17.799  1.00  0.00     0.283 C 
HETATM   25  C   UNL     1      31.843  12.249  12.905  1.00  0.00     0.153 C 
HETATM   26  C   UNL     1      24.526  15.643  14.042  1.00  0.00     0.153 C 
HETATM   27  C   UNL     1      30.367  16.079  19.394  1.00  0.00     0.153 C 
ENDROOT
BRANCH  16  28
HETATM   28  C   UNL     1      28.407  10.991  12.414  1.00  0.00     0.016 C 
HETATM   29  C   UNL     1      27.717   9.880  13.203  1.00  0.00     0.012 C 
HETATM   30  C   UNL     1      29.527  10.415  11.549  1.00  0.00     0.012 C 
ENDBRANCH  16  28
BRANCH  14  31
HETATM   31  C   UNL     1      25.122  13.060  15.182  1.00  0.00     0.014 C 
HETATM   32  C   UNL     1      24.961  12.139  13.970  1.00  0.00     0.012 C 
BRANCH  31  33
HETATM   33  C   UNL     1      25.349  12.219  16.450  1.00  0.00     0.002 C 
HETATM   34  C   UNL     1      25.170  13.004  17.741  1.00  0.00     0.005 C 
ENDBRANCH  31  33
ENDBRANCH  14  31
BRANCH  13  35
HETATM   35  C   UNL     1      33.659  11.347  15.023  1.00  0.00     0.014 C 
HETATM   36  C   UNL     1      34.497  11.923  16.169  1.00  0.00     0.012 C 
BRANCH  35  37
HETATM   37  C   UNL     1      34.021   9.868  14.806  1.00  0.00     0.002 C 
HETATM   38  C   UNL     1      35.445   9.657  14.309  1.00  0.00     0.005 C 
ENDBRANCH  35  37
ENDBRANCH  13  35
BRANCH  18  39
HETATM   39  C   UNL     1      28.823  17.698  15.438  1.00  0.00     0.016 C 
HETATM   40  C   UNL     1      30.188  17.521  16.098  1.00  0.00     0.012 C 
HETATM   41  C   UNL     1      28.980  18.229  14.014  1.00  0.00     0.012 C 
ENDBRANCH  18  39
BRANCH  17  42
HETATM   42  C   UNL     1      31.946  13.087  19.755  1.00  0.00     0.016 C 
HETATM   43  C   UNL     1      33.267  13.752  20.142  1.00  0.00     0.012 C 
HETATM   44  C   UNL     1      32.079  11.566  19.806  1.00  0.00     0.012 C 
ENDBRANCH  17  42
BRANCH  15  45
HETATM   45  C   UNL     1      27.592  15.823  20.316  1.00  0.00     0.014 C 
HETATM   46  C   UNL     1      26.103  15.535  20.537  1.00  0.00     0.012 C 
BRANCH  45  47
HETATM   47  C   UNL     1      28.404  15.305  21.518  1.00  0.00     0.002 C 
HETATM   48  C   UNL     1      28.572  16.335  22.625  1.00  0.00     0.005 C 
ENDBRANCH  45  47
ENDBRANCH  15  45
TORSDOF 9
ENDMDL
MODEL 16
REMARK VINA RESULT:    -6.194     18.587     22.423
REMARK INTER + INTRA:          -8.315
REMARK INTER:                  -8.831
REMARK INTRA:                   0.516
REMARK UNBOUND:                 1.139
REMARK  9 active torsions:
REMARK  status: ('A' for Active; 'I' for Inactive)
REMARK    1  A    between atoms: C_13  and  C_16 
REMARK    2  A    between atoms: C_14  and  C_17 
REMARK    3  A    between atoms: C_15  and  C_18 
REMARK    4  A    between atoms: C_16  and  C_22 
REMARK    5  A    between atoms: C_17  and  C_23 
REMARK    6  A    between atoms: C_18  and  C_24 
REMARK    7  A    between atoms: C_19  and  C_25 
REMARK    8  A    between atoms: C_20  and  C_26 
REMARK    9  A    between atoms: C_21  and  C_27 
ROOT
HETATM    1  O   UNL     1      30.422   8.756  17.437  1.00  0.00    -0.304 OA
HETATM    2  O   UNL     1      30.833  10.372  12.643  1.00  0.00    -0.304 OA
HETATM    3  O   UNL     1      33.767  10.835  16.468  1.00  0.00    -0.304 OA
HETATM    4  O   UNL     1      29.476   8.204  15.087  1.00  0.00    -0.270 OA
HETATM    5  O   UNL     1      34.676  11.407  19.744  1.00  0.00    -0.270 OA
HETATM    6  O   UNL     1      32.537   9.041  14.146  1.00  0.00    -0.270 OA
HETATM    7  O   UNL     1      30.571   9.756  19.510  1.00  0.00    -0.263 OA
HETATM    8  O   UNL     1      30.402  12.000  14.223  1.00  0.00    -0.263 OA
HETATM    9  O   UNL     1      35.924  10.337  17.096  1.00  0.00    -0.263 OA
HETATM   10  N   UNL     1      28.367  10.242  15.030  1.00  0.00    -0.340 N 
HETATM   11  N   UNL     1      33.342   9.548  19.366  1.00  0.00    -0.340 N 
HETATM   12  N   UNL     1      34.313  10.513  13.894  1.00  0.00    -0.340 N 
HETATM   13  C   UNL     1      28.670  10.404  13.594  1.00  0.00     0.190 C 
HETATM   14  C   UNL     1      32.519   8.709  18.471  1.00  0.00     0.190 C 
HETATM   15  C   UNL     1      35.150   9.766  14.861  1.00  0.00     0.190 C 
HETATM   16  C   UNL     1      29.081   9.236  17.205  1.00  0.00     0.227 C 
HETATM   17  C   UNL     1      32.210  10.785  12.539  1.00  0.00     0.227 C 
HETATM   18  C   UNL     1      33.400  11.453  17.706  1.00  0.00     0.227 C 
HETATM   19  C   UNL     1      28.971   9.160  15.688  1.00  0.00     0.250 C 
HETATM   20  C   UNL     1      33.879  10.798  19.020  1.00  0.00     0.250 C 
HETATM   21  C   UNL     1      33.027  10.036  13.599  1.00  0.00     0.250 C 
HETATM   22  C   UNL     1      31.067   9.148  18.573  1.00  0.00     0.283 C 
HETATM   23  C   UNL     1      30.053  11.042  13.544  1.00  0.00     0.283 C 
HETATM   24  C   UNL     1      35.032  10.375  16.258  1.00  0.00     0.283 C 
HETATM   25  C   UNL     1      27.585  11.275  15.712  1.00  0.00     0.153 C 
HETATM   26  C   UNL     1      33.615   9.037  20.710  1.00  0.00     0.153 C 
HETATM   27  C   UNL     1      34.880  11.758  13.365  1.00  0.00     0.153 C 
ENDROOT
BRANCH  16  28
HETATM   28  C   UNL     1      28.071   8.315  17.864  1.00  0.00     0.016 C 
HETATM   29  C   UNL     1      27.179   7.655  16.815  1.00  0.00     0.012 C 
HETATM   30  C   UNL     1      27.226   9.081  18.881  1.00  0.00     0.012 C 
ENDBRANCH  16  28
BRANCH  14  31
HETATM   31  C   UNL     1      32.630   7.205  18.711  1.00  0.00     0.014 C 
HETATM   32  C   UNL     1      31.361   6.696  19.398  1.00  0.00     0.012 C 
BRANCH  31  33
HETATM   33  C   UNL     1      32.869   6.420  17.409  1.00  0.00     0.002 C 
HETATM   34  C   UNL     1      31.734   5.472  17.052  1.00  0.00     0.005 C 
ENDBRANCH  31  33
ENDBRANCH  14  31
BRANCH  13  35
HETATM   35  C   UNL     1      27.689  11.237  12.782  1.00  0.00     0.014 C 
HETATM   36  C   UNL     1      28.449  12.072  11.747  1.00  0.00     0.012 C 
BRANCH  35  37
HETATM   37  C   UNL     1      26.628  10.375  12.077  1.00  0.00     0.002 C 
HETATM   38  C   UNL     1      27.106   8.965  11.754  1.00  0.00     0.005 C 
ENDBRANCH  35  37
ENDBRANCH  13  35
BRANCH  18  39
HETATM   39  C   UNL     1      33.818  12.922  17.629  1.00  0.00     0.016 C 
HETATM   40  C   UNL     1      33.510  13.496  16.248  1.00  0.00     0.012 C 
HETATM   41  C   UNL     1      33.119  13.736  18.716  1.00  0.00     0.012 C 
ENDBRANCH  18  39
BRANCH  17  42
HETATM   42  C   UNL     1      32.687  10.404  11.145  1.00  0.00     0.016 C 
HETATM   43  C   UNL     1      32.455  11.552  10.162  1.00  0.00     0.012 C 
HETATM   44  C   UNL     1      31.983   9.137  10.661  1.00  0.00     0.012 C 
ENDBRANCH  17  42
BRANCH  15  45
HETATM   45  C   UNL     1      36.610   9.637  14.429  1.00  0.00     0.014 C 
HETATM   46  C   UNL     1      37.423  10.817  14.972  1.00  0.00     0.012 C 
BRANCH  45  47
HETATM   47  C   UNL     1      37.249   8.313  14.888  1.00  0.00     0.002 C 
HETATM   48  C   UNL     1      38.703   8.163  14.467  1.00  0.00     0.005 C 
ENDBRANCH  45  47
ENDBRANCH  15  45
TORSDOF 9
ENDMDL
MODEL 17
REMARK VINA RESULT:    -6.151      2.145      2.883
REMARK INTER + INTRA:          -8.249
REMARK INTER:                  -9.002
REMARK INTRA:                   0.753
REMARK UNBOUND:                 1.139
REMARK  9 active torsions:
REMARK  status: ('A' for Active; 'I' for Inactive)
REMARK    1  A    between atoms: C_13  and  C_16 
REMARK    2  A    between atoms: C_14  and  C_17 
REMARK    3  A    between atoms: C_15  and  C_18 
REMARK    4  A    between atoms: C_16  and  C_22 
REMARK    5  A    between atoms: C_17  and  C_23 
REMARK    6  A    between atoms: C_18  and  C_24 
REMARK    7  A    between atoms: C_19  and  C_25 
REMARK    8  A    between atoms: C_20  and  C_26 
REMARK    9  A    between atoms: C_21  and  C_27 
ROOT
HETATM    1  O   UNL     1      28.718  21.464  33.744  1.00  0.00    -0.304 OA
HETATM    2  O   UNL     1      27.343  24.809  30.181  1.00  0.00    -0.304 OA
HETATM    3  O   UNL     1      30.417  21.068  30.083  1.00  0.00    -0.304 OA
HETATM    4  O   UNL     1      26.766  23.087  33.218  1.00  0.00    -0.270 OA
HETATM    5  O   UNL     1      32.910  18.953  31.180  1.00  0.00    -0.270 OA
HETATM    6  O   UNL     1      27.435  22.177  30.107  1.00  0.00    -0.270 OA
HETATM    7  O   UNL     1      30.732  20.737  34.602  1.00  0.00    -0.263 OA
HETATM    8  O   UNL     1      29.475  25.059  31.031  1.00  0.00    -0.263 OA
HETATM    9  O   UNL     1      30.757  19.105  28.931  1.00  0.00    -0.263 OA
HETATM   10  N   UNL     1      28.171  24.910  33.513  1.00  0.00    -0.340 N 
HETATM   11  N   UNL     1      30.970  18.988  32.450  1.00  0.00    -0.340 N 
HETATM   12  N   UNL     1      28.782  22.017  28.224  1.00  0.00    -0.340 N 
HETATM   13  C   UNL     1      27.533  25.626  32.390  1.00  0.00     0.190 C 
HETATM   14  C   UNL     1      29.641  19.552  32.764  1.00  0.00     0.190 C 
HETATM   15  C   UNL     1      28.885  20.544  28.346  1.00  0.00     0.190 C 
HETATM   16  C   UNL     1      28.735  22.688  34.510  1.00  0.00     0.227 C 
HETATM   17  C   UNL     1      27.856  24.237  28.962  1.00  0.00     0.227 C 
HETATM   18  C   UNL     1      31.556  20.926  30.938  1.00  0.00     0.227 C 
HETATM   19  C   UNL     1      27.787  23.576  33.716  1.00  0.00     0.250 C 
HETATM   20  C   UNL     1      31.868  19.529  31.516  1.00  0.00     0.250 C 
HETATM   21  C   UNL     1      28.006  22.724  29.155  1.00  0.00     0.250 C 
HETATM   22  C   UNL     1      29.796  20.632  33.823  1.00  0.00     0.283 C 
HETATM   23  C   UNL     1      28.258  25.143  31.141  1.00  0.00     0.283 C 
HETATM   24  C   UNL     1      30.151  20.154  29.108  1.00  0.00     0.283 C 
HETATM   25  C   UNL     1      29.252  25.566  34.251  1.00  0.00     0.153 C 
HETATM   26  C   UNL     1      31.378  17.779  33.166  1.00  0.00     0.153 C 
HETATM   27  C   UNL     1      29.577  22.640  27.161  1.00  0.00     0.153 C 
ENDROOT
BRANCH  16  28
HETATM   28  C   UNL     1      28.197  22.440  35.908  1.00  0.00     0.016 C 
HETATM   29  C   UNL     1      29.334  22.116  36.874  1.00  0.00     0.012 C 
HETATM   30  C   UNL     1      27.166  21.313  35.896  1.00  0.00     0.012 C 
ENDBRANCH  16  28
BRANCH  14  31
HETATM   31  C   UNL     1      28.593  18.532  33.204  1.00  0.00     0.014 C 
HETATM   32  C   UNL     1      28.571  18.440  34.732  1.00  0.00     0.012 C 
BRANCH  31  33
HETATM   33  C   UNL     1      27.187  18.875  32.682  1.00  0.00     0.002 C 
HETATM   34  C   UNL     1      26.568  17.774  31.833  1.00  0.00     0.005 C 
ENDBRANCH  31  33
ENDBRANCH  14  31
BRANCH  13  35
HETATM   35  C   UNL     1      27.563  27.147  32.448  1.00  0.00     0.014 C 
HETATM   36  C   UNL     1      27.062  27.726  31.122  1.00  0.00     0.012 C 
BRANCH  35  37
HETATM   37  C   UNL     1      26.726  27.708  33.611  1.00  0.00     0.002 C 
HETATM   38  C   UNL     1      26.791  29.225  33.731  1.00  0.00     0.005 C 
ENDBRANCH  35  37
ENDBRANCH  13  35
BRANCH  18  39
HETATM   39  C   UNL     1      32.763  21.508  30.199  1.00  0.00     0.016 C 
HETATM   40  C   UNL     1      32.339  22.685  29.324  1.00  0.00     0.012 C 
HETATM   41  C   UNL     1      33.844  21.935  31.189  1.00  0.00     0.012 C 
ENDBRANCH  18  39
BRANCH  17  42
HETATM   42  C   UNL     1      26.837  24.528  27.869  1.00  0.00     0.016 C 
HETATM   43  C   UNL     1      27.095  25.896  27.240  1.00  0.00     0.012 C 
HETATM   44  C   UNL     1      25.415  24.454  28.424  1.00  0.00     0.012 C 
ENDBRANCH  17  42
BRANCH  15  45
HETATM   45  C   UNL     1      28.791  19.816  27.007  1.00  0.00     0.014 C 
HETATM   46  C   UNL     1      30.190  19.409  26.532  1.00  0.00     0.012 C 
BRANCH  45  47
HETATM   47  C   UNL     1      27.884  18.572  27.072  1.00  0.00     0.002 C 
HETATM   48  C   UNL     1      26.802  18.666  28.137  1.00  0.00     0.005 C 
ENDBRANCH  45  47
ENDBRANCH  15  45
TORSDOF 9
ENDMDL
MODEL 18
REMARK VINA RESULT:    -6.058     19.352     23.765
REMARK INTER + INTRA:          -8.107
REMARK INTER:                  -8.789
REMARK INTRA:                   0.682
REMARK UNBOUND:                 1.139
REMARK  9 active torsions:
REMARK  status: ('A' for Active; 'I' for Inactive)
REMARK    1  A    between atoms: C_13  and  C_16 
REMARK    2  A    between atoms: C_14  and  C_17 
REMARK    3  A    between atoms: C_15  and  C_18 
REMARK    4  A    between atoms: C_16  and  C_22 
REMARK    5  A    between atoms: C_17  and  C_23 
REMARK    6  A    between atoms: C_18  and  C_24 
REMARK    7  A    between atoms: C_19  and  C_25 
REMARK    8  A    between atoms: C_20  and  C_26 
REMARK    9  A    between atoms: C_21  and  C_27 
ROOT
HETATM    1  O   UNL     1      32.483   8.346  16.777  1.00  0.00    -0.304 OA
HETATM    2  O   UNL     1      28.870   7.680  13.275  1.00  0.00    -0.304 OA
HETATM    3  O   UNL     1      31.718  11.461  14.297  1.00  0.00    -0.304 OA
HETATM    4  O   UNL     1      31.269   6.414  15.546  1.00  0.00    -0.270 OA
HETATM    5  O   UNL     1      33.398  13.761  16.240  1.00  0.00    -0.270 OA
HETATM    6  O   UNL     1      31.339   8.566  13.032  1.00  0.00    -0.270 OA
HETATM    7  O   UNL     1      32.901   9.926  18.404  1.00  0.00    -0.263 OA
HETATM    8  O   UNL     1      28.328   9.077  15.031  1.00  0.00    -0.263 OA
HETATM    9  O   UNL     1      33.271  12.816  13.273  1.00  0.00    -0.263 OA
HETATM   10  N   UNL     1      29.279   6.958  16.608  1.00  0.00    -0.340 N 
HETATM   11  N   UNL     1      34.066  11.552  16.469  1.00  0.00    -0.340 N 
HETATM   12  N   UNL     1      30.797  10.562  11.979  1.00  0.00    -0.340 N 
HETATM   13  C   UNL     1      28.508   6.672  15.381  1.00  0.00     0.190 C 
HETATM   14  C   UNL     1      33.892  10.113  16.178  1.00  0.00     0.190 C 
HETATM   15  C   UNL     1      32.201  11.032  12.011  1.00  0.00     0.190 C 
HETATM   16  C   UNL     1      31.474   7.677  17.564  1.00  0.00     0.227 C 
HETATM   17  C   UNL     1      29.045   8.802  12.387  1.00  0.00     0.227 C 
HETATM   18  C   UNL     1      31.774  12.120  15.566  1.00  0.00     0.227 C 
HETATM   19  C   UNL     1      30.677   6.936  16.498  1.00  0.00     0.250 C 
HETATM   20  C   UNL     1      33.154  12.556  16.104  1.00  0.00     0.250 C 
HETATM   21  C   UNL     1      30.492   9.295  12.501  1.00  0.00     0.250 C 
HETATM   22  C   UNL     1      33.050   9.482  17.276  1.00  0.00     0.283 C 
HETATM   23  C   UNL     1      28.545   7.963  14.573  1.00  0.00     0.283 C 
HETATM   24  C   UNL     1      32.446  11.913  13.237  1.00  0.00     0.283 C 
HETATM   25  C   UNL     1      28.564   7.381  17.814  1.00  0.00     0.153 C 
HETATM   26  C   UNL     1      35.273  11.956  17.189  1.00  0.00     0.153 C 
HETATM   27  C   UNL     1      29.804  11.507  11.459  1.00  0.00     0.153 C 
ENDROOT
BRANCH  16  28
HETATM   28  C   UNL     1      32.121   6.700  18.528  1.00  0.00     0.016 C 
HETATM   29  C   UNL     1      31.691   5.268  18.214  1.00  0.00     0.012 C 
HETATM   30  C   UNL     1      31.774   7.058  19.972  1.00  0.00     0.012 C 
ENDBRANCH  16  28
BRANCH  14  31
HETATM   31  C   UNL     1      35.191   9.329  15.998  1.00  0.00     0.014 C 
HETATM   32  C   UNL     1      35.016   7.908  16.540  1.00  0.00     0.012 C 
BRANCH  31  33
HETATM   33  C   UNL     1      35.644   9.276  14.529  1.00  0.00     0.002 C 
HETATM   34  C   UNL     1      37.127   9.559  14.338  1.00  0.00     0.005 C 
ENDBRANCH  31  33
ENDBRANCH  14  31
BRANCH  13  35
HETATM   35  C   UNL     1      27.065   6.226  15.573  1.00  0.00     0.014 C 
HETATM   36  C   UNL     1      26.148   7.020  14.639  1.00  0.00     0.012 C 
BRANCH  35  37
HETATM   37  C   UNL     1      26.878   4.718  15.327  1.00  0.00     0.002 C 
HETATM   38  C   UNL     1      28.050   3.873  15.809  1.00  0.00     0.005 C 
ENDBRANCH  35  37
ENDBRANCH  13  35
BRANCH  18  39
HETATM   39  C   UNL     1      30.796  13.295  15.519  1.00  0.00     0.016 C 
HETATM   40  C   UNL     1      29.586  12.951  14.654  1.00  0.00     0.012 C 
HETATM   41  C   UNL     1      30.355  13.682  16.929  1.00  0.00     0.012 C 
ENDBRANCH  18  39
BRANCH  17  42
HETATM   42  C   UNL     1      28.771   8.302  10.976  1.00  0.00     0.016 C 
HETATM   43  C   UNL     1      27.268   8.180  10.728  1.00  0.00     0.012 C 
HETATM   44  C   UNL     1      29.463   6.961  10.734  1.00  0.00     0.012 C 
ENDBRANCH  17  42
BRANCH  15  45
HETATM   45  C   UNL     1      32.638  11.730  10.725  1.00  0.00     0.014 C 
HETATM   46  C   UNL     1      34.129  12.076  10.796  1.00  0.00     0.012 C 
BRANCH  45  47
HETATM   47  C   UNL     1      32.363  10.881   9.468  1.00  0.00     0.002 C 
HETATM   48  C   UNL     1      33.503  10.901   8.462  1.00  0.00     0.005 C 
ENDBRANCH  45  47
ENDBRANCH  15  45
TORSDOF 9
ENDMDL
MODEL 19
REMARK VINA RESULT:    -6.046     16.247     20.850
REMARK INTER + INTRA:          -8.089
REMARK INTER:                  -8.104
REMARK INTRA:                   0.015
REMARK UNBOUND:                 1.139
REMARK  9 active torsions:
REMARK  status: ('A' for Active; 'I' for Inactive)
REMARK    1  A    between atoms: C_13  and  C_16 
REMARK    2  A    between atoms: C_14  and  C_17 
REMARK    3  A    between atoms: C_15  and  C_18 
REMARK    4  A    between atoms: C_16  and  C_22 
REMARK    5  A    between atoms: C_17  and  C_23 
REMARK    6  A    between atoms: C_18  and  C_24 
REMARK    7  A    between atoms: C_19  and  C_25 
REMARK    8  A    between atoms: C_20  and  C_26 
REMARK    9  A    between atoms: C_21  and  C_27 
ROOT
HETATM    1  O   UNL     1      27.700  14.090  16.194  1.00  0.00    -0.304 OA
HETATM    2  O   UNL     1      32.477  12.390  16.440  1.00  0.00    -0.304 OA
HETATM    3  O   UNL     1      28.347  10.235  15.114  1.00  0.00    -0.304 OA
HETATM    4  O   UNL     1      30.121  15.018  16.212  1.00  0.00    -0.270 OA
HETATM    5  O   UNL     1      25.014   9.364  15.246  1.00  0.00    -0.270 OA
HETATM    6  O   UNL     1      30.719  12.260  14.483  1.00  0.00    -0.270 OA
HETATM    7  O   UNL     1      25.672  13.370  17.023  1.00  0.00    -0.263 OA
HETATM    8  O   UNL     1      31.036  11.588  18.056  1.00  0.00    -0.263 OA
HETATM    9  O   UNL     1      27.440   9.145  13.301  1.00  0.00    -0.263 OA
HETATM   10  N   UNL     1      30.404  14.302  18.401  1.00  0.00    -0.340 N 
HETATM   11  N   UNL     1      25.467  11.608  14.878  1.00  0.00    -0.340 N 
HETATM   12  N   UNL     1      30.819   9.960  14.194  1.00  0.00    -0.340 N 
HETATM   13  C   UNL     1      31.798  13.902  18.124  1.00  0.00     0.190 C 
HETATM   14  C   UNL     1      26.418  12.735  14.783  1.00  0.00     0.190 C 
HETATM   15  C   UNL     1      29.724   9.975  13.196  1.00  0.00     0.190 C 
HETATM   16  C   UNL     1      28.115  14.651  17.457  1.00  0.00     0.227 C 
HETATM   17  C   UNL     1      32.430  11.138  15.726  1.00  0.00     0.227 C 
HETATM   18  C   UNL     1      27.193  10.103  15.948  1.00  0.00     0.227 C 
HETATM   19  C   UNL     1      29.629  14.704  17.303  1.00  0.00     0.250 C 
HETATM   20  C   UNL     1      25.802  10.315  15.312  1.00  0.00     0.250 C 
HETATM   21  C   UNL     1      31.247  11.174  14.752  1.00  0.00     0.250 C 
HETATM   22  C   UNL     1      26.513  13.421  16.137  1.00  0.00     0.283 C 
HETATM   23  C   UNL     1      31.708  12.487  17.567  1.00  0.00     0.283 C 
HETATM   24  C   UNL     1      28.381   9.687  13.867  1.00  0.00     0.283 C 
HETATM   25  C   UNL     1      29.869  14.126  19.752  1.00  0.00     0.153 C 
HETATM   26  C   UNL     1      24.079  11.859  14.491  1.00  0.00     0.153 C 
HETATM   27  C   UNL     1      31.331   8.641  14.581  1.00  0.00     0.153 C 
ENDROOT
BRANCH  16  28
HETATM   28  C   UNL     1      27.543  16.047  17.625  1.00  0.00     0.016 C 
HETATM   29  C   UNL     1      28.663  17.082  17.710  1.00  0.00     0.012 C 
HETATM   30  C   UNL     1      26.653  16.119  18.865  1.00  0.00     0.012 C 
ENDBRANCH  16  28
BRANCH  14  31
HETATM   31  C   UNL     1      26.098  13.762  13.698  1.00  0.00     0.014 C 
HETATM   32  C   UNL     1      25.832  15.126  14.338  1.00  0.00     0.012 C 
BRANCH  31  33
HETATM   33  C   UNL     1      27.226  13.884  12.658  1.00  0.00     0.002 C 
HETATM   34  C   UNL     1      27.353  12.668  11.752  1.00  0.00     0.005 C 
ENDBRANCH  31  33
ENDBRANCH  14  31
BRANCH  13  35
HETATM   35  C   UNL     1      32.761  13.931  19.303  1.00  0.00     0.014 C 
HETATM   36  C   UNL     1      33.934  12.983  19.039  1.00  0.00     0.012 C 
BRANCH  35  37
HETATM   37  C   UNL     1      33.291  15.346  19.595  1.00  0.00     0.002 C 
HETATM   38  C   UNL     1      33.402  15.659  21.082  1.00  0.00     0.005 C 
ENDBRANCH  35  37
ENDBRANCH  13  35
BRANCH  18  39
HETATM   39  C   UNL     1      27.285   8.747  16.651  1.00  0.00     0.016 C 
HETATM   40  C   UNL     1      28.737   8.414  16.987  1.00  0.00     0.012 C 
HETATM   41  C   UNL     1      26.426   8.739  17.914  1.00  0.00     0.012 C 
ENDBRANCH  18  39
BRANCH  17  42
HETATM   42  C   UNL     1      33.738  11.015  14.957  1.00  0.00     0.016 C 
HETATM   43  C   UNL     1      34.616   9.917  15.556  1.00  0.00     0.012 C 
HETATM   44  C   UNL     1      34.485  12.349  14.943  1.00  0.00     0.012 C 
ENDBRANCH  17  42
BRANCH  15  45
HETATM   45  C   UNL     1      29.970   9.043  12.011  1.00  0.00     0.014 C 
HETATM   46  C   UNL     1      28.841   9.192  10.985  1.00  0.00     0.012 C 
BRANCH  45  47
HETATM   47  C   UNL     1      31.327   9.299  11.328  1.00  0.00     0.002 C 
HETATM   48  C   UNL     1      31.800   8.138  10.467  1.00  0.00     0.005 C 
ENDBRANCH  45  47
ENDBRANCH  15  45
TORSDOF 9
ENDMDL
MODEL 20
REMARK VINA RESULT:    -5.965     15.640     20.501
REMARK INTER + INTRA:          -7.965
REMARK INTER:                  -8.109
REMARK INTRA:                   0.144
REMARK UNBOUND:                 1.139
REMARK  9 active torsions:
REMARK  status: ('A' for Active; 'I' for Inactive)
REMARK    1  A    between atoms: C_13  and  C_16 
REMARK    2  A    between atoms: C_14  and  C_17 
REMARK    3  A    between atoms: C_15  and  C_18 
REMARK    4  A    between atoms: C_16  and  C_22 
REMARK    5  A    between atoms: C_17  and  C_23 
REMARK    6  A    between atoms: C_18  and  C_24 
REMARK    7  A    between atoms: C_19  and  C_25 
REMARK    8  A    between atoms: C_20  and  C_26 
REMARK    9  A    between atoms: C_21  and  C_27 
ROOT
HETATM    1  O   UNL     1      31.843  10.498  14.872  1.00  0.00    -0.304 OA
HETATM    2  O   UNL     1      29.355  14.702  16.254  1.00  0.00    -0.304 OA
HETATM    3  O   UNL     1      31.648  11.309  18.841  1.00  0.00    -0.304 OA
HETATM    4  O   UNL     1      31.096  12.766  13.860  1.00  0.00    -0.270 OA
HETATM    5  O   UNL     1      32.631   8.147  19.802  1.00  0.00    -0.270 OA
HETATM    6  O   UNL     1      31.755  13.843  16.919  1.00  0.00    -0.270 OA
HETATM    7  O   UNL     1      31.731   8.272  15.465  1.00  0.00    -0.263 OA
HETATM    8  O   UNL     1      28.293  12.704  16.714  1.00  0.00    -0.263 OA
HETATM    9  O   UNL     1      33.360  11.124  20.367  1.00  0.00    -0.263 OA
HETATM   10  N   UNL     1      28.870  12.133  14.026  1.00  0.00    -0.340 N 
HETATM   11  N   UNL     1      33.307   8.827  17.690  1.00  0.00    -0.340 N 
HETATM   12  N   UNL     1      31.434  13.925  19.216  1.00  0.00    -0.340 N 
HETATM   13  C   UNL     1      28.476  13.501  14.419  1.00  0.00     0.190 C 
HETATM   14  C   UNL     1      33.283   9.798  16.576  1.00  0.00     0.190 C 
HETATM   15  C   UNL     1      32.754  13.309  19.485  1.00  0.00     0.190 C 
HETATM   16  C   UNL     1      30.687  10.416  14.010  1.00  0.00     0.227 C 
HETATM   17  C   UNL     1      29.716  14.871  17.640  1.00  0.00     0.227 C 
HETATM   18  C   UNL     1      31.326   9.915  18.823  1.00  0.00     0.227 C 
HETATM   19  C   UNL     1      30.244  11.871  13.929  1.00  0.00     0.250 C 
HETATM   20  C   UNL     1      32.487   8.896  18.828  1.00  0.00     0.250 C 
HETATM   21  C   UNL     1      31.054  14.165  17.887  1.00  0.00     0.250 C 
HETATM   22  C   UNL     1      32.201   9.393  15.587  1.00  0.00     0.283 C 
HETATM   23  C   UNL     1      28.676  13.561  15.928  1.00  0.00     0.283 C 
HETATM   24  C   UNL     1      32.616  11.797  19.665  1.00  0.00     0.283 C 
HETATM   25  C   UNL     1      27.835  11.105  13.902  1.00  0.00     0.153 C 
HETATM   26  C   UNL     1      34.253   7.715  17.599  1.00  0.00     0.153 C 
HETATM   27  C   UNL     1      30.580  14.174  20.382  1.00  0.00     0.153 C 
ENDROOT
BRANCH  16  28
HETATM   28  C   UNL     1      31.089   9.899  12.641  1.00  0.00     0.016 C 
HETATM   29  C   UNL     1      30.737  10.916  11.557  1.00  0.00     0.012 C 
HETATM   30  C   UNL     1      30.418   8.557  12.354  1.00  0.00     0.012 C 
ENDBRANCH  16  28
BRANCH  14  31
HETATM   31  C   UNL     1      34.614   9.983  15.851  1.00  0.00     0.014 C 
HETATM   32  C   UNL     1      34.421   9.752  14.350  1.00  0.00     0.012 C 
BRANCH  31  33
HETATM   33  C   UNL     1      35.224  11.375  16.091  1.00  0.00     0.002 C 
HETATM   34  C   UNL     1      35.679  11.601  17.526  1.00  0.00     0.005 C 
ENDBRANCH  31  33
ENDBRANCH  14  31
BRANCH  13  35
HETATM   35  C   UNL     1      27.057  13.927  14.070  1.00  0.00     0.014 C 
HETATM   36  C   UNL     1      26.230  14.076  15.350  1.00  0.00     0.012 C 
BRANCH  35  37
HETATM   37  C   UNL     1      27.017  15.241  13.269  1.00  0.00     0.002 C 
HETATM   38  C   UNL     1      27.094  16.487  14.141  1.00  0.00     0.005 C 
ENDBRANCH  35  37
ENDBRANCH  13  35
BRANCH  18  39
HETATM   39  C   UNL     1      30.347   9.653  19.969  1.00  0.00     0.016 C 
HETATM   40  C   UNL     1      29.399  10.836  20.145  1.00  0.00     0.012 C 
HETATM   41  C   UNL     1      29.561   8.367  19.719  1.00  0.00     0.012 C 
ENDBRANCH  18  39
BRANCH  17  42
HETATM   42  C   UNL     1      29.860  16.367  17.883  1.00  0.00     0.016 C 
HETATM   43  C   UNL     1      28.597  16.933  18.532  1.00  0.00     0.012 C 
HETATM   44  C   UNL     1      30.165  17.100  16.578  1.00  0.00     0.012 C 
ENDBRANCH  17  42
BRANCH  15  45
HETATM   45  C   UNL     1      33.494  13.948  20.659  1.00  0.00     0.014 C 
HETATM   46  C   UNL     1      34.946  13.456  20.694  1.00  0.00     0.012 C 
BRANCH  45  47
HETATM   47  C   UNL     1      33.471  15.488  20.606  1.00  0.00     0.002 C 
HETATM   48  C   UNL     1      33.301  16.138  21.971  1.00  0.00     0.005 C 
ENDBRANCH  45  47
ENDBRANCH  15  45
TORSDOF 9
ENDMDL
