MODEL 1
REMARK VINA RESULT:    -5.259      0.000      0.000
REMARK INTER + INTRA:          -7.873
REMARK INTER:                  -8.027
REMARK INTRA:                   0.154
REMARK UNBOUND:                 0.154
REMARK  9 active torsions:
REMARK  status: ('A' for Active; 'I' for Inactive)
REMARK    1  A    between atoms: C_13  and  C_16 
REMARK    2  A    between atoms: C_14  and  C_17 
REMARK    3  A    between atoms: C_15  and  C_18 
REMARK    4  A    between atoms: C_16  and  C_22 
REMARK    5  A    between atoms: C_17  and  C_23 
REMARK    6  A    between atoms: C_18  and  C_24 
REMARK    7  A    between atoms: C_19  and  C_25 
REMARK    8  A    between atoms: C_20  and  C_26 
REMARK    9  A    between atoms: C_21  and  C_27 
ROOT
HETATM    1  O   UNL     1      17.021   8.891  35.540  1.00  0.00    -0.304 OA
HETATM    2  O   UNL     1      20.010   7.259  39.305  1.00  0.00    -0.304 OA
HETATM    3  O   UNL     1      15.216   7.892  39.032  1.00  0.00    -0.304 OA
HETATM    4  O   UNL     1      19.372   7.851  35.876  1.00  0.00    -0.270 OA
HETATM    5  O   UNL     1      12.239   9.441  38.238  1.00  0.00    -0.270 OA
HETATM    6  O   UNL     1      17.815   6.212  38.293  1.00  0.00    -0.270 OA
HETATM    7  O   UNL     1      15.407  10.526  35.336  1.00  0.00    -0.263 OA
HETATM    8  O   UNL     1      19.120   9.373  39.568  1.00  0.00    -0.263 OA
HETATM    9  O   UNL     1      13.270   6.689  39.277  1.00  0.00    -0.263 OA
HETATM   10  N   UNL     1      20.091   9.771  36.963  1.00  0.00    -0.340 N 
HETATM   11  N   UNL     1      13.551   8.774  36.446  1.00  0.00    -0.340 N 
HETATM   12  N   UNL     1      16.653   6.056  40.295  1.00  0.00    -0.340 N 
HETATM   13  C   UNL     1      20.875   8.971  37.926  1.00  0.00     0.190 C 
HETATM   14  C   UNL     1      14.809   8.224  35.900  1.00  0.00     0.190 C 
HETATM   15  C   UNL     1      15.419   5.599  39.615  1.00  0.00     0.190 C 
HETATM   16  C   UNL     1      18.111   9.832  35.439  1.00  0.00     0.227 C 
HETATM   17  C   UNL     1      19.082   6.710  40.262  1.00  0.00     0.227 C 
HETATM   18  C   UNL     1      14.574   9.134  38.729  1.00  0.00     0.227 C 
HETATM   19  C   UNL     1      19.258   9.065  36.083  1.00  0.00     0.250 C 
HETATM   20  C   UNL     1      13.346   9.115  37.793  1.00  0.00     0.250 C 
HETATM   21  C   UNL     1      17.799   6.309  39.526  1.00  0.00     0.250 C 
HETATM   22  C   UNL     1      15.745   9.371  35.553  1.00  0.00     0.283 C 
HETATM   23  C   UNL     1      19.895   8.593  39.029  1.00  0.00     0.283 C 
HETATM   24  C   UNL     1      14.489   6.780  39.334  1.00  0.00     0.283 C 
HETATM   25  C   UNL     1      20.112  11.231  37.070  1.00  0.00     0.153 C 
HETATM   26  C   UNL     1      12.441   8.978  35.515  1.00  0.00     0.153 C 
HETATM   27  C   UNL     1      16.555   6.283  41.741  1.00  0.00     0.153 C 
ENDROOT
BRANCH  16  28
HETATM   28  C   UNL     1      18.414  10.130  33.982  1.00  0.00     0.016 C 
HETATM   29  C   UNL     1      19.855   9.753  33.643  1.00  0.00     0.012 C 
HETATM   30  C   UNL     1      18.159  11.603  33.668  1.00  0.00     0.012 C 
ENDBRANCH  16  28
BRANCH  14  31
HETATM   31  C   UNL     1      14.642   7.302  34.693  1.00  0.00     0.014 C 
HETATM   32  C   UNL     1      15.138   8.010  33.429  1.00  0.00     0.012 C 
BRANCH  31  33
HETATM   33  C   UNL     1      15.384   5.967  34.869  1.00  0.00     0.002 C 
HETATM   34  C   UNL     1      16.266   5.599  33.684  1.00  0.00     0.005 C 
ENDBRANCH  31  33
ENDBRANCH  14  31
BRANCH  13  35
HETATM   35  C   UNL     1      22.099   9.645  38.533  1.00  0.00     0.014 C 
HETATM   36  C   UNL     1      22.340   9.107  39.946  1.00  0.00     0.012 C 
BRANCH  35  37
HETATM   37  C   UNL     1      23.363   9.448  37.679  1.00  0.00     0.002 C 
HETATM   38  C   UNL     1      23.772  10.692  36.901  1.00  0.00     0.005 C 
ENDBRANCH  35  37
ENDBRANCH  13  35
BRANCH  18  39
HETATM   39  C   UNL     1      14.254   9.823  40.057  1.00  0.00     0.016 C 
HETATM   40  C   UNL     1      15.351   9.549  41.082  1.00  0.00     0.012 C 
HETATM   41  C   UNL     1      14.074  11.326  39.851  1.00  0.00     0.012 C 
ENDBRANCH  18  39
BRANCH  17  42
HETATM   42  C   UNL     1      19.744   5.480  40.869  1.00  0.00     0.016 C 
HETATM   43  C   UNL     1      21.169   5.799  41.319  1.00  0.00     0.012 C 
HETATM   44  C   UNL     1      19.745   4.321  39.873  1.00  0.00     0.012 C 
ENDBRANCH  17  42
BRANCH  15  45
HETATM   45  C   UNL     1      14.693   4.481  40.361  1.00  0.00     0.014 C 
HETATM   46  C   UNL     1      13.815   3.686  39.389  1.00  0.00     0.012 C 
BRANCH  45  47
HETATM   47  C   UNL     1      15.662   3.525  41.084  1.00  0.00     0.002 C 
HETATM   48  C   UNL     1      16.294   2.493  40.163  1.00  0.00     0.005 C 
ENDBRANCH  45  47
ENDBRANCH  15  45
TORSDOF 9
ENDMDL
MODEL 2
REMARK VINA RESULT:    -5.235     10.128     13.753
REMARK INTER + INTRA:          -7.836
REMARK INTER:                  -8.003
REMARK INTRA:                   0.167
REMARK UNBOUND:                 0.154
REMARK  9 active torsions:
REMARK  status: ('A' for Active; 'I' for Inactive)
REMARK    1  A    between atoms: C_13  and  C_16 
REMARK    2  A    between atoms: C_14  and  C_17 
REMARK    3  A    between atoms: C_15  and  C_18 
REMARK    4  A    between atoms: C_16  and  C_22 
REMARK    5  A    between atoms: C_17  and  C_23 
REMARK    6  A    between atoms: C_18  and  C_24 
REMARK    7  A    between atoms: C_19  and  C_25 
REMARK    8  A    between atoms: C_20  and  C_26 
REMARK    9  A    between atoms: C_21  and  C_27 
ROOT
HETATM    1  O   UNL     1      22.018  18.796  42.469  1.00  0.00    -0.304 OA
HETATM    2  O   UNL     1      17.824  15.954  42.785  1.00  0.00    -0.304 OA
HETATM    3  O   UNL     1      19.150  20.018  45.062  1.00  0.00    -0.304 OA
HETATM    4  O   UNL     1      20.714  17.051  41.064  1.00  0.00    -0.270 OA
HETATM    5  O   UNL     1      21.221  22.217  46.725  1.00  0.00    -0.270 OA
HETATM    6  O   UNL     1      18.104  18.550  42.440  1.00  0.00    -0.270 OA
HETATM    7  O   UNL     1      23.545  19.619  43.989  1.00  0.00    -0.263 OA
HETATM    8  O   UNL     1      19.261  15.836  44.588  1.00  0.00    -0.263 OA
HETATM    9  O   UNL     1      18.411  22.174  45.377  1.00  0.00    -0.263 OA
HETATM   10  N   UNL     1      21.210  15.398  42.615  1.00  0.00    -0.340 N 
HETATM   11  N   UNL     1      21.806  21.722  44.536  1.00  0.00    -0.340 N 
HETATM   12  N   UNL     1      16.771  19.196  44.226  1.00  0.00    -0.340 N 
HETATM   13  C   UNL     1      19.865  14.807  42.464  1.00  0.00     0.190 C 
HETATM   14  C   UNL     1      21.617  20.948  43.291  1.00  0.00     0.190 C 
HETATM   15  C   UNL     1      17.098  20.628  44.033  1.00  0.00     0.190 C 
HETATM   16  C   UNL     1      22.596  17.473  42.473  1.00  0.00     0.227 C 
HETATM   17  C   UNL     1      16.906  16.783  43.524  1.00  0.00     0.227 C 
HETATM   18  C   UNL     1      20.329  20.156  45.861  1.00  0.00     0.227 C 
HETATM   19  C   UNL     1      21.443  16.618  41.964  1.00  0.00     0.250 C 
HETATM   20  C   UNL     1      21.141  21.465  45.746  1.00  0.00     0.250 C 
HETATM   21  C   UNL     1      17.319  18.249  43.347  1.00  0.00     0.250 C 
HETATM   22  C   UNL     1      22.532  19.734  43.316  1.00  0.00     0.283 C 
HETATM   23  C   UNL     1      18.974  15.582  43.426  1.00  0.00     0.283 C 
HETATM   24  C   UNL     1      18.260  21.042  44.937  1.00  0.00     0.283 C 
HETATM   25  C   UNL     1      22.163  14.769  43.531  1.00  0.00     0.153 C 
HETATM   26  C   UNL     1      22.756  22.834  44.503  1.00  0.00     0.153 C 
HETATM   27  C   UNL     1      15.942  18.867  45.390  1.00  0.00     0.153 C 
ENDROOT
BRANCH  16  28
HETATM   28  C   UNL     1      23.774  17.411  41.518  1.00  0.00     0.016 C 
HETATM   29  C   UNL     1      23.578  16.296  40.492  1.00  0.00     0.012 C 
HETATM   30  C   UNL     1      25.080  17.208  42.285  1.00  0.00     0.012 C 
ENDBRANCH  16  28
BRANCH  14  31
HETATM   31  C   UNL     1      21.828  21.737  42.001  1.00  0.00     0.014 C 
HETATM   32  C   UNL     1      23.174  21.358  41.378  1.00  0.00     0.012 C 
BRANCH  31  33
HETATM   33  C   UNL     1      20.698  21.508  40.982  1.00  0.00     0.002 C 
HETATM   34  C   UNL     1      19.323  21.907  41.498  1.00  0.00     0.005 C 
ENDBRANCH  31  33
ENDBRANCH  14  31
BRANCH  13  35
HETATM   35  C   UNL     1      19.743  13.314  42.738  1.00  0.00     0.014 C 
HETATM   36  C   UNL     1      18.299  12.971  43.112  1.00  0.00     0.012 C 
BRANCH  35  37
HETATM   37  C   UNL     1      20.188  12.458  41.539  1.00  0.00     0.002 C 
HETATM   38  C   UNL     1      19.875  13.091  40.190  1.00  0.00     0.005 C 
ENDBRANCH  35  37
ENDBRANCH  13  35
BRANCH  18  39
HETATM   39  C   UNL     1      19.939  19.867  47.312  1.00  0.00     0.016 C 
HETATM   40  C   UNL     1      18.891  18.758  47.374  1.00  0.00     0.012 C 
HETATM   41  C   UNL     1      21.170  19.489  48.133  1.00  0.00     0.012 C 
ENDBRANCH  18  39
BRANCH  17  42
HETATM   42  C   UNL     1      15.522  16.554  42.932  1.00  0.00     0.016 C 
HETATM   43  C   UNL     1      14.674  15.687  43.861  1.00  0.00     0.012 C 
HETATM   44  C   UNL     1      15.626  15.912  41.549  1.00  0.00     0.012 C 
ENDBRANCH  17  42
BRANCH  15  45
HETATM   45  C   UNL     1      15.896  21.554  44.207  1.00  0.00     0.014 C 
HETATM   46  C   UNL     1      16.359  23.015  44.234  1.00  0.00     0.012 C 
BRANCH  45  47
HETATM   47  C   UNL     1      14.839  21.366  43.102  1.00  0.00     0.002 C 
HETATM   48  C   UNL     1      13.430  21.732  43.543  1.00  0.00     0.005 C 
ENDBRANCH  45  47
ENDBRANCH  15  45
TORSDOF 9
ENDMDL
MODEL 3
REMARK VINA RESULT:    -5.230      1.895      4.113
REMARK INTER + INTRA:          -7.828
REMARK INTER:                  -8.141
REMARK INTRA:                   0.312
REMARK UNBOUND:                 0.154
REMARK  9 active torsions:
REMARK  status: ('A' for Active; 'I' for Inactive)
REMARK    1  A    between atoms: C_13  and  C_16 
REMARK    2  A    between atoms: C_14  and  C_17 
REMARK    3  A    between atoms: C_15  and  C_18 
REMARK    4  A    between atoms: C_16  and  C_22 
REMARK    5  A    between atoms: C_17  and  C_23 
REMARK    6  A    between atoms: C_18  and  C_24 
REMARK    7  A    between atoms: C_19  and  C_25 
REMARK    8  A    between atoms: C_20  and  C_26 
REMARK    9  A    between atoms: C_21  and  C_27 
ROOT
HETATM    1  O   UNL     1      19.101   9.877  36.804  1.00  0.00    -0.304 OA
HETATM    2  O   UNL     1      18.069   5.886  39.767  1.00  0.00    -0.304 OA
HETATM    3  O   UNL     1      15.286   8.503  36.790  1.00  0.00    -0.304 OA
HETATM    4  O   UNL     1      20.337   7.913  37.960  1.00  0.00    -0.270 OA
HETATM    5  O   UNL     1      14.000  11.320  35.272  1.00  0.00    -0.270 OA
HETATM    6  O   UNL     1      17.543   6.302  37.219  1.00  0.00    -0.270 OA
HETATM    7  O   UNL     1      18.196  11.981  36.535  1.00  0.00    -0.263 OA
HETATM    8  O   UNL     1      17.228   7.915  40.478  1.00  0.00    -0.263 OA
HETATM    9  O   UNL     1      13.934   8.220  34.949  1.00  0.00    -0.263 OA
HETATM   10  N   UNL     1      19.855   8.807  40.046  1.00  0.00    -0.340 N 
HETATM   11  N   UNL     1      16.244  10.885  34.881  1.00  0.00    -0.340 N 
HETATM   12  N   UNL     1      15.259   5.913  37.358  1.00  0.00    -0.340 N 
HETATM   13  C   UNL     1      19.619   7.460  40.605  1.00  0.00     0.190 C 
HETATM   14  C   UNL     1      17.474  10.108  35.141  1.00  0.00     0.190 C 
HETATM   15  C   UNL     1      15.045   6.297  35.944  1.00  0.00     0.190 C 
HETATM   16  C   UNL     1      19.819  10.245  38.002  1.00  0.00     0.227 C 
HETATM   17  C   UNL     1      16.766   5.460  39.322  1.00  0.00     0.227 C 
HETATM   18  C   UNL     1      15.076   9.914  36.902  1.00  0.00     0.227 C 
HETATM   19  C   UNL     1      20.056   8.892  38.661  1.00  0.00     0.250 C 
HETATM   20  C   UNL     1      15.049  10.754  35.606  1.00  0.00     0.250 C 
HETATM   21  C   UNL     1      16.563   5.933  37.878  1.00  0.00     0.250 C 
HETATM   22  C   UNL     1      18.281  10.801  36.228  1.00  0.00     0.283 C 
HETATM   23  C   UNL     1      18.162   7.145  40.293  1.00  0.00     0.283 C 
HETATM   24  C   UNL     1      14.642   7.769  35.840  1.00  0.00     0.283 C 
HETATM   25  C   UNL     1      19.728   9.972  40.924  1.00  0.00     0.153 C 
HETATM   26  C   UNL     1      16.277  11.860  33.791  1.00  0.00     0.153 C 
HETATM   27  C   UNL     1      14.057   5.607  38.141  1.00  0.00     0.153 C 
ENDROOT
BRANCH  16  28
HETATM   28  C   UNL     1      21.137  10.906  37.642  1.00  0.00     0.016 C 
HETATM   29  C   UNL     1      22.314  10.061  38.127  1.00  0.00     0.012 C 
HETATM   30  C   UNL     1      21.212  12.314  38.229  1.00  0.00     0.012 C 
ENDBRANCH  16  28
BRANCH  14  31
HETATM   31  C   UNL     1      18.352   9.859  33.916  1.00  0.00     0.014 C 
HETATM   32  C   UNL     1      19.629  10.697  34.016  1.00  0.00     0.012 C 
BRANCH  31  33
HETATM   33  C   UNL     1      18.715   8.373  33.748  1.00  0.00     0.002 C 
HETATM   34  C   UNL     1      20.209   8.098  33.828  1.00  0.00     0.005 C 
ENDBRANCH  31  33
ENDBRANCH  14  31
BRANCH  13  35
HETATM   35  C   UNL     1      19.876   7.288  42.096  1.00  0.00     0.014 C 
HETATM   36  C   UNL     1      19.207   6.003  42.592  1.00  0.00     0.012 C 
BRANCH  35  37
HETATM   37  C   UNL     1      21.376   7.258  42.435  1.00  0.00     0.002 C 
HETATM   38  C   UNL     1      22.102   6.042  41.875  1.00  0.00     0.005 C 
ENDBRANCH  35  37
ENDBRANCH  13  35
BRANCH  18  39
HETATM   39  C   UNL     1      13.810  10.128  37.733  1.00  0.00     0.016 C 
HETATM   40  C   UNL     1      13.691   9.056  38.814  1.00  0.00     0.012 C 
HETATM   41  C   UNL     1      13.806  11.522  38.356  1.00  0.00     0.012 C 
ENDBRANCH  18  39
BRANCH  17  42
HETATM   42  C   UNL     1      16.749   3.939  39.382  1.00  0.00     0.016 C 
HETATM   43  C   UNL     1      15.962   3.455  40.600  1.00  0.00     0.012 C 
HETATM   44  C   UNL     1      18.173   3.384  39.411  1.00  0.00     0.012 C 
ENDBRANCH  17  42
BRANCH  15  45
HETATM   45  C   UNL     1      14.054   5.393  35.213  1.00  0.00     0.014 C 
HETATM   46  C   UNL     1      12.644   5.987  35.295  1.00  0.00     0.012 C 
BRANCH  45  47
HETATM   47  C   UNL     1      14.436   5.169  33.737  1.00  0.00     0.002 C 
HETATM   48  C   UNL     1      15.920   5.355  33.460  1.00  0.00     0.005 C 
ENDBRANCH  45  47
ENDBRANCH  15  45
TORSDOF 9
ENDMDL
MODEL 4
REMARK VINA RESULT:    -5.207      1.847      7.454
REMARK INTER + INTRA:          -7.792
REMARK INTER:                  -8.162
REMARK INTRA:                   0.369
REMARK UNBOUND:                 0.154
REMARK  9 active torsions:
REMARK  status: ('A' for Active; 'I' for Inactive)
REMARK    1  A    between atoms: C_13  and  C_16 
REMARK    2  A    between atoms: C_14  and  C_17 
REMARK    3  A    between atoms: C_15  and  C_18 
REMARK    4  A    between atoms: C_16  and  C_22 
REMARK    5  A    between atoms: C_17  and  C_23 
REMARK    6  A    between atoms: C_18  and  C_24 
REMARK    7  A    between atoms: C_19  and  C_25 
REMARK    8  A    between atoms: C_20  and  C_26 
REMARK    9  A    between atoms: C_21  and  C_27 
ROOT
HETATM    1  O   UNL     1      17.012   6.275  39.927  1.00  0.00    -0.304 OA
HETATM    2  O   UNL     1      18.049   8.064  35.291  1.00  0.00    -0.304 OA
HETATM    3  O   UNL     1      19.233   9.661  39.708  1.00  0.00    -0.304 OA
HETATM    4  O   UNL     1      17.130   5.438  37.476  1.00  0.00    -0.270 OA
HETATM    5  O   UNL     1      18.805  10.469  43.032  1.00  0.00    -0.270 OA
HETATM    6  O   UNL     1      19.645   7.585  37.332  1.00  0.00    -0.270 OA
HETATM    7  O   UNL     1      16.098   7.166  41.848  1.00  0.00    -0.263 OA
HETATM    8  O   UNL     1      16.513   9.273  36.519  1.00  0.00    -0.263 OA
HETATM    9  O   UNL     1      21.104  10.159  40.951  1.00  0.00    -0.263 OA
HETATM   10  N   UNL     1      15.313   6.765  36.911  1.00  0.00    -0.340 N 
HETATM   11  N   UNL     1      18.591   8.224  42.493  1.00  0.00    -0.340 N 
HETATM   12  N   UNL     1      20.587   9.703  37.429  1.00  0.00    -0.340 N 
HETATM   13  C   UNL     1      15.918   7.094  35.604  1.00  0.00     0.190 C 
HETATM   14  C   UNL     1      18.517   7.136  41.496  1.00  0.00     0.190 C 
HETATM   15  C   UNL     1      21.345   9.378  38.660  1.00  0.00     0.190 C 
HETATM   16  C   UNL     1      15.727   6.113  39.288  1.00  0.00     0.227 C 
HETATM   17  C   UNL     1      19.072   9.052  35.529  1.00  0.00     0.227 C 
HETATM   18  C   UNL     1      18.291  10.008  40.728  1.00  0.00     0.227 C 
HETATM   19  C   UNL     1      16.108   6.046  37.815  1.00  0.00     0.250 C 
HETATM   20  C   UNL     1      18.603   9.593  42.183  1.00  0.00     0.250 C 
HETATM   21  C   UNL     1      19.786   8.712  36.842  1.00  0.00     0.250 C 
HETATM   22  C   UNL     1      17.059   6.875  41.151  1.00  0.00     0.283 C 
HETATM   23  C   UNL     1      16.831   8.284  35.871  1.00  0.00     0.283 C 
HETATM   24  C   UNL     1      20.571   9.822  39.901  1.00  0.00     0.283 C 
HETATM   25  C   UNL     1      13.998   7.317  37.243  1.00  0.00     0.153 C 
HETATM   26  C   UNL     1      18.655   7.844  43.905  1.00  0.00     0.153 C 
HETATM   27  C   UNL     1      20.680  11.087  36.953  1.00  0.00     0.153 C 
ENDROOT
BRANCH  16  28
HETATM   28  C   UNL     1      15.078   4.816  39.735  1.00  0.00     0.016 C 
HETATM   29  C   UNL     1      16.050   3.647  39.584  1.00  0.00     0.012 C 
HETATM   30  C   UNL     1      13.798   4.553  38.944  1.00  0.00     0.012 C 
ENDBRANCH  16  28
BRANCH  14  31
HETATM   31  C   UNL     1      19.198   5.833  41.909  1.00  0.00     0.014 C 
HETATM   32  C   UNL     1      18.140   4.772  42.220  1.00  0.00     0.012 C 
BRANCH  31  33
HETATM   33  C   UNL     1      20.161   5.308  40.830  1.00  0.00     0.002 C 
HETATM   34  C   UNL     1      19.630   4.099  40.074  1.00  0.00     0.005 C 
ENDBRANCH  31  33
ENDBRANCH  14  31
BRANCH  13  35
HETATM   35  C   UNL     1      14.954   7.427  34.473  1.00  0.00     0.014 C 
HETATM   36  C   UNL     1      15.290   8.805  33.895  1.00  0.00     0.012 C 
BRANCH  35  37
HETATM   37  C   UNL     1      14.976   6.373  33.353  1.00  0.00     0.002 C 
HETATM   38  C   UNL     1      16.210   5.481  33.380  1.00  0.00     0.005 C 
ENDBRANCH  35  37
ENDBRANCH  13  35
BRANCH  18  39
HETATM   39  C   UNL     1      18.027  11.511  40.620  1.00  0.00     0.016 C 
HETATM   40  C   UNL     1      18.171  11.978  39.173  1.00  0.00     0.012 C 
HETATM   41  C   UNL     1      16.639  11.852  41.159  1.00  0.00     0.012 C 
ENDBRANCH  18  39
BRANCH  17  42
HETATM   42  C   UNL     1      20.049   8.971  34.365  1.00  0.00     0.016 C 
HETATM   43  C   UNL     1      19.829  10.130  33.393  1.00  0.00     0.012 C 
HETATM   44  C   UNL     1      19.916   7.633  33.639  1.00  0.00     0.012 C 
ENDBRANCH  17  42
BRANCH  15  45
HETATM   45  C   UNL     1      22.769   9.930  38.660  1.00  0.00     0.014 C 
HETATM   46  C   UNL     1      23.553   9.357  39.846  1.00  0.00     0.012 C 
BRANCH  45  47
HETATM   47  C   UNL     1      23.521   9.629  37.349  1.00  0.00     0.002 C 
HETATM   48  C   UNL     1      24.853  10.354  37.234  1.00  0.00     0.005 C 
ENDBRANCH  45  47
ENDBRANCH  15  45
TORSDOF 9
ENDMDL
MODEL 5
REMARK VINA RESULT:    -4.995      1.637      2.075
REMARK INTER + INTRA:          -7.469
REMARK INTER:                  -8.051
REMARK INTRA:                   0.582
REMARK UNBOUND:                 0.154
REMARK  9 active torsions:
REMARK  status: ('A' for Active; 'I' for Inactive)
REMARK    1  A    between atoms: C_13  and  C_16 
REMARK    2  A    between atoms: C_14  and  C_17 
REMARK    3  A    between atoms: C_15  and  C_18 
REMARK    4  A    between atoms: C_16  and  C_22 
REMARK    5  A    between atoms: C_17  and  C_23 
REMARK    6  A    between atoms: C_18  and  C_24 
REMARK    7  A    between atoms: C_19  and  C_25 
REMARK    8  A    between atoms: C_20  and  C_26 
REMARK    9  A    between atoms: C_21  and  C_27 
ROOT
HETATM    1  O   UNL     1      18.993  10.073  36.182  1.00  0.00    -0.304 OA
HETATM    2  O   UNL     1      20.821   7.818  40.346  1.00  0.00    -0.304 OA
HETATM    3  O   UNL     1      16.290   8.603  38.824  1.00  0.00    -0.304 OA
HETATM    4  O   UNL     1      21.172   8.937  37.009  1.00  0.00    -0.270 OA
HETATM    5  O   UNL     1      13.632  10.326  37.465  1.00  0.00    -0.270 OA
HETATM    6  O   UNL     1      19.024   6.990  38.606  1.00  0.00    -0.270 OA
HETATM    7  O   UNL     1      17.472  11.759  35.779  1.00  0.00    -0.263 OA
HETATM    8  O   UNL     1      19.852   9.889  40.664  1.00  0.00    -0.263 OA
HETATM    9  O   UNL     1      14.379   7.424  38.322  1.00  0.00    -0.263 OA
HETATM   10  N   UNL     1      21.515  10.652  38.534  1.00  0.00    -0.340 N 
HETATM   11  N   UNL     1      15.411   9.906  36.038  1.00  0.00    -0.340 N 
HETATM   12  N   UNL     1      17.345   6.562  40.150  1.00  0.00    -0.340 N 
HETATM   13  C   UNL     1      22.009   9.697  39.546  1.00  0.00     0.190 C 
HETATM   14  C   UNL     1      16.783   9.414  35.794  1.00  0.00     0.190 C 
HETATM   15  C   UNL     1      16.364   6.244  39.086  1.00  0.00     0.190 C 
HETATM   16  C   UNL     1      20.048  10.992  36.538  1.00  0.00     0.227 C 
HETATM   17  C   UNL     1      19.671   7.153  40.906  1.00  0.00     0.227 C 
HETATM   18  C   UNL     1      15.737   9.892  38.544  1.00  0.00     0.227 C 
HETATM   19  C   UNL     1      20.980  10.108  37.357  1.00  0.00     0.250 C 
HETATM   20  C   UNL     1      14.826  10.044  37.307  1.00  0.00     0.250 C 
HETATM   21  C   UNL     1      18.657   6.901  39.784  1.00  0.00     0.250 C 
HETATM   22  C   UNL     1      17.756  10.577  35.906  1.00  0.00     0.283 C 
HETATM   23  C   UNL     1      20.763   9.181  40.255  1.00  0.00     0.283 C 
HETATM   24  C   UNL     1      15.530   7.476  38.736  1.00  0.00     0.283 C 
HETATM   25  C   UNL     1      21.476  12.078  38.862  1.00  0.00     0.153 C 
HETATM   26  C   UNL     1      14.607  10.276  34.873  1.00  0.00     0.153 C 
HETATM   27  C   UNL     1      16.836   6.571  41.525  1.00  0.00     0.153 C 
ENDROOT
BRANCH  16  28
HETATM   28  C   UNL     1      20.747  11.499  35.290  1.00  0.00     0.016 C 
HETATM   29  C   UNL     1      21.223  10.332  34.427  1.00  0.00     0.012 C 
HETATM   30  C   UNL     1      21.920  12.405  35.659  1.00  0.00     0.012 C 
ENDBRANCH  16  28
BRANCH  14  31
HETATM   31  C   UNL     1      16.983   8.690  34.464  1.00  0.00     0.014 C 
HETATM   32  C   UNL     1      17.705   9.611  33.477  1.00  0.00     0.012 C 
BRANCH  31  33
HETATM   33  C   UNL     1      17.770   7.378  34.625  1.00  0.00     0.002 C 
HETATM   34  C   UNL     1      17.080   6.360  35.522  1.00  0.00     0.005 C 
ENDBRANCH  31  33
ENDBRANCH  14  31
BRANCH  13  35
HETATM   35  C   UNL     1      22.996  10.241  40.570  1.00  0.00     0.014 C 
HETATM   36  C   UNL     1      22.824   9.502  41.900  1.00  0.00     0.012 C 
BRANCH  35  37
HETATM   37  C   UNL     1      24.456  10.128  40.096  1.00  0.00     0.002 C 
HETATM   38  C   UNL     1      25.424   9.727  41.201  1.00  0.00     0.005 C 
ENDBRANCH  35  37
ENDBRANCH  13  35
BRANCH  18  39
HETATM   39  C   UNL     1      15.039  10.380  39.816  1.00  0.00     0.016 C 
HETATM   40  C   UNL     1      15.811   9.935  41.056  1.00  0.00     0.012 C 
HETATM   41  C   UNL     1      14.888  11.900  39.794  1.00  0.00     0.012 C 
ENDBRANCH  18  39
BRANCH  17  42
HETATM   42  C   UNL     1      20.156   5.830  41.481  1.00  0.00     0.016 C 
HETATM   43  C   UNL     1      21.614   5.937  41.928  1.00  0.00     0.012 C 
HETATM   44  C   UNL     1      19.992   4.704  40.461  1.00  0.00     0.012 C 
ENDBRANCH  17  42
BRANCH  15  45
HETATM   45  C   UNL     1      15.478   5.044  39.417  1.00  0.00     0.014 C 
HETATM   46  C   UNL     1      14.482   4.797  38.278  1.00  0.00     0.012 C 
BRANCH  45  47
HETATM   47  C   UNL     1      16.291   3.762  39.680  1.00  0.00     0.002 C 
HETATM   48  C   UNL     1      15.432   2.565  40.058  1.00  0.00     0.005 C 
ENDBRANCH  45  47
ENDBRANCH  15  45
TORSDOF 9
ENDMDL
MODEL 6
REMARK VINA RESULT:    -4.974      2.352      7.051
REMARK INTER + INTRA:          -7.437
REMARK INTER:                  -7.354
REMARK INTRA:                  -0.084
REMARK UNBOUND:                 0.154
REMARK  9 active torsions:
REMARK  status: ('A' for Active; 'I' for Inactive)
REMARK    1  A    between atoms: C_13  and  C_16 
REMARK    2  A    between atoms: C_14  and  C_17 
REMARK    3  A    between atoms: C_15  and  C_18 
REMARK    4  A    between atoms: C_16  and  C_22 
REMARK    5  A    between atoms: C_17  and  C_23 
REMARK    6  A    between atoms: C_18  and  C_24 
REMARK    7  A    between atoms: C_19  and  C_25 
REMARK    8  A    between atoms: C_20  and  C_26 
REMARK    9  A    between atoms: C_21  and  C_27 
ROOT
HETATM    1  O   UNL     1      12.666   8.340  39.225  1.00  0.00    -0.304 OA
HETATM    2  O   UNL     1      16.612   5.150  39.356  1.00  0.00    -0.304 OA
HETATM    3  O   UNL     1      14.414   7.418  35.684  1.00  0.00    -0.304 OA
HETATM    4  O   UNL     1      14.446   7.481  40.902  1.00  0.00    -0.270 OA
HETATM    5  O   UNL     1      11.807   8.632  33.782  1.00  0.00    -0.270 OA
HETATM    6  O   UNL     1      16.359   7.504  38.201  1.00  0.00    -0.270 OA
HETATM    7  O   UNL     1      10.676   8.421  38.061  1.00  0.00    -0.263 OA
HETATM    8  O   UNL     1      14.650   4.293  38.494  1.00  0.00    -0.263 OA
HETATM    9  O   UNL     1      14.908   8.878  33.975  1.00  0.00    -0.263 OA
HETATM   10  N   UNL     1      13.518   5.355  40.833  1.00  0.00    -0.340 N 
HETATM   11  N   UNL     1      12.031   9.541  35.903  1.00  0.00    -0.340 N 
HETATM   12  N   UNL     1      16.968   6.817  36.070  1.00  0.00    -0.340 N 
HETATM   13  C   UNL     1      14.857   4.733  40.881  1.00  0.00     0.190 C 
HETATM   14  C   UNL     1      12.669   9.570  37.236  1.00  0.00     0.190 C 
HETATM   15  C   UNL     1      16.667   8.145  35.488  1.00  0.00     0.190 C 
HETATM   16  C   UNL     1      12.178   7.356  40.162  1.00  0.00     0.227 C 
HETATM   17  C   UNL     1      17.185   5.263  38.038  1.00  0.00     0.227 C 
HETATM   18  C   UNL     1      13.028   7.284  35.356  1.00  0.00     0.227 C 
HETATM   19  C   UNL     1      13.471   6.750  40.691  1.00  0.00     0.250 C 
HETATM   20  C   UNL     1      12.250   8.549  34.934  1.00  0.00     0.250 C 
HETATM   21  C   UNL     1      16.796   6.624  37.450  1.00  0.00     0.250 C 
HETATM   22  C   UNL     1      11.854   8.719  38.197  1.00  0.00     0.283 C 
HETATM   23  C   UNL     1      15.330   4.683  39.434  1.00  0.00     0.283 C 
HETATM   24  C   UNL     1      15.249   8.174  34.917  1.00  0.00     0.283 C 
HETATM   25  C   UNL     1      12.336   4.493  40.792  1.00  0.00     0.153 C 
HETATM   26  C   UNL     1      11.104  10.624  35.573  1.00  0.00     0.153 C 
HETATM   27  C   UNL     1      17.360   5.764  35.127  1.00  0.00     0.153 C 
ENDROOT
BRANCH  16  28
HETATM   28  C   UNL     1      11.404   8.032  41.279  1.00  0.00     0.016 C 
HETATM   29  C   UNL     1      12.081   7.790  42.626  1.00  0.00     0.012 C 
HETATM   30  C   UNL     1       9.959   7.536  41.309  1.00  0.00     0.012 C 
ENDBRANCH  16  28
BRANCH  14  31
HETATM   31  C   UNL     1      12.880  10.965  37.822  1.00  0.00     0.014 C 
HETATM   32  C   UNL     1      11.957  11.165  39.026  1.00  0.00     0.012 C 
BRANCH  31  33
HETATM   33  C   UNL     1      14.341  11.210  38.237  1.00  0.00     0.002 C 
HETATM   34  C   UNL     1      15.307  11.271  37.062  1.00  0.00     0.005 C 
ENDBRANCH  31  33
ENDBRANCH  14  31
BRANCH  13  35
HETATM   35  C   UNL     1      14.940   3.345  41.500  1.00  0.00     0.014 C 
HETATM   36  C   UNL     1      16.136   2.588  40.916  1.00  0.00     0.012 C 
BRANCH  35  37
HETATM   37  C   UNL     1      15.051   3.389  43.034  1.00  0.00     0.002 C 
HETATM   38  C   UNL     1      16.483   3.289  43.543  1.00  0.00     0.005 C 
ENDBRANCH  35  37
ENDBRANCH  13  35
BRANCH  18  39
HETATM   39  C   UNL     1      12.908   6.177  34.307  1.00  0.00     0.016 C 
HETATM   40  C   UNL     1      13.945   5.086  34.557  1.00  0.00     0.012 C 
HETATM   41  C   UNL     1      11.498   5.589  34.307  1.00  0.00     0.012 C 
ENDBRANCH  18  39
BRANCH  17  42
HETATM   42  C   UNL     1      18.696   5.175  38.199  1.00  0.00     0.016 C 
HETATM   43  C   UNL     1      19.120   3.750  38.554  1.00  0.00     0.012 C 
HETATM   44  C   UNL     1      19.184   6.157  39.263  1.00  0.00     0.012 C 
ENDBRANCH  17  42
BRANCH  15  45
HETATM   45  C   UNL     1      17.695   8.603  34.456  1.00  0.00     0.014 C 
HETATM   46  C   UNL     1      17.668  10.130  34.330  1.00  0.00     0.012 C 
BRANCH  45  47
HETATM   47  C   UNL     1      19.124   8.137  34.797  1.00  0.00     0.002 C 
HETATM   48  C   UNL     1      19.765   8.928  35.928  1.00  0.00     0.005 C 
ENDBRANCH  45  47
ENDBRANCH  15  45
TORSDOF 9
ENDMDL
MODEL 7
REMARK VINA RESULT:    -4.927     10.414     14.593
REMARK INTER + INTRA:          -7.366
REMARK INTER:                  -7.611
REMARK INTRA:                   0.246
REMARK UNBOUND:                 0.154
REMARK  9 active torsions:
REMARK  status: ('A' for Active; 'I' for Inactive)
REMARK    1  A    between atoms: C_13  and  C_16 
REMARK    2  A    between atoms: C_14  and  C_17 
REMARK    3  A    between atoms: C_15  and  C_18 
REMARK    4  A    between atoms: C_16  and  C_22 
REMARK    5  A    between atoms: C_17  and  C_23 
REMARK    6  A    between atoms: C_18  and  C_24 
REMARK    7  A    between atoms: C_19  and  C_25 
REMARK    8  A    between atoms: C_20  and  C_26 
REMARK    9  A    between atoms: C_21  and  C_27 
ROOT
HETATM    1  O   UNL     1      18.809  19.944  45.740  1.00  0.00    -0.304 OA
HETATM    2  O   UNL     1      19.018  15.877  42.708  1.00  0.00    -0.304 OA
HETATM    3  O   UNL     1      21.911  19.738  43.135  1.00  0.00    -0.304 OA
HETATM    4  O   UNL     1      17.911  17.514  45.643  1.00  0.00    -0.270 OA
HETATM    5  O   UNL     1      22.777  23.056  43.497  1.00  0.00    -0.270 OA
HETATM    6  O   UNL     1      20.862  16.950  44.254  1.00  0.00    -0.270 OA
HETATM    7  O   UNL     1      18.865  22.226  45.408  1.00  0.00    -0.263 OA
HETATM    8  O   UNL     1      18.429  17.865  41.692  1.00  0.00    -0.263 OA
HETATM    9  O   UNL     1      24.113  20.241  43.578  1.00  0.00    -0.263 OA
HETATM   10  N   UNL     1      16.594  18.049  43.809  1.00  0.00    -0.340 N 
HETATM   11  N   UNL     1      21.642  22.098  45.279  1.00  0.00    -0.340 N 
HETATM   12  N   UNL     1      22.472  17.202  42.602  1.00  0.00    -0.340 N 
HETATM   13  C   UNL     1      16.870  16.738  43.187  1.00  0.00     0.190 C 
HETATM   14  C   UNL     1      20.906  20.969  45.885  1.00  0.00     0.190 C 
HETATM   15  C   UNL     1      23.389  17.919  43.518  1.00  0.00     0.190 C 
HETATM   16  C   UNL     1      17.423  19.834  45.350  1.00  0.00     0.227 C 
HETATM   17  C   UNL     1      20.343  15.940  42.146  1.00  0.00     0.227 C 
HETATM   18  C   UNL     1      21.490  21.094  42.964  1.00  0.00     0.227 C 
HETATM   19  C   UNL     1      17.313  18.363  44.972  1.00  0.00     0.250 C 
HETATM   20  C   UNL     1      22.043  22.161  43.935  1.00  0.00     0.250 C 
HETATM   21  C   UNL     1      21.241  16.743  43.095  1.00  0.00     0.250 C 
HETATM   22  C   UNL     1      19.416  21.162  45.648  1.00  0.00     0.283 C 
HETATM   23  C   UNL     1      18.177  16.919  42.428  1.00  0.00     0.283 C 
HETATM   24  C   UNL     1      23.216  19.431  43.378  1.00  0.00     0.283 C 
HETATM   25  C   UNL     1      15.713  18.991  43.117  1.00  0.00     0.153 C 
HETATM   26  C   UNL     1      21.976  23.230  46.143  1.00  0.00     0.153 C 
HETATM   27  C   UNL     1      22.902  17.090  41.204  1.00  0.00     0.153 C 
ENDROOT
BRANCH  16  28
HETATM   28  C   UNL     1      16.520  20.157  46.526  1.00  0.00     0.016 C 
HETATM   29  C   UNL     1      15.677  18.941  46.907  1.00  0.00     0.012 C 
HETATM   30  C   UNL     1      15.623  21.351  46.205  1.00  0.00     0.012 C 
ENDBRANCH  16  28
BRANCH  14  31
HETATM   31  C   UNL     1      21.175  20.745  47.372  1.00  0.00     0.014 C 
HETATM   32  C   UNL     1      20.029  21.331  48.199  1.00  0.00     0.012 C 
BRANCH  31  33
HETATM   33  C   UNL     1      21.359  19.256  47.715  1.00  0.00     0.002 C 
HETATM   34  C   UNL     1      22.397  18.555  46.851  1.00  0.00     0.005 C 
ENDBRANCH  31  33
ENDBRANCH  14  31
BRANCH  13  35
HETATM   35  C   UNL     1      15.801  16.191  42.251  1.00  0.00     0.014 C 
HETATM   36  C   UNL     1      16.392  15.075  41.385  1.00  0.00     0.012 C 
BRANCH  35  37
HETATM   37  C   UNL     1      14.569  15.665  43.008  1.00  0.00     0.002 C 
HETATM   38  C   UNL     1      13.246  16.060  42.365  1.00  0.00     0.005 C 
ENDBRANCH  35  37
ENDBRANCH  13  35
BRANCH  18  39
HETATM   39  C   UNL     1      21.750  21.477  41.506  1.00  0.00     0.016 C 
HETATM   40  C   UNL     1      22.081  20.238  40.677  1.00  0.00     0.012 C 
HETATM   41  C   UNL     1      20.545  22.210  40.920  1.00  0.00     0.012 C 
ENDBRANCH  18  39
BRANCH  17  42
HETATM   42  C   UNL     1      20.848  14.508  42.034  1.00  0.00     0.016 C 
HETATM   43  C   UNL     1      20.757  14.014  40.591  1.00  0.00     0.012 C 
HETATM   44  C   UNL     1      20.064  13.584  42.965  1.00  0.00     0.012 C 
ENDBRANCH  17  42
BRANCH  15  45
HETATM   45  C   UNL     1      24.851  17.506  43.360  1.00  0.00     0.014 C 
HETATM   46  C   UNL     1      25.658  17.955  44.584  1.00  0.00     0.012 C 
BRANCH  45  47
HETATM   47  C   UNL     1      25.018  15.987  43.159  1.00  0.00     0.002 C 
HETATM   48  C   UNL     1      26.237  15.617  42.326  1.00  0.00     0.005 C 
ENDBRANCH  45  47
ENDBRANCH  15  45
TORSDOF 9
ENDMDL
MODEL 8
REMARK VINA RESULT:    -4.567     16.782     21.072
REMARK INTER + INTRA:          -6.816
REMARK INTER:                  -7.016
REMARK INTRA:                   0.201
REMARK UNBOUND:                 0.154
REMARK  9 active torsions:
REMARK  status: ('A' for Active; 'I' for Inactive)
REMARK    1  A    between atoms: C_13  and  C_16 
REMARK    2  A    between atoms: C_14  and  C_17 
REMARK    3  A    between atoms: C_15  and  C_18 
REMARK    4  A    between atoms: C_16  and  C_22 
REMARK    5  A    between atoms: C_17  and  C_23 
REMARK    6  A    between atoms: C_18  and  C_24 
REMARK    7  A    between atoms: C_19  and  C_25 
REMARK    8  A    between atoms: C_20  and  C_26 
REMARK    9  A    between atoms: C_21  and  C_27 
ROOT
HETATM    1  O   UNL     1       7.260  27.558  43.959  1.00  0.00    -0.304 OA
HETATM    2  O   UNL     1      10.002  23.606  42.337  1.00  0.00    -0.304 OA
HETATM    3  O   UNL     1       5.230  24.436  42.353  1.00  0.00    -0.304 OA
HETATM    4  O   UNL     1       9.683  27.019  43.211  1.00  0.00    -0.270 OA
HETATM    5  O   UNL     1       2.171  25.460  43.569  1.00  0.00    -0.270 OA
HETATM    6  O   UNL     1       8.113  24.985  41.124  1.00  0.00    -0.270 OA
HETATM    7  O   UNL     1       5.459  27.817  45.377  1.00  0.00    -0.263 OA
HETATM    8  O   UNL     1       8.789  23.266  44.272  1.00  0.00    -0.263 OA
HETATM    9  O   UNL     1       3.465  24.556  40.882  1.00  0.00    -0.263 OA
HETATM   10  N   UNL     1       9.985  25.676  45.078  1.00  0.00    -0.340 N 
HETATM   11  N   UNL     1       3.762  27.122  43.283  1.00  0.00    -0.340 N 
HETATM   12  N   UNL     1       6.764  23.172  40.598  1.00  0.00    -0.340 N 
HETATM   13  C   UNL     1      10.762  24.698  44.290  1.00  0.00     0.190 C 
HETATM   14  C   UNL     1       5.142  27.550  42.968  1.00  0.00     0.190 C 
HETATM   15  C   UNL     1       5.696  24.045  40.057  1.00  0.00     0.190 C 
HETATM   16  C   UNL     1       8.205  27.431  45.042  1.00  0.00     0.227 C 
HETATM   17  C   UNL     1       9.060  22.831  41.568  1.00  0.00     0.227 C 
HETATM   18  C   UNL     1       4.454  24.703  43.525  1.00  0.00     0.227 C 
HETATM   19  C   UNL     1       9.370  26.718  44.369  1.00  0.00     0.250 C 
HETATM   20  C   UNL     1       3.357  25.787  43.444  1.00  0.00     0.250 C 
HETATM   21  C   UNL     1       7.941  23.761  41.083  1.00  0.00     0.250 C 
HETATM   22  C   UNL     1       5.934  27.665  44.261  1.00  0.00     0.283 C 
HETATM   23  C   UNL     1       9.727  23.770  43.666  1.00  0.00     0.283 C 
HETATM   24  C   UNL     1       4.643  24.333  41.128  1.00  0.00     0.283 C 
HETATM   25  C   UNL     1       9.781  25.433  46.508  1.00  0.00     0.153 C 
HETATM   26  C   UNL     1       2.749  28.166  43.438  1.00  0.00     0.153 C 
HETATM   27  C   UNL     1       6.469  21.737  40.650  1.00  0.00     0.153 C 
ENDROOT
BRANCH  16  28
HETATM   28  C   UNL     1       8.627  28.803  45.535  1.00  0.00     0.016 C 
HETATM   29  C   UNL     1       9.259  29.611  44.404  1.00  0.00     0.012 C 
HETATM   30  C   UNL     1       9.596  28.679  46.710  1.00  0.00     0.012 C 
ENDBRANCH  16  28
BRANCH  14  31
HETATM   31  C   UNL     1       5.250  28.848  42.170  1.00  0.00     0.014 C 
HETATM   32  C   UNL     1       5.836  29.951  43.054  1.00  0.00     0.012 C 
BRANCH  31  33
HETATM   33  C   UNL     1       6.105  28.686  40.902  1.00  0.00     0.002 C 
HETATM   34  C   UNL     1       5.446  27.833  39.827  1.00  0.00     0.005 C 
ENDBRANCH  31  33
ENDBRANCH  14  31
BRANCH  13  35
HETATM   35  C   UNL     1      11.796  23.879  45.050  1.00  0.00     0.014 C 
HETATM   36  C   UNL     1      12.142  22.616  44.257  1.00  0.00     0.012 C 
BRANCH  35  37
HETATM   37  C   UNL     1      13.078  24.677  45.343  1.00  0.00     0.002 C 
HETATM   38  C   UNL     1      13.415  24.765  46.826  1.00  0.00     0.005 C 
ENDBRANCH  35  37
ENDBRANCH  13  35
BRANCH  18  39
HETATM   39  C   UNL     1       3.886  23.370  44.015  1.00  0.00     0.016 C 
HETATM   40  C   UNL     1       4.877  22.237  43.757  1.00  0.00     0.012 C 
HETATM   41  C   UNL     1       3.537  23.449  45.500  1.00  0.00     0.012 C 
ENDBRANCH  18  39
BRANCH  17  42
HETATM   42  C   UNL     1       9.819  22.260  40.378  1.00  0.00     0.016 C 
HETATM   43  C   UNL     1      10.057  20.761  40.557  1.00  0.00     0.012 C 
HETATM   44  C   UNL     1      11.147  22.992  40.183  1.00  0.00     0.012 C 
ENDBRANCH  17  42
BRANCH  15  45
HETATM   45  C   UNL     1       5.060  23.505  38.778  1.00  0.00     0.014 C 
HETATM   46  C   UNL     1       4.456  24.656  37.966  1.00  0.00     0.012 C 
BRANCH  45  47
HETATM   47  C   UNL     1       6.060  22.724  37.903  1.00  0.00     0.002 C 
HETATM   48  C   UNL     1       5.481  22.284  36.567  1.00  0.00     0.005 C 
ENDBRANCH  45  47
ENDBRANCH  15  45
TORSDOF 9
ENDMDL
MODEL 9
REMARK VINA RESULT:    -4.557      2.359      6.215
REMARK INTER + INTRA:          -6.801
REMARK INTER:                  -6.615
REMARK INTRA:                  -0.186
REMARK UNBOUND:                 0.154
REMARK  9 active torsions:
REMARK  status: ('A' for Active; 'I' for Inactive)
REMARK    1  A    between atoms: C_13  and  C_16 
REMARK    2  A    between atoms: C_14  and  C_17 
REMARK    3  A    between atoms: C_15  and  C_18 
REMARK    4  A    between atoms: C_16  and  C_22 
REMARK    5  A    between atoms: C_17  and  C_23 
REMARK    6  A    between atoms: C_18  and  C_24 
REMARK    7  A    between atoms: C_19  and  C_25 
REMARK    8  A    between atoms: C_20  and  C_26 
REMARK    9  A    between atoms: C_21  and  C_27 
ROOT
HETATM    1  O   UNL     1      17.471   8.419  41.755  1.00  0.00    -0.304 OA
HETATM    2  O   UNL     1      19.356   9.566  37.183  1.00  0.00    -0.304 OA
HETATM    3  O   UNL     1      16.838   5.746  38.772  1.00  0.00    -0.304 OA
HETATM    4  O   UNL     1      18.246  10.497  40.410  1.00  0.00    -0.270 OA
HETATM    5  O   UNL     1      15.902   3.199  40.899  1.00  0.00    -0.270 OA
HETATM    6  O   UNL     1      16.936   8.801  37.888  1.00  0.00    -0.270 OA
HETATM    7  O   UNL     1      17.616   6.600  43.165  1.00  0.00    -0.263 OA
HETATM    8  O   UNL     1      20.440   7.879  38.327  1.00  0.00    -0.263 OA
HETATM    9  O   UNL     1      14.879   4.626  38.324  1.00  0.00    -0.263 OA
HETATM   10  N   UNL     1      20.435   9.728  40.440  1.00  0.00    -0.340 N 
HETATM   11  N   UNL     1      15.604   5.355  41.698  1.00  0.00    -0.340 N 
HETATM   12  N   UNL     1      16.799   6.997  36.435  1.00  0.00    -0.340 N 
HETATM   13  C   UNL     1      20.652  10.195  39.056  1.00  0.00     0.190 C 
HETATM   14  C   UNL     1      15.779   6.817  41.567  1.00  0.00     0.190 C 
HETATM   15  C   UNL     1      15.496   6.567  36.993  1.00  0.00     0.190 C 
HETATM   16  C   UNL     1      18.775   8.919  42.125  1.00  0.00     0.227 C 
HETATM   17  C   UNL     1      18.723   8.614  36.305  1.00  0.00     0.227 C 
HETATM   18  C   UNL     1      17.250   4.885  39.838  1.00  0.00     0.227 C 
HETATM   19  C   UNL     1      19.126   9.806  40.938  1.00  0.00     0.250 C 
HETATM   20  C   UNL     1      16.182   4.402  40.843  1.00  0.00     0.250 C 
HETATM   21  C   UNL     1      17.413   8.149  36.951  1.00  0.00     0.250 C 
HETATM   22  C   UNL     1      17.056   7.232  42.281  1.00  0.00     0.283 C 
HETATM   23  C   UNL     1      20.160   9.060  38.166  1.00  0.00     0.283 C 
HETATM   24  C   UNL     1      15.698   5.499  38.069  1.00  0.00     0.283 C 
HETATM   25  C   UNL     1      21.541   9.089  41.156  1.00  0.00     0.153 C 
HETATM   26  C   UNL     1      14.771   4.869  42.797  1.00  0.00     0.153 C 
HETATM   27  C   UNL     1      17.392   6.126  35.415  1.00  0.00     0.153 C 
ENDROOT
BRANCH  16  28
HETATM   28  C   UNL     1      18.682   9.737  43.399  1.00  0.00     0.016 C 
HETATM   29  C   UNL     1      19.100  11.183  43.143  1.00  0.00     0.012 C 
HETATM   30  C   UNL     1      19.542   9.119  44.501  1.00  0.00     0.012 C 
ENDBRANCH  16  28
BRANCH  14  31
HETATM   31  C   UNL     1      14.604   7.656  42.068  1.00  0.00     0.014 C 
HETATM   32  C   UNL     1      15.011   8.413  43.334  1.00  0.00     0.012 C 
BRANCH  31  33
HETATM   33  C   UNL     1      14.099   8.648  41.006  1.00  0.00     0.002 C 
HETATM   34  C   UNL     1      13.510   7.974  39.774  1.00  0.00     0.005 C 
ENDBRANCH  31  33
ENDBRANCH  14  31
BRANCH  13  35
HETATM   35  C   UNL     1      22.080  10.563  38.679  1.00  0.00     0.014 C 
HETATM   36  C   UNL     1      22.333  10.220  37.208  1.00  0.00     0.012 C 
BRANCH  35  37
HETATM   37  C   UNL     1      22.390  12.050  38.927  1.00  0.00     0.002 C 
HETATM   38  C   UNL     1      21.178  12.958  38.765  1.00  0.00     0.005 C 
ENDBRANCH  35  37
ENDBRANCH  13  35
BRANCH  18  39
HETATM   39  C   UNL     1      18.004   3.708  39.216  1.00  0.00     0.016 C 
HETATM   40  C   UNL     1      18.720   4.145  37.940  1.00  0.00     0.012 C 
HETATM   41  C   UNL     1      18.998   3.119  40.215  1.00  0.00     0.012 C 
ENDBRANCH  18  39
BRANCH  17  42
HETATM   42  C   UNL     1      18.434   9.337  34.997  1.00  0.00     0.016 C 
HETATM   43  C   UNL     1      19.486   8.988  33.944  1.00  0.00     0.012 C 
HETATM   44  C   UNL     1      18.378  10.848  35.216  1.00  0.00     0.012 C 
ENDBRANCH  17  42
BRANCH  15  45
HETATM   45  C   UNL     1      14.502   6.107  35.929  1.00  0.00     0.014 C 
HETATM   46  C   UNL     1      13.110   5.940  36.549  1.00  0.00     0.012 C 
BRANCH  45  47
HETATM   47  C   UNL     1      14.423   7.077  34.734  1.00  0.00     0.002 C 
HETATM   48  C   UNL     1      14.054   8.499  35.131  1.00  0.00     0.005 C 
ENDBRANCH  45  47
ENDBRANCH  15  45
TORSDOF 9
ENDMDL
MODEL 10
REMARK VINA RESULT:    -4.467     14.393     19.032
REMARK INTER + INTRA:          -6.663
REMARK INTER:                  -7.036
REMARK INTRA:                   0.372
REMARK UNBOUND:                 0.154
REMARK  9 active torsions:
REMARK  status: ('A' for Active; 'I' for Inactive)
REMARK    1  A    between atoms: C_13  and  C_16 
REMARK    2  A    between atoms: C_14  and  C_17 
REMARK    3  A    between atoms: C_15  and  C_18 
REMARK    4  A    between atoms: C_16  and  C_22 
REMARK    5  A    between atoms: C_17  and  C_23 
REMARK    6  A    between atoms: C_18  and  C_24 
REMARK    7  A    between atoms: C_19  and  C_25 
REMARK    8  A    between atoms: C_20  and  C_26 
REMARK    9  A    between atoms: C_21  and  C_27 
ROOT
HETATM    1  O   UNL     1       4.655  21.999  37.284  1.00  0.00    -0.304 OA
HETATM    2  O   UNL     1       6.450  25.100  40.879  1.00  0.00    -0.304 OA
HETATM    3  O   UNL     1       7.068  20.359  40.101  1.00  0.00    -0.304 OA
HETATM    4  O   UNL     1       5.081  24.527  37.668  1.00  0.00    -0.270 OA
HETATM    5  O   UNL     1       6.208  17.112  39.323  1.00  0.00    -0.270 OA
HETATM    6  O   UNL     1       7.704  23.379  39.328  1.00  0.00    -0.270 OA
HETATM    7  O   UNL     1       3.523  19.989  37.285  1.00  0.00    -0.263 OA
HETATM    8  O   UNL     1       4.821  23.609  41.554  1.00  0.00    -0.263 OA
HETATM    9  O   UNL     1       8.764  18.845  39.745  1.00  0.00    -0.263 OA
HETATM   10  N   UNL     1       3.440  24.577  39.309  1.00  0.00    -0.340 N 
HETATM   11  N   UNL     1       5.950  18.670  37.624  1.00  0.00    -0.340 N 
HETATM   12  N   UNL     1       8.738  22.195  41.034  1.00  0.00    -0.340 N 
HETATM   13  C   UNL     1       4.245  25.502  40.131  1.00  0.00     0.190 C 
HETATM   14  C   UNL     1       5.962  20.065  37.139  1.00  0.00     0.190 C 
HETATM   15  C   UNL     1       9.290  21.196  40.090  1.00  0.00     0.190 C 
HETATM   16  C   UNL     1       3.469  22.765  37.587  1.00  0.00     0.227 C 
HETATM   17  C   UNL     1       7.480  24.320  41.518  1.00  0.00     0.227 C 
HETATM   18  C   UNL     1       6.009  19.398  40.044  1.00  0.00     0.227 C 
HETATM   19  C   UNL     1       4.055  24.046  38.166  1.00  0.00     0.250 C 
HETATM   20  C   UNL     1       6.083  18.291  38.970  1.00  0.00     0.250 C 
HETATM   21  C   UNL     1       7.977  23.259  40.528  1.00  0.00     0.250 C 
HETATM   22  C   UNL     1       4.557  20.639  37.240  1.00  0.00     0.283 C 
HETATM   23  C   UNL     1       5.174  24.612  40.947  1.00  0.00     0.283 C 
HETATM   24  C   UNL     1       8.371  19.977  39.997  1.00  0.00     0.283 C 
HETATM   25  C   UNL     1       2.124  24.159  39.793  1.00  0.00     0.153 C 
HETATM   26  C   UNL     1       5.789  17.608  36.631  1.00  0.00     0.153 C 
HETATM   27  C   UNL     1       8.975  21.946  42.460  1.00  0.00     0.153 C 
ENDROOT
BRANCH  16  28
HETATM   28  C   UNL     1       2.692  23.055  36.316  1.00  0.00     0.016 C 
HETATM   29  C   UNL     1       3.422  24.089  35.462  1.00  0.00     0.012 C 
HETATM   30  C   UNL     1       1.279  23.535  36.646  1.00  0.00     0.012 C 
ENDBRANCH  16  28
BRANCH  14  31
HETATM   31  C   UNL     1       6.503  20.252  35.722  1.00  0.00     0.014 C 
HETATM   32  C   UNL     1       5.340  20.431  34.744  1.00  0.00     0.012 C 
BRANCH  31  33
HETATM   33  C   UNL     1       7.463  21.450  35.616  1.00  0.00     0.002 C 
HETATM   34  C   UNL     1       8.757  21.264  36.396  1.00  0.00     0.005 C 
ENDBRANCH  31  33
ENDBRANCH  14  31
BRANCH  13  35
HETATM   35  C   UNL     1       3.476  26.432  41.060  1.00  0.00     0.014 C 
HETATM   36  C   UNL     1       4.315  26.732  42.305  1.00  0.00     0.012 C 
BRANCH  35  37
HETATM   37  C   UNL     1       3.074  27.749  40.374  1.00  0.00     0.002 C 
HETATM   38  C   UNL     1       4.254  28.519  39.796  1.00  0.00     0.005 C 
ENDBRANCH  35  37
ENDBRANCH  13  35
BRANCH  18  39
HETATM   39  C   UNL     1       5.847  18.808  41.446  1.00  0.00     0.016 C 
HETATM   40  C   UNL     1       6.099  19.874  42.510  1.00  0.00     0.012 C 
HETATM   41  C   UNL     1       4.455  18.200  41.614  1.00  0.00     0.012 C 
ENDBRANCH  18  39
BRANCH  17  42
HETATM   42  C   UNL     1       8.610  25.277  41.872  1.00  0.00     0.016 C 
HETATM   43  C   UNL     1       8.099  26.413  42.757  1.00  0.00     0.012 C 
HETATM   44  C   UNL     1       9.260  25.836  40.606  1.00  0.00     0.012 C 
ENDBRANCH  17  42
BRANCH  15  45
HETATM   45  C   UNL     1      10.728  20.789  40.409  1.00  0.00     0.014 C 
HETATM   46  C   UNL     1      11.310  19.972  39.250  1.00  0.00     0.012 C 
BRANCH  45  47
HETATM   47  C   UNL     1      11.636  22.000  40.696  1.00  0.00     0.002 C 
HETATM   48  C   UNL     1      13.066  21.616  41.044  1.00  0.00     0.005 C 
ENDBRANCH  45  47
ENDBRANCH  15  45
TORSDOF 9
ENDMDL
MODEL 11
REMARK VINA RESULT:    -4.455     15.130     18.996
REMARK INTER + INTRA:          -6.646
REMARK INTER:                  -7.777
REMARK INTRA:                   1.132
REMARK UNBOUND:                 0.154
REMARK  9 active torsions:
REMARK  status: ('A' for Active; 'I' for Inactive)
REMARK    1  A    between atoms: C_13  and  C_16 
REMARK    2  A    between atoms: C_14  and  C_17 
REMARK    3  A    between atoms: C_15  and  C_18 
REMARK    4  A    between atoms: C_16  and  C_22 
REMARK    5  A    between atoms: C_17  and  C_23 
REMARK    6  A    between atoms: C_18  and  C_24 
REMARK    7  A    between atoms: C_19  and  C_25 
REMARK    8  A    between atoms: C_20  and  C_26 
REMARK    9  A    between atoms: C_21  and  C_27 
ROOT
HETATM    1  O   UNL     1       7.314  25.762  42.448  1.00  0.00    -0.304 OA
HETATM    2  O   UNL     1      11.401  22.757  42.263  1.00  0.00    -0.304 OA
HETATM    3  O   UNL     1       6.829  22.084  40.811  1.00  0.00    -0.304 OA
HETATM    4  O   UNL     1       9.899  25.951  42.501  1.00  0.00    -0.270 OA
HETATM    5  O   UNL     1       3.386  22.187  40.952  1.00  0.00    -0.270 OA
HETATM    6  O   UNL     1       9.684  23.421  40.378  1.00  0.00    -0.270 OA
HETATM    7  O   UNL     1       5.162  25.535  43.247  1.00  0.00    -0.263 OA
HETATM    8  O   UNL     1       9.786  22.171  43.805  1.00  0.00    -0.263 OA
HETATM    9  O   UNL     1       5.651  21.574  38.901  1.00  0.00    -0.263 OA
HETATM   10  N   UNL     1       9.959  24.871  44.554  1.00  0.00    -0.340 N 
HETATM   11  N   UNL     1       4.465  24.238  40.885  1.00  0.00    -0.340 N 
HETATM   12  N   UNL     1       9.120  21.255  39.764  1.00  0.00    -0.340 N 
HETATM   13  C   UNL     1      11.180  24.136  44.168  1.00  0.00     0.190 C 
HETATM   14  C   UNL     1       5.700  25.050  40.913  1.00  0.00     0.190 C 
HETATM   15  C   UNL     1       8.078  21.727  38.823  1.00  0.00     0.190 C 
HETATM   16  C   UNL     1       7.869  25.991  43.761  1.00  0.00     0.227 C 
HETATM   17  C   UNL     1      10.998  21.689  41.381  1.00  0.00     0.227 C 
HETATM   18  C   UNL     1       5.683  22.165  41.664  1.00  0.00     0.227 C 
HETATM   19  C   UNL     1       9.335  25.633  43.555  1.00  0.00     0.250 C 
HETATM   20  C   UNL     1       4.413  22.854  41.120  1.00  0.00     0.250 C 
HETATM   21  C   UNL     1       9.877  22.202  40.471  1.00  0.00     0.250 C 
HETATM   22  C   UNL     1       5.984  25.475  42.345  1.00  0.00     0.283 C 
HETATM   23  C   UNL     1      10.689  22.903  43.421  1.00  0.00     0.283 C 
HETATM   24  C   UNL     1       6.707  21.738  39.499  1.00  0.00     0.283 C 
HETATM   25  C   UNL     1       9.393  24.659  45.887  1.00  0.00     0.153 C 
HETATM   26  C   UNL     1       3.208  24.928  40.594  1.00  0.00     0.153 C 
HETATM   27  C   UNL     1       9.231  19.804  39.941  1.00  0.00     0.153 C 
ENDROOT
BRANCH  16  28
HETATM   28  C   UNL     1       7.722  27.452  44.146  1.00  0.00     0.016 C 
HETATM   29  C   UNL     1       7.630  28.331  42.901  1.00  0.00     0.012 C 
HETATM   30  C   UNL     1       8.885  27.897  45.031  1.00  0.00     0.012 C 
ENDBRANCH  16  28
BRANCH  14  31
HETATM   31  C   UNL     1       5.691  26.272  39.997  1.00  0.00     0.014 C 
HETATM   32  C   UNL     1       5.097  25.895  38.637  1.00  0.00     0.012 C 
BRANCH  31  33
HETATM   33  C   UNL     1       4.907  27.450  40.600  1.00  0.00     0.002 C 
HETATM   34  C   UNL     1       5.170  28.778  39.904  1.00  0.00     0.005 C 
ENDBRANCH  31  33
ENDBRANCH  14  31
BRANCH  13  35
HETATM   35  C   UNL     1      12.108  23.718  45.301  1.00  0.00     0.014 C 
HETATM   36  C   UNL     1      12.876  22.455  44.902  1.00  0.00     0.012 C 
BRANCH  35  37
HETATM   37  C   UNL     1      13.100  24.828  45.690  1.00  0.00     0.002 C 
HETATM   38  C   UNL     1      14.557  24.450  45.462  1.00  0.00     0.005 C 
ENDBRANCH  35  37
ENDBRANCH  13  35
BRANCH  18  39
HETATM   39  C   UNL     1       5.381  20.751  42.165  1.00  0.00     0.016 C 
HETATM   40  C   UNL     1       6.675  19.973  42.389  1.00  0.00     0.012 C 
HETATM   41  C   UNL     1       4.555  20.802  43.449  1.00  0.00     0.012 C 
ENDBRANCH  18  39
BRANCH  17  42
HETATM   42  C   UNL     1      12.217  21.313  40.551  1.00  0.00     0.016 C 
HETATM   43  C   UNL     1      13.448  21.149  41.442  1.00  0.00     0.012 C 
HETATM   44  C   UNL     1      12.477  22.360  39.468  1.00  0.00     0.012 C 
ENDBRANCH  17  42
BRANCH  15  45
HETATM   45  C   UNL     1       8.048  20.947  37.510  1.00  0.00     0.014 C 
HETATM   46  C   UNL     1       7.363  21.781  36.421  1.00  0.00     0.012 C 
BRANCH  45  47
HETATM   47  C   UNL     1       9.455  20.532  37.035  1.00  0.00     0.002 C 
HETATM   48  C   UNL     1      10.064  21.496  36.028  1.00  0.00     0.005 C 
ENDBRANCH  45  47
ENDBRANCH  15  45
TORSDOF 9
ENDMDL
MODEL 12
REMARK VINA RESULT:    -4.450     20.415     24.098
REMARK INTER + INTRA:          -6.637
REMARK INTER:                  -6.526
REMARK INTRA:                  -0.112
REMARK UNBOUND:                 0.154
REMARK  9 active torsions:
REMARK  status: ('A' for Active; 'I' for Inactive)
REMARK    1  A    between atoms: C_13  and  C_16 
REMARK    2  A    between atoms: C_14  and  C_17 
REMARK    3  A    between atoms: C_15  and  C_18 
REMARK    4  A    between atoms: C_16  and  C_22 
REMARK    5  A    between atoms: C_17  and  C_23 
REMARK    6  A    between atoms: C_18  and  C_24 
REMARK    7  A    between atoms: C_19  and  C_25 
REMARK    8  A    between atoms: C_20  and  C_26 
REMARK    9  A    between atoms: C_21  and  C_27 
ROOT
HETATM    1  O   UNL     1      12.796  26.781  53.464  1.00  0.00    -0.304 OA
HETATM    2  O   UNL     1      13.579  23.246  57.022  1.00  0.00    -0.304 OA
HETATM    3  O   UNL     1      14.346  23.239  52.239  1.00  0.00    -0.304 OA
HETATM    4  O   UNL     1      13.122  26.611  56.030  1.00  0.00    -0.270 OA
HETATM    5  O   UNL     1      13.702  23.813  48.901  1.00  0.00    -0.270 OA
HETATM    6  O   UNL     1      15.191  24.179  55.159  1.00  0.00    -0.270 OA
HETATM    7  O   UNL     1      11.690  26.836  51.440  1.00  0.00    -0.263 OA
HETATM    8  O   UNL     1      11.817  22.856  55.582  1.00  0.00    -0.263 OA
HETATM    9  O   UNL     1      16.063  22.937  50.737  1.00  0.00    -0.263 OA
HETATM   10  N   UNL     1      11.101  25.491  56.236  1.00  0.00    -0.340 N 
HETATM   11  N   UNL     1      13.925  25.697  50.235  1.00  0.00    -0.340 N 
HETATM   12  N   UNL     1      15.717  22.125  54.216  1.00  0.00    -0.340 N 
HETATM   13  C   UNL     1      11.661  24.602  57.274  1.00  0.00     0.190 C 
HETATM   14  C   UNL     1      14.078  26.330  51.561  1.00  0.00     0.190 C 
HETATM   15  C   UNL     1      16.496  22.756  53.125  1.00  0.00     0.190 C 
HETATM   16  C   UNL     1      11.578  26.904  54.230  1.00  0.00     0.227 C 
HETATM   17  C   UNL     1      14.392  22.263  56.351  1.00  0.00     0.227 C 
HETATM   18  C   UNL     1      13.334  23.460  51.252  1.00  0.00     0.227 C 
HETATM   19  C   UNL     1      11.997  26.352  55.587  1.00  0.00     0.250 C 
HETATM   20  C   UNL     1      13.686  24.329  50.025  1.00  0.00     0.250 C 
HETATM   21  C   UNL     1      15.129  22.944  55.192  1.00  0.00     0.250 C 
HETATM   22  C   UNL     1      12.703  26.681  52.107  1.00  0.00     0.283 C 
HETATM   23  C   UNL     1      12.329  23.464  56.513  1.00  0.00     0.283 C 
HETATM   24  C   UNL     1      15.626  22.941  51.881  1.00  0.00     0.283 C 
HETATM   25  C   UNL     1       9.699  25.330  55.846  1.00  0.00     0.153 C 
HETATM   26  C   UNL     1      14.028  26.559  49.057  1.00  0.00     0.153 C 
HETATM   27  C   UNL     1      15.559  20.669  54.148  1.00  0.00     0.153 C 
ENDROOT
BRANCH  16  28
HETATM   28  C   UNL     1      11.175  28.363  54.345  1.00  0.00     0.016 C 
HETATM   29  C   UNL     1      11.204  28.817  55.803  1.00  0.00     0.012 C 
HETATM   30  C   UNL     1       9.789  28.588  53.742  1.00  0.00     0.012 C 
ENDBRANCH  16  28
BRANCH  14  31
HETATM   31  C   UNL     1      14.982  27.561  51.589  1.00  0.00     0.014 C 
HETATM   32  C   UNL     1      14.134  28.822  51.770  1.00  0.00     0.012 C 
BRANCH  31  33
HETATM   33  C   UNL     1      16.044  27.481  52.700  1.00  0.00     0.002 C 
HETATM   34  C   UNL     1      16.987  26.295  52.558  1.00  0.00     0.005 C 
ENDBRANCH  31  33
ENDBRANCH  14  31
BRANCH  13  35
HETATM   35  C   UNL     1      10.677  24.037  58.289  1.00  0.00     0.014 C 
HETATM   36  C   UNL     1      11.235  22.742  58.886  1.00  0.00     0.012 C 
BRANCH  35  37
HETATM   37  C   UNL     1      10.356  25.033  59.417  1.00  0.00     0.002 C 
HETATM   38  C   UNL     1      11.522  25.947  59.771  1.00  0.00     0.005 C 
ENDBRANCH  35  37
ENDBRANCH  13  35
BRANCH  18  39
HETATM   39  C   UNL     1      12.795  22.091  50.831  1.00  0.00     0.016 C 
HETATM   40  C   UNL     1      12.743  21.144  52.027  1.00  0.00     0.012 C 
HETATM   41  C   UNL     1      11.412  22.231  50.197  1.00  0.00     0.012 C 
ENDBRANCH  18  39
BRANCH  17  42
HETATM   42  C   UNL     1      15.393  21.740  57.372  1.00  0.00     0.016 C 
HETATM   43  C   UNL     1      14.981  20.355  57.872  1.00  0.00     0.012 C 
HETATM   44  C   UNL     1      15.527  22.712  58.544  1.00  0.00     0.012 C 
ENDBRANCH  17  42
BRANCH  15  45
HETATM   45  C   UNL     1      17.791  22.015  52.796  1.00  0.00     0.014 C 
HETATM   46  C   UNL     1      18.702  22.906  51.945  1.00  0.00     0.012 C 
BRANCH  45  47
HETATM   47  C   UNL     1      18.546  21.557  54.058  1.00  0.00     0.002 C 
HETATM   48  C   UNL     1      19.940  21.021  53.769  1.00  0.00     0.005 C 
ENDBRANCH  45  47
ENDBRANCH  15  45
TORSDOF 9
ENDMDL
MODEL 13
REMARK VINA RESULT:    -4.445      2.277      4.743
REMARK INTER + INTRA:          -6.630
REMARK INTER:                  -7.369
REMARK INTRA:                   0.739
REMARK UNBOUND:                 0.154
REMARK  9 active torsions:
REMARK  status: ('A' for Active; 'I' for Inactive)
REMARK    1  A    between atoms: C_13  and  C_16 
REMARK    2  A    between atoms: C_14  and  C_17 
REMARK    3  A    between atoms: C_15  and  C_18 
REMARK    4  A    between atoms: C_16  and  C_22 
REMARK    5  A    between atoms: C_17  and  C_23 
REMARK    6  A    between atoms: C_18  and  C_24 
REMARK    7  A    between atoms: C_19  and  C_25 
REMARK    8  A    between atoms: C_20  and  C_26 
REMARK    9  A    between atoms: C_21  and  C_27 
ROOT
HETATM    1  O   UNL     1      16.869   8.266  35.771  1.00  0.00    -0.304 OA
HETATM    2  O   UNL     1      15.558   4.924  39.361  1.00  0.00    -0.304 OA
HETATM    3  O   UNL     1      13.751   9.257  38.168  1.00  0.00    -0.304 OA
HETATM    4  O   UNL     1      17.118   5.738  36.292  1.00  0.00    -0.270 OA
HETATM    5  O   UNL     1      13.765  12.581  37.254  1.00  0.00    -0.270 OA
HETATM    6  O   UNL     1      14.087   6.153  37.554  1.00  0.00    -0.270 OA
HETATM    7  O   UNL     1      17.385  10.514  35.751  1.00  0.00    -0.263 OA
HETATM    8  O   UNL     1      16.606   6.843  40.103  1.00  0.00    -0.263 OA
HETATM    9  O   UNL     1      11.761  10.208  37.511  1.00  0.00    -0.263 OA
HETATM   10  N   UNL     1      18.480   6.223  38.106  1.00  0.00    -0.340 N 
HETATM   11  N   UNL     1      14.664  11.097  35.715  1.00  0.00    -0.340 N 
HETATM   12  N   UNL     1      12.552   7.059  39.040  1.00  0.00    -0.340 N 
HETATM   13  C   UNL     1      17.866   5.139  38.900  1.00  0.00     0.190 C 
HETATM   14  C   UNL     1      15.105   9.738  35.336  1.00  0.00     0.190 C 
HETATM   15  C   UNL     1      11.870   7.821  37.968  1.00  0.00     0.190 C 
HETATM   16  C   UNL     1      18.171   7.882  36.263  1.00  0.00     0.227 C 
HETATM   17  C   UNL     1      14.278   5.402  39.820  1.00  0.00     0.227 C 
HETATM   18  C   UNL     1      14.498  10.477  38.160  1.00  0.00     0.227 C 
HETATM   19  C   UNL     1      17.895   6.511  36.865  1.00  0.00     0.250 C 
HETATM   20  C   UNL     1      14.258  11.474  37.006  1.00  0.00     0.250 C 
HETATM   21  C   UNL     1      13.638   6.237  38.704  1.00  0.00     0.250 C 
HETATM   22  C   UNL     1      16.588   9.594  35.638  1.00  0.00     0.283 C 
HETATM   23  C   UNL     1      16.628   5.758  39.536  1.00  0.00     0.283 C 
HETATM   24  C   UNL     1      12.418   9.246  37.889  1.00  0.00     0.283 C 
HETATM   25  C   UNL     1      19.554   7.018  38.704  1.00  0.00     0.153 C 
HETATM   26  C   UNL     1      14.651  12.120  34.670  1.00  0.00     0.153 C 
HETATM   27  C   UNL     1      12.072   7.285  40.408  1.00  0.00     0.153 C 
ENDROOT
BRANCH  16  28
HETATM   28  C   UNL     1      19.156   7.777  35.113  1.00  0.00     0.016 C 
HETATM   29  C   UNL     1      20.085   8.989  35.087  1.00  0.00     0.012 C 
HETATM   30  C   UNL     1      18.419   7.638  33.782  1.00  0.00     0.012 C 
ENDBRANCH  16  28
BRANCH  14  31
HETATM   31  C   UNL     1      14.825   9.349  33.886  1.00  0.00     0.014 C 
HETATM   32  C   UNL     1      16.042   9.679  33.018  1.00  0.00     0.012 C 
BRANCH  31  33
HETATM   33  C   UNL     1      14.468   7.860  33.738  1.00  0.00     0.002 C 
HETATM   34  C   UNL     1      13.184   7.467  34.456  1.00  0.00     0.005 C 
ENDBRANCH  31  33
ENDBRANCH  14  31
BRANCH  13  35
HETATM   35  C   UNL     1      18.736   4.505  39.976  1.00  0.00     0.014 C 
HETATM   36  C   UNL     1      18.212   4.891  41.361  1.00  0.00     0.012 C 
BRANCH  35  37
HETATM   37  C   UNL     1      18.802   2.973  39.852  1.00  0.00     0.002 C 
HETATM   38  C   UNL     1      17.616   2.260  40.489  1.00  0.00     0.005 C 
ENDBRANCH  35  37
ENDBRANCH  13  35
BRANCH  18  39
HETATM   39  C   UNL     1      14.306  11.144  39.524  1.00  0.00     0.016 C 
HETATM   40  C   UNL     1      14.158  10.091  40.619  1.00  0.00     0.012 C 
HETATM   41  C   UNL     1      15.474  12.079  39.832  1.00  0.00     0.012 C 
ENDBRANCH  18  39
BRANCH  17  42
HETATM   42  C   UNL     1      13.424   4.177  40.113  1.00  0.00     0.016 C 
HETATM   43  C   UNL     1      13.318   3.939  41.619  1.00  0.00     0.012 C 
HETATM   44  C   UNL     1      13.993   2.942  39.416  1.00  0.00     0.012 C 
ENDBRANCH  17  42
BRANCH  15  45
HETATM   45  C   UNL     1      10.348   7.812  38.091  1.00  0.00     0.014 C 
HETATM   46  C   UNL     1       9.874   9.066  38.834  1.00  0.00     0.012 C 
BRANCH  45  47
HETATM   47  C   UNL     1       9.644   7.725  36.723  1.00  0.00     0.002 C 
HETATM   48  C   UNL     1       8.151   8.009  36.790  1.00  0.00     0.005 C 
ENDBRANCH  45  47
ENDBRANCH  15  45
TORSDOF 9
ENDMDL
MODEL 14
REMARK VINA RESULT:    -4.303      8.909     12.025
REMARK INTER + INTRA:          -6.414
REMARK INTER:                  -6.878
REMARK INTRA:                   0.465
REMARK UNBOUND:                 0.154
REMARK  9 active torsions:
REMARK  status: ('A' for Active; 'I' for Inactive)
REMARK    1  A    between atoms: C_13  and  C_16 
REMARK    2  A    between atoms: C_14  and  C_17 
REMARK    3  A    between atoms: C_15  and  C_18 
REMARK    4  A    between atoms: C_16  and  C_22 
REMARK    5  A    between atoms: C_17  and  C_23 
REMARK    6  A    between atoms: C_18  and  C_24 
REMARK    7  A    between atoms: C_19  and  C_25 
REMARK    8  A    between atoms: C_20  and  C_26 
REMARK    9  A    between atoms: C_21  and  C_27 
ROOT
HETATM    1  O   UNL     1      22.566  19.037  42.287  1.00  0.00    -0.304 OA
HETATM    2  O   UNL     1      21.428  14.189  41.303  1.00  0.00    -0.304 OA
HETATM    3  O   UNL     1      19.677  17.320  44.557  1.00  0.00    -0.304 OA
HETATM    4  O   UNL     1      22.772  17.321  40.354  1.00  0.00    -0.270 OA
HETATM    5  O   UNL     1      19.730  19.792  46.960  1.00  0.00    -0.270 OA
HETATM    6  O   UNL     1      19.862  16.293  41.551  1.00  0.00    -0.270 OA
HETATM    7  O   UNL     1      23.153  20.220  44.178  1.00  0.00    -0.263 OA
HETATM    8  O   UNL     1      22.593  14.575  43.259  1.00  0.00    -0.263 OA
HETATM    9  O   UNL     1      17.675  18.268  45.180  1.00  0.00    -0.263 OA
HETATM   10  N   UNL     1      24.286  16.073  41.593  1.00  0.00    -0.340 N 
HETATM   11  N   UNL     1      20.458  20.410  44.846  1.00  0.00    -0.340 N 
HETATM   12  N   UNL     1      18.477  15.396  43.183  1.00  0.00    -0.340 N 
HETATM   13  C   UNL     1      23.699  14.811  41.100  1.00  0.00     0.190 C 
HETATM   14  C   UNL     1      20.823  20.069  43.455  1.00  0.00     0.190 C 
HETATM   15  C   UNL     1      17.741  16.671  43.346  1.00  0.00     0.190 C 
HETATM   16  C   UNL     1      23.889  18.485  42.116  1.00  0.00     0.227 C 
HETATM   17  C   UNL     1      20.204  13.972  42.032  1.00  0.00     0.227 C 
HETATM   18  C   UNL     1      20.461  17.983  45.553  1.00  0.00     0.227 C 
HETATM   19  C   UNL     1      23.616  17.258  41.256  1.00  0.00     0.250 C 
HETATM   20  C   UNL     1      20.166  19.470  45.848  1.00  0.00     0.250 C 
HETATM   21  C   UNL     1      19.508  15.323  42.233  1.00  0.00     0.250 C 
HETATM   22  C   UNL     1      22.320  19.811  43.382  1.00  0.00     0.283 C 
HETATM   23  C   UNL     1      22.535  14.514  42.037  1.00  0.00     0.283 C 
HETATM   24  C   UNL     1      18.327  17.488  44.497  1.00  0.00     0.283 C 
HETATM   25  C   UNL     1      25.428  16.015  42.507  1.00  0.00     0.153 C 
HETATM   26  C   UNL     1      20.398  21.827  45.203  1.00  0.00     0.153 C 
HETATM   27  C   UNL     1      18.113  14.310  44.098  1.00  0.00     0.153 C 
ENDROOT
BRANCH  16  28
HETATM   28  C   UNL     1      24.779  19.470  41.380  1.00  0.00     0.016 C 
HETATM   29  C   UNL     1      25.545  20.347  42.369  1.00  0.00     0.012 C 
HETATM   30  C   UNL     1      23.954  20.334  40.427  1.00  0.00     0.012 C 
ENDBRANCH  16  28
BRANCH  14  31
HETATM   31  C   UNL     1      20.420  21.107  42.409  1.00  0.00     0.014 C 
HETATM   32  C   UNL     1      21.642  21.934  42.002  1.00  0.00     0.012 C 
BRANCH  31  33
HETATM   33  C   UNL     1      19.787  20.464  41.162  1.00  0.00     0.002 C 
HETATM   34  C   UNL     1      19.123  21.468  40.230  1.00  0.00     0.005 C 
ENDBRANCH  31  33
ENDBRANCH  14  31
BRANCH  13  35
HETATM   35  C   UNL     1      24.629  13.607  41.037  1.00  0.00     0.014 C 
HETATM   36  C   UNL     1      23.806  12.316  41.028  1.00  0.00     0.012 C 
BRANCH  35  37
HETATM   37  C   UNL     1      25.555  13.643  39.808  1.00  0.00     0.002 C 
HETATM   38  C   UNL     1      27.032  13.510  40.156  1.00  0.00     0.005 C 
ENDBRANCH  35  37
ENDBRANCH  13  35
BRANCH  18  39
HETATM   39  C   UNL     1      20.397  17.138  46.827  1.00  0.00     0.016 C 
HETATM   40  C   UNL     1      20.369  15.651  46.483  1.00  0.00     0.012 C 
HETATM   41  C   UNL     1      21.580  17.455  47.741  1.00  0.00     0.012 C 
ENDBRANCH  18  39
BRANCH  17  42
HETATM   42  C   UNL     1      19.335  13.056  41.181  1.00  0.00     0.016 C 
HETATM   43  C   UNL     1      19.198  11.682  41.835  1.00  0.00     0.012 C 
HETATM   44  C   UNL     1      19.909  12.922  39.772  1.00  0.00     0.012 C 
ENDBRANCH  17  42
BRANCH  15  45
HETATM   45  C   UNL     1      16.233  16.484  43.503  1.00  0.00     0.014 C 
HETATM   46  C   UNL     1      15.506  17.795  43.179  1.00  0.00     0.012 C 
BRANCH  45  47
HETATM   47  C   UNL     1      15.680  15.353  42.614  1.00  0.00     0.002 C 
HETATM   48  C   UNL     1      15.447  15.775  41.171  1.00  0.00     0.005 C 
ENDBRANCH  45  47
ENDBRANCH  15  45
TORSDOF 9
ENDMDL
MODEL 15
REMARK VINA RESULT:    -4.301      2.874      7.680
REMARK INTER + INTRA:          -6.410
REMARK INTER:                  -6.778
REMARK INTRA:                   0.368
REMARK UNBOUND:                 0.154
REMARK  9 active torsions:
REMARK  status: ('A' for Active; 'I' for Inactive)
REMARK    1  A    between atoms: C_13  and  C_16 
REMARK    2  A    between atoms: C_14  and  C_17 
REMARK    3  A    between atoms: C_15  and  C_18 
REMARK    4  A    between atoms: C_16  and  C_22 
REMARK    5  A    between atoms: C_17  and  C_23 
REMARK    6  A    between atoms: C_18  and  C_24 
REMARK    7  A    between atoms: C_19  and  C_25 
REMARK    8  A    between atoms: C_20  and  C_26 
REMARK    9  A    between atoms: C_21  and  C_27 
ROOT
HETATM    1  O   UNL     1      18.856   7.445  39.724  1.00  0.00    -0.304 OA
HETATM    2  O   UNL     1      20.492  11.132  36.642  1.00  0.00    -0.304 OA
HETATM    3  O   UNL     1      20.219  10.842  41.469  1.00  0.00    -0.304 OA
HETATM    4  O   UNL     1      19.728   7.742  37.300  1.00  0.00    -0.270 OA
HETATM    5  O   UNL     1      18.860  10.115  44.553  1.00  0.00    -0.270 OA
HETATM    6  O   UNL     1      21.639  10.028  38.741  1.00  0.00    -0.270 OA
HETATM    7  O   UNL     1      17.342   7.328  41.460  1.00  0.00    -0.263 OA
HETATM    8  O   UNL     1      18.476  11.521  37.698  1.00  0.00    -0.263 OA
HETATM    9  O   UNL     1      21.585  10.985  43.316  1.00  0.00    -0.263 OA
HETATM   10  N   UNL     1      17.833   8.960  36.743  1.00  0.00    -0.340 N 
HETATM   11  N   UNL     1      19.303   8.299  43.180  1.00  0.00    -0.340 N 
HETATM   12  N   UNL     1      22.016  12.002  39.901  1.00  0.00    -0.340 N 
HETATM   13  C   UNL     1      18.630   9.878  35.905  1.00  0.00     0.190 C 
HETATM   14  C   UNL     1      19.715   7.734  41.879  1.00  0.00     0.190 C 
HETATM   15  C   UNL     1      22.523  11.278  41.090  1.00  0.00     0.190 C 
HETATM   16  C   UNL     1      17.827   7.418  38.711  1.00  0.00     0.227 C 
HETATM   17  C   UNL     1      21.174  12.041  37.530  1.00  0.00     0.227 C 
HETATM   18  C   UNL     1      19.014  10.613  42.205  1.00  0.00     0.227 C 
HETATM   19  C   UNL     1      18.543   8.025  37.511  1.00  0.00     0.250 C 
HETATM   20  C   UNL     1      19.068   9.663  43.421  1.00  0.00     0.250 C 
HETATM   21  C   UNL     1      21.624  11.264  38.773  1.00  0.00     0.250 C 
HETATM   22  C   UNL     1      18.478   7.474  41.034  1.00  0.00     0.283 C 
HETATM   23  C   UNL     1      19.155  10.942  36.860  1.00  0.00     0.283 C 
HETATM   24  C   UNL     1      21.402  11.063  42.108  1.00  0.00     0.283 C 
HETATM   25  C   UNL     1      16.386   9.161  36.837  1.00  0.00     0.153 C 
HETATM   26  C   UNL     1      19.125   7.370  44.296  1.00  0.00     0.153 C 
HETATM   27  C   UNL     1      21.892  13.457  40.026  1.00  0.00     0.153 C 
ENDROOT
BRANCH  16  28
HETATM   28  C   UNL     1      17.411   5.988  38.422  1.00  0.00     0.016 C 
HETATM   29  C   UNL     1      17.735   5.614  36.977  1.00  0.00     0.012 C 
HETATM   30  C   UNL     1      15.923   5.791  38.705  1.00  0.00     0.012 C 
ENDBRANCH  16  28
BRANCH  14  31
HETATM   31  C   UNL     1      20.566   6.468  41.965  1.00  0.00     0.014 C 
HETATM   32  C   UNL     1      20.057   5.433  40.958  1.00  0.00     0.012 C 
BRANCH  31  33
HETATM   33  C   UNL     1      22.058   6.748  41.716  1.00  0.00     0.002 C 
HETATM   34  C   UNL     1      22.688   7.663  42.756  1.00  0.00     0.005 C 
ENDBRANCH  31  33
ENDBRANCH  14  31
BRANCH  13  35
HETATM   35  C   UNL     1      17.904  10.542  34.743  1.00  0.00     0.014 C 
HETATM   36  C   UNL     1      18.603  11.854  34.376  1.00  0.00     0.012 C 
BRANCH  35  37
HETATM   37  C   UNL     1      17.822   9.633  33.504  1.00  0.00     0.002 C 
HETATM   38  C   UNL     1      19.074   8.795  33.279  1.00  0.00     0.005 C 
ENDBRANCH  35  37
ENDBRANCH  13  35
BRANCH  18  39
HETATM   39  C   UNL     1      18.441  11.979  42.587  1.00  0.00     0.016 C 
HETATM   40  C   UNL     1      18.688  12.995  41.476  1.00  0.00     0.012 C 
HETATM   41  C   UNL     1      16.948  11.868  42.891  1.00  0.00     0.012 C 
ENDBRANCH  18  39
BRANCH  17  42
HETATM   42  C   UNL     1      22.385  12.574  36.778  1.00  0.00     0.016 C 
HETATM   43  C   UNL     1      21.954  13.543  35.678  1.00  0.00     0.012 C 
HETATM   44  C   UNL     1      23.204  11.426  36.189  1.00  0.00     0.012 C 
ENDBRANCH  17  42
BRANCH  15  45
HETATM   45  C   UNL     1      23.741  11.942  41.731  1.00  0.00     0.014 C 
HETATM   46  C   UNL     1      23.309  12.760  42.953  1.00  0.00     0.012 C 
BRANCH  45  47
HETATM   47  C   UNL     1      24.820  10.923  42.144  1.00  0.00     0.002 C 
HETATM   48  C   UNL     1      25.124   9.892  41.068  1.00  0.00     0.005 C 
ENDBRANCH  45  47
ENDBRANCH  15  45
TORSDOF 9
ENDMDL
MODEL 16
REMARK VINA RESULT:    -4.254      2.518      6.616
REMARK INTER + INTRA:          -6.338
REMARK INTER:                  -6.316
REMARK INTRA:                  -0.021
REMARK UNBOUND:                 0.154
REMARK  9 active torsions:
REMARK  status: ('A' for Active; 'I' for Inactive)
REMARK    1  A    between atoms: C_13  and  C_16 
REMARK    2  A    between atoms: C_14  and  C_17 
REMARK    3  A    between atoms: C_15  and  C_18 
REMARK    4  A    between atoms: C_16  and  C_22 
REMARK    5  A    between atoms: C_17  and  C_23 
REMARK    6  A    between atoms: C_18  and  C_24 
REMARK    7  A    between atoms: C_19  and  C_25 
REMARK    8  A    between atoms: C_20  and  C_26 
REMARK    9  A    between atoms: C_21  and  C_27 
ROOT
HETATM    1  O   UNL     1      14.810   9.898  36.176  1.00  0.00    -0.304 OA
HETATM    2  O   UNL     1      15.948  12.492  40.389  1.00  0.00    -0.304 OA
HETATM    3  O   UNL     1      17.443   8.188  38.743  1.00  0.00    -0.304 OA
HETATM    4  O   UNL     1      14.756  12.334  37.062  1.00  0.00    -0.270 OA
HETATM    5  O   UNL     1      17.209   5.060  37.312  1.00  0.00    -0.270 OA
HETATM    6  O   UNL     1      17.521  11.366  38.600  1.00  0.00    -0.270 OA
HETATM    7  O   UNL     1      14.070   7.759  35.732  1.00  0.00    -0.263 OA
HETATM    8  O   UNL     1      14.613  10.631  40.679  1.00  0.00    -0.263 OA
HETATM    9  O   UNL     1      19.394   7.103  38.189  1.00  0.00    -0.263 OA
HETATM   10  N   UNL     1      13.111  11.764  38.595  1.00  0.00    -0.340 N 
HETATM   11  N   UNL     1      16.694   6.853  35.934  1.00  0.00    -0.340 N 
HETATM   12  N   UNL     1      18.731  10.069  40.097  1.00  0.00    -0.340 N 
HETATM   13  C   UNL     1      13.718  12.635  39.621  1.00  0.00     0.190 C 
HETATM   14  C   UNL     1      16.454   8.297  35.728  1.00  0.00     0.190 C 
HETATM   15  C   UNL     1      19.472   9.393  39.007  1.00  0.00     0.190 C 
HETATM   16  C   UNL     1      13.499  10.365  36.560  1.00  0.00     0.227 C 
HETATM   17  C   UNL     1      17.095  11.796  40.917  1.00  0.00     0.227 C 
HETATM   18  C   UNL     1      16.581   7.085  38.449  1.00  0.00     0.227 C 
HETATM   19  C   UNL     1      13.830  11.589  37.404  1.00  0.00     0.250 C 
HETATM   20  C   UNL     1      16.874   6.244  37.187  1.00  0.00     0.250 C 
HETATM   21  C   UNL     1      17.794  11.060  39.768  1.00  0.00     0.250 C 
HETATM   22  C   UNL     1      14.966   8.579  35.866  1.00  0.00     0.283 C 
HETATM   23  C   UNL     1      14.784  11.781  40.296  1.00  0.00     0.283 C 
HETATM   24  C   UNL     1      18.796   8.073  38.634  1.00  0.00     0.283 C 
HETATM   25  C   UNL     1      11.887  11.030  38.923  1.00  0.00     0.153 C 
HETATM   26  C   UNL     1      16.746   5.999  34.747  1.00  0.00     0.153 C 
HETATM   27  C   UNL     1      18.989   9.588  41.458  1.00  0.00     0.153 C 
ENDROOT
BRANCH  16  28
HETATM   28  C   UNL     1      12.700  10.759  35.332  1.00  0.00     0.016 C 
HETATM   29  C   UNL     1      12.359  12.247  35.365  1.00  0.00     0.012 C 
HETATM   30  C   UNL     1      11.427   9.921  35.225  1.00  0.00     0.012 C 
ENDBRANCH  16  28
BRANCH  14  31
HETATM   31  C   UNL     1      16.972   8.855  34.404  1.00  0.00     0.014 C 
HETATM   32  C   UNL     1      15.793   9.254  33.513  1.00  0.00     0.012 C 
BRANCH  31  33
HETATM   33  C   UNL     1      17.907  10.061  34.603  1.00  0.00     0.002 C 
HETATM   34  C   UNL     1      19.219   9.708  35.287  1.00  0.00     0.005 C 
ENDBRANCH  31  33
ENDBRANCH  14  31
BRANCH  13  35
HETATM   35  C   UNL     1      12.777  13.209  40.671  1.00  0.00     0.014 C 
HETATM   36  C   UNL     1      13.528  13.400  41.992  1.00  0.00     0.012 C 
BRANCH  35  37
HETATM   37  C   UNL     1      12.149  14.543  40.232  1.00  0.00     0.002 C 
HETATM   38  C   UNL     1      13.085  15.413  39.402  1.00  0.00     0.005 C 
ENDBRANCH  35  37
ENDBRANCH  13  35
BRANCH  18  39
HETATM   39  C   UNL     1      16.510   6.208  39.700  1.00  0.00     0.016 C 
HETATM   40  C   UNL     1      16.503   7.071  40.960  1.00  0.00     0.012 C 
HETATM   41  C   UNL     1      15.274   5.311  39.657  1.00  0.00     0.012 C 
ENDBRANCH  18  39
BRANCH  17  42
HETATM   42  C   UNL     1      18.024  12.850  41.505  1.00  0.00     0.016 C 
HETATM   43  C   UNL     1      18.193  12.642  43.010  1.00  0.00     0.012 C 
HETATM   44  C   UNL     1      17.498  14.255  41.216  1.00  0.00     0.012 C 
ENDBRANCH  17  42
BRANCH  15  45
HETATM   45  C   UNL     1      20.955   9.194  39.314  1.00  0.00     0.014 C 
HETATM   46  C   UNL     1      21.745   9.040  38.009  1.00  0.00     0.012 C 
BRANCH  45  47
HETATM   47  C   UNL     1      21.548  10.348  40.145  1.00  0.00     0.002 C 
HETATM   48  C   UNL     1      23.069  10.366  40.158  1.00  0.00     0.005 C 
ENDBRANCH  45  47
ENDBRANCH  15  45
TORSDOF 9
ENDMDL
MODEL 17
REMARK VINA RESULT:    -4.197      2.251      4.355
REMARK INTER + INTRA:          -6.251
REMARK INTER:                  -7.030
REMARK INTRA:                   0.779
REMARK UNBOUND:                 0.154
REMARK  9 active torsions:
REMARK  status: ('A' for Active; 'I' for Inactive)
REMARK    1  A    between atoms: C_13  and  C_16 
REMARK    2  A    between atoms: C_14  and  C_17 
REMARK    3  A    between atoms: C_15  and  C_18 
REMARK    4  A    between atoms: C_16  and  C_22 
REMARK    5  A    between atoms: C_17  and  C_23 
REMARK    6  A    between atoms: C_18  and  C_24 
REMARK    7  A    between atoms: C_19  and  C_25 
REMARK    8  A    between atoms: C_20  and  C_26 
REMARK    9  A    between atoms: C_21  and  C_27 
ROOT
HETATM    1  O   UNL     1      18.094   8.220  36.222  1.00  0.00    -0.304 OA
HETATM    2  O   UNL     1      22.034  10.896  37.978  1.00  0.00    -0.304 OA
HETATM    3  O   UNL     1      18.030   9.243  40.146  1.00  0.00    -0.304 OA
HETATM    4  O   UNL     1      20.567   8.709  35.616  1.00  0.00    -0.270 OA
HETATM    5  O   UNL     1      14.683   8.522  40.548  1.00  0.00    -0.270 OA
HETATM    6  O   UNL     1      20.911   8.702  38.908  1.00  0.00    -0.270 OA
HETATM    7  O   UNL     1      15.803   8.480  36.261  1.00  0.00    -0.263 OA
HETATM    8  O   UNL     1      20.049  12.054  37.749  1.00  0.00    -0.263 OA
HETATM    9  O   UNL     1      17.417   7.895  41.907  1.00  0.00    -0.263 OA
HETATM   10  N   UNL     1      20.045  10.927  35.178  1.00  0.00    -0.340 N 
HETATM   11  N   UNL     1      15.766   7.406  38.828  1.00  0.00    -0.340 N 
HETATM   12  N   UNL     1      20.509   9.501  41.049  1.00  0.00    -0.340 N 
HETATM   13  C   UNL     1      21.316  11.379  35.780  1.00  0.00     0.190 C 
HETATM   14  C   UNL     1      16.956   7.182  37.981  1.00  0.00     0.190 C 
HETATM   15  C   UNL     1      19.773   8.275  41.436  1.00  0.00     0.190 C 
HETATM   16  C   UNL     1      18.270   9.167  35.146  1.00  0.00     0.227 C 
HETATM   17  C   UNL     1      21.875  10.835  39.410  1.00  0.00     0.227 C 
HETATM   18  C   UNL     1      16.695   9.569  39.748  1.00  0.00     0.227 C 
HETATM   19  C   UNL     1      19.731   9.566  35.307  1.00  0.00     0.250 C 
HETATM   20  C   UNL     1      15.633   8.448  39.760  1.00  0.00     0.250 C 
HETATM   21  C   UNL     1      21.055   9.588  39.759  1.00  0.00     0.250 C 
HETATM   22  C   UNL     1      16.841   8.034  36.726  1.00  0.00     0.283 C 
HETATM   23  C   UNL     1      21.033  11.503  37.271  1.00  0.00     0.283 C 
HETATM   24  C   UNL     1      18.269   8.465  41.238  1.00  0.00     0.283 C 
HETATM   25  C   UNL     1      19.132  11.923  34.616  1.00  0.00     0.153 C 
HETATM   26  C   UNL     1      14.647   6.474  38.683  1.00  0.00     0.153 C 
HETATM   27  C   UNL     1      20.547  10.580  42.042  1.00  0.00     0.153 C 
ENDROOT
BRANCH  16  28
HETATM   28  C   UNL     1      18.041   8.490  33.807  1.00  0.00     0.016 C 
HETATM   29  C   UNL     1      19.337   8.441  33.000  1.00  0.00     0.012 C 
HETATM   30  C   UNL     1      16.947   9.209  33.020  1.00  0.00     0.012 C 
ENDBRANCH  16  28
BRANCH  14  31
HETATM   31  C   UNL     1      17.216   5.725  37.603  1.00  0.00     0.014 C 
HETATM   32  C   UNL     1      17.504   5.623  36.103  1.00  0.00     0.012 C 
BRANCH  31  33
HETATM   33  C   UNL     1      18.379   5.112  38.401  1.00  0.00     0.002 C 
HETATM   34  C   UNL     1      17.956   4.518  39.736  1.00  0.00     0.005 C 
ENDBRANCH  31  33
ENDBRANCH  14  31
BRANCH  13  35
HETATM   35  C   UNL     1      21.890  12.687  35.254  1.00  0.00     0.014 C 
HETATM   36  C   UNL     1      22.047  13.685  36.404  1.00  0.00     0.012 C 
BRANCH  35  37
HETATM   37  C   UNL     1      23.243  12.493  34.546  1.00  0.00     0.002 C 
HETATM   38  C   UNL     1      23.203  11.456  33.431  1.00  0.00     0.005 C 
ENDBRANCH  35  37
ENDBRANCH  13  35
BRANCH  18  39
HETATM   39  C   UNL     1      16.247  10.772  40.581  1.00  0.00     0.016 C 
HETATM   40  C   UNL     1      17.415  11.727  40.815  1.00  0.00     0.012 C 
HETATM   41  C   UNL     1      15.089  11.496  39.897  1.00  0.00     0.012 C 
ENDBRANCH  18  39
BRANCH  17  42
HETATM   42  C   UNL     1      23.271  10.729  40.009  1.00  0.00     0.016 C 
HETATM   43  C   UNL     1      23.745  12.090  40.518  1.00  0.00     0.012 C 
HETATM   44  C   UNL     1      24.257  10.168  38.985  1.00  0.00     0.012 C 
ENDBRANCH  17  42
BRANCH  15  45
HETATM   45  C   UNL     1      20.096   7.793  42.849  1.00  0.00     0.014 C 
HETATM   46  C   UNL     1      18.924   8.102  43.788  1.00  0.00     0.012 C 
BRANCH  45  47
HETATM   47  C   UNL     1      20.419   6.288  42.902  1.00  0.00     0.002 C 
HETATM   48  C   UNL     1      21.736   5.927  42.232  1.00  0.00     0.005 C 
ENDBRANCH  45  47
ENDBRANCH  15  45
TORSDOF 9
ENDMDL
MODEL 18
REMARK VINA RESULT:    -4.143     10.726     14.915
REMARK INTER + INTRA:          -6.170
REMARK INTER:                  -6.459
REMARK INTRA:                   0.289
REMARK UNBOUND:                 0.154
REMARK  9 active torsions:
REMARK  status: ('A' for Active; 'I' for Inactive)
REMARK    1  A    between atoms: C_13  and  C_16 
REMARK    2  A    between atoms: C_14  and  C_17 
REMARK    3  A    between atoms: C_15  and  C_18 
REMARK    4  A    between atoms: C_16  and  C_22 
REMARK    5  A    between atoms: C_17  and  C_23 
REMARK    6  A    between atoms: C_18  and  C_24 
REMARK    7  A    between atoms: C_19  and  C_25 
REMARK    8  A    between atoms: C_20  and  C_26 
REMARK    9  A    between atoms: C_21  and  C_27 
ROOT
HETATM    1  O   UNL     1      19.020  20.295  46.644  1.00  0.00    -0.304 OA
HETATM    2  O   UNL     1      15.844  17.778  43.587  1.00  0.00    -0.304 OA
HETATM    3  O   UNL     1      20.560  18.811  43.198  1.00  0.00    -0.304 OA
HETATM    4  O   UNL     1      16.757  19.036  46.765  1.00  0.00    -0.270 OA
HETATM    5  O   UNL     1      23.439  20.700  43.364  1.00  0.00    -0.270 OA
HETATM    6  O   UNL     1      18.218  17.104  44.510  1.00  0.00    -0.270 OA
HETATM    7  O   UNL     1      20.484  22.057  46.375  1.00  0.00    -0.263 OA
HETATM    8  O   UNL     1      16.499  19.869  42.860  1.00  0.00    -0.263 OA
HETATM    9  O   UNL     1      22.577  17.734  42.947  1.00  0.00    -0.263 OA
HETATM   10  N   UNL     1      15.755  20.664  45.448  1.00  0.00    -0.340 N 
HETATM   11  N   UNL     1      22.380  20.277  45.384  1.00  0.00    -0.340 N 
HETATM   12  N   UNL     1      19.186  16.671  42.446  1.00  0.00    -0.340 N 
HETATM   13  C   UNL     1      14.959  19.644  44.736  1.00  0.00     0.190 C 
HETATM   14  C   UNL     1      21.239  19.743  46.157  1.00  0.00     0.190 C 
HETATM   15  C   UNL     1      20.519  16.442  43.051  1.00  0.00     0.190 C 
HETATM   16  C   UNL     1      17.861  21.154  46.703  1.00  0.00     0.227 C 
HETATM   17  C   UNL     1      16.721  17.134  42.642  1.00  0.00     0.227 C 
HETATM   18  C   UNL     1      21.107  20.133  43.204  1.00  0.00     0.227 C 
HETATM   19  C   UNL     1      16.734  20.197  46.338  1.00  0.00     0.250 C 
HETATM   20  C   UNL     1      22.418  20.379  43.984  1.00  0.00     0.250 C 
HETATM   21  C   UNL     1      18.103  16.974  43.285  1.00  0.00     0.250 C 
HETATM   22  C   UNL     1      20.237  20.860  46.402  1.00  0.00     0.283 C 
HETATM   23  C   UNL     1      15.858  19.145  43.611  1.00  0.00     0.283 C 
HETATM   24  C   UNL     1      21.355  17.721  43.014  1.00  0.00     0.283 C 
HETATM   25  C   UNL     1      15.585  22.073  45.092  1.00  0.00     0.153 C 
HETATM   26  C   UNL     1      23.552  20.732  46.132  1.00  0.00     0.153 C 
HETATM   27  C   UNL     1      19.119  16.636  40.982  1.00  0.00     0.153 C 
ENDROOT
BRANCH  16  28
HETATM   28  C   UNL     1      17.676  21.691  48.111  1.00  0.00     0.016 C 
HETATM   29  C   UNL     1      17.781  20.563  49.136  1.00  0.00     0.012 C 
HETATM   30  C   UNL     1      16.334  22.410  48.241  1.00  0.00     0.012 C 
ENDBRANCH  16  28
BRANCH  14  31
HETATM   31  C   UNL     1      21.611  19.075  47.479  1.00  0.00     0.014 C 
HETATM   32  C   UNL     1      21.297  20.018  48.643  1.00  0.00     0.012 C 
BRANCH  31  33
HETATM   33  C   UNL     1      20.884  17.734  47.682  1.00  0.00     0.002 C 
HETATM   34  C   UNL     1      20.023  17.692  48.936  1.00  0.00     0.005 C 
ENDBRANCH  31  33
ENDBRANCH  14  31
BRANCH  13  35
HETATM   35  C   UNL     1      13.624  20.100  44.164  1.00  0.00     0.014 C 
HETATM   36  C   UNL     1      13.158  19.118  43.086  1.00  0.00     0.012 C 
BRANCH  35  37
HETATM   37  C   UNL     1      12.538  20.239  45.245  1.00  0.00     0.002 C 
HETATM   38  C   UNL     1      11.483  21.287  44.917  1.00  0.00     0.005 C 
ENDBRANCH  35  37
ENDBRANCH  13  35
BRANCH  18  39
HETATM   39  C   UNL     1      21.228  20.589  41.749  1.00  0.00     0.016 C 
HETATM   40  C   UNL     1      19.957  20.251  40.973  1.00  0.00     0.012 C 
HETATM   41  C   UNL     1      21.518  22.087  41.678  1.00  0.00     0.012 C 
ENDBRANCH  18  39
BRANCH  17  42
HETATM   42  C   UNL     1      16.123  15.767  42.338  1.00  0.00     0.016 C 
HETATM   43  C   UNL     1      15.298  15.811  41.053  1.00  0.00     0.012 C 
HETATM   44  C   UNL     1      15.266  15.281  43.507  1.00  0.00     0.012 C 
ENDBRANCH  17  42
BRANCH  15  45
HETATM   45  C   UNL     1      21.271  15.264  42.434  1.00  0.00     0.014 C 
HETATM   46  C   UNL     1      22.392  14.807  43.373  1.00  0.00     0.012 C 
BRANCH  45  47
HETATM   47  C   UNL     1      20.346  14.073  42.115  1.00  0.00     0.002 C 
HETATM   48  C   UNL     1      20.772  13.288  40.883  1.00  0.00     0.005 C 
ENDBRANCH  45  47
ENDBRANCH  15  45
TORSDOF 9
ENDMDL
MODEL 19
REMARK VINA RESULT:    -4.143     17.541     22.256
REMARK INTER + INTRA:          -6.168
REMARK INTER:                  -6.653
REMARK INTRA:                   0.485
REMARK UNBOUND:                 0.154
REMARK  9 active torsions:
REMARK  status: ('A' for Active; 'I' for Inactive)
REMARK    1  A    between atoms: C_13  and  C_16 
REMARK    2  A    between atoms: C_14  and  C_17 
REMARK    3  A    between atoms: C_15  and  C_18 
REMARK    4  A    between atoms: C_16  and  C_22 
REMARK    5  A    between atoms: C_17  and  C_23 
REMARK    6  A    between atoms: C_18  and  C_24 
REMARK    7  A    between atoms: C_19  and  C_25 
REMARK    8  A    between atoms: C_20  and  C_26 
REMARK    9  A    between atoms: C_21  and  C_27 
ROOT
HETATM    1  O   UNL     1       6.269  25.890  41.878  1.00  0.00    -0.304 OA
HETATM    2  O   UNL     1       4.859  23.053  37.912  1.00  0.00    -0.304 OA
HETATM    3  O   UNL     1       2.341  24.921  41.604  1.00  0.00    -0.304 OA
HETATM    4  O   UNL     1       7.104  25.277  39.501  1.00  0.00    -0.270 OA
HETATM    5  O   UNL     1       1.626  25.805  44.859  1.00  0.00    -0.270 OA
HETATM    6  O   UNL     1       3.863  25.309  38.836  1.00  0.00    -0.270 OA
HETATM    7  O   UNL     1       6.003  25.739  44.164  1.00  0.00    -0.263 OA
HETATM    8  O   UNL     1       4.874  21.988  39.961  1.00  0.00    -0.263 OA
HETATM    9  O   UNL     1       0.552  26.319  41.978  1.00  0.00    -0.263 OA
HETATM   10  N   UNL     1       7.452  23.081  40.165  1.00  0.00    -0.340 N 
HETATM   11  N   UNL     1       3.463  26.847  43.899  1.00  0.00    -0.340 N 
HETATM   12  N   UNL     1       1.679  24.557  39.062  1.00  0.00    -0.340 N 
HETATM   13  C   UNL     1       6.969  22.577  38.864  1.00  0.00     0.190 C 
HETATM   14  C   UNL     1       4.426  27.003  42.789  1.00  0.00     0.190 C 
HETATM   15  C   UNL     1       1.244  25.821  39.700  1.00  0.00     0.190 C 
HETATM   16  C   UNL     1       7.340  24.923  41.852  1.00  0.00     0.227 C 
HETATM   17  C   UNL     1       3.420  23.139  37.926  1.00  0.00     0.227 C 
HETATM   18  C   UNL     1       2.601  24.653  42.985  1.00  0.00     0.227 C 
HETATM   19  C   UNL     1       7.316  24.457  40.403  1.00  0.00     0.250 C 
HETATM   20  C   UNL     1       2.504  25.824  43.988  1.00  0.00     0.250 C 
HETATM   21  C   UNL     1       3.014  24.428  38.650  1.00  0.00     0.250 C 
HETATM   22  C   UNL     1       5.648  26.142  43.066  1.00  0.00     0.283 C 
HETATM   23  C   UNL     1       5.455  22.485  39.004  1.00  0.00     0.283 C 
HETATM   24  C   UNL     1       1.290  25.700  41.223  1.00  0.00     0.283 C 
HETATM   25  C   UNL     1       7.905  22.122  41.174  1.00  0.00     0.153 C 
HETATM   26  C   UNL     1       3.514  27.828  44.983  1.00  0.00     0.153 C 
HETATM   27  C   UNL     1       0.677  23.490  38.976  1.00  0.00     0.153 C 
ENDROOT
BRANCH  16  28
HETATM   28  C   UNL     1       8.662  25.592  42.180  1.00  0.00     0.016 C 
HETATM   29  C   UNL     1       9.628  25.483  41.002  1.00  0.00     0.012 C 
HETATM   30  C   UNL     1       9.280  24.981  43.437  1.00  0.00     0.012 C 
ENDBRANCH  16  28
BRANCH  14  31
HETATM   31  C   UNL     1       4.852  28.441  42.501  1.00  0.00     0.014 C 
HETATM   32  C   UNL     1       6.335  28.618  42.837  1.00  0.00     0.012 C 
BRANCH  31  33
HETATM   33  C   UNL     1       4.596  28.846  41.039  1.00  0.00     0.002 C 
HETATM   34  C   UNL     1       5.855  28.866  40.183  1.00  0.00     0.005 C 
ENDBRANCH  31  33
ENDBRANCH  14  31
BRANCH  13  35
HETATM   35  C   UNL     1       7.526  21.236  38.405  1.00  0.00     0.014 C 
HETATM   36  C   UNL     1       6.584  20.609  37.373  1.00  0.00     0.012 C 
BRANCH  35  37
HETATM   37  C   UNL     1       8.940  21.360  37.811  1.00  0.00     0.002 C 
HETATM   38  C   UNL     1       8.966  21.325  36.288  1.00  0.00     0.005 C 
ENDBRANCH  35  37
ENDBRANCH  13  35
BRANCH  18  39
HETATM   39  C   UNL     1       1.708  23.484  43.404  1.00  0.00     0.016 C 
HETATM   40  C   UNL     1       1.541  22.497  42.251  1.00  0.00     0.012 C 
HETATM   41  C   UNL     1       2.284  22.783  44.632  1.00  0.00     0.012 C 
ENDBRANCH  18  39
BRANCH  17  42
HETATM   42  C   UNL     1       2.962  23.186  36.475  1.00  0.00     0.016 C 
HETATM   43  C   UNL     1       2.799  21.774  35.914  1.00  0.00     0.012 C 
HETATM   44  C   UNL     1       3.945  23.989  35.624  1.00  0.00     0.012 C 
ENDBRANCH  17  42
BRANCH  15  45
HETATM   45  C   UNL     1      -0.123  26.305  39.218  1.00  0.00     0.014 C 
HETATM   46  C   UNL     1      -1.205  25.908  40.229  1.00  0.00     0.012 C 
BRANCH  45  47
HETATM   47  C   UNL     1      -0.164  27.827  38.986  1.00  0.00     0.002 C 
HETATM   48  C   UNL     1      -1.524  28.447  39.271  1.00  0.00     0.005 C 
ENDBRANCH  45  47
ENDBRANCH  15  45
TORSDOF 9
ENDMDL
MODEL 20
REMARK VINA RESULT:    -4.087     13.742     18.749
REMARK INTER + INTRA:          -6.083
REMARK INTER:                  -6.131
REMARK INTRA:                   0.048
REMARK UNBOUND:                 0.154
REMARK  9 active torsions:
REMARK  status: ('A' for Active; 'I' for Inactive)
REMARK    1  A    between atoms: C_13  and  C_16 
REMARK    2  A    between atoms: C_14  and  C_17 
REMARK    3  A    between atoms: C_15  and  C_18 
REMARK    4  A    between atoms: C_16  and  C_22 
REMARK    5  A    between atoms: C_17  and  C_23 
REMARK    6  A    between atoms: C_18  and  C_24 
REMARK    7  A    between atoms: C_19  and  C_25 
REMARK    8  A    between atoms: C_20  and  C_26 
REMARK    9  A    between atoms: C_21  and  C_27 
ROOT
HETATM    1  O   UNL     1       8.647  23.927  43.273  1.00  0.00    -0.304 OA
HETATM    2  O   UNL     1       5.353  22.331  39.755  1.00  0.00    -0.304 OA
HETATM    3  O   UNL     1       9.912  21.023  40.740  1.00  0.00    -0.304 OA
HETATM    4  O   UNL     1       6.090  23.885  42.846  1.00  0.00    -0.270 OA
HETATM    5  O   UNL     1      13.243  21.411  41.541  1.00  0.00    -0.270 OA
HETATM    6  O   UNL     1       6.816  20.965  41.469  1.00  0.00    -0.270 OA
HETATM    7  O   UNL     1      10.816  24.710  43.234  1.00  0.00    -0.263 OA
HETATM    8  O   UNL     1       7.104  23.623  38.985  1.00  0.00    -0.263 OA
HETATM    9  O   UNL     1      11.118  19.144  41.296  1.00  0.00    -0.263 OA
HETATM   10  N   UNL     1       6.340  25.349  41.064  1.00  0.00    -0.340 N 
HETATM   11  N   UNL     1      11.721  22.079  43.158  1.00  0.00    -0.340 N 
HETATM   12  N   UNL     1       7.842  19.594  39.902  1.00  0.00    -0.340 N 
HETATM   13  C   UNL     1       5.309  24.632  40.287  1.00  0.00     0.190 C 
HETATM   14  C   UNL     1      10.335  22.341  43.598  1.00  0.00     0.190 C 
HETATM   15  C   UNL     1       8.719  18.978  40.924  1.00  0.00     0.190 C 
HETATM   16  C   UNL     1       8.093  25.188  42.839  1.00  0.00     0.227 C 
HETATM   17  C   UNL     1       5.963  21.131  39.238  1.00  0.00     0.227 C 
HETATM   18  C   UNL     1      11.034  21.912  40.732  1.00  0.00     0.227 C 
HETATM   19  C   UNL     1       6.743  24.767  42.274  1.00  0.00     0.250 C 
HETATM   20  C   UNL     1      12.095  21.760  41.843  1.00  0.00     0.250 C 
HETATM   21  C   UNL     1       6.909  20.564  40.302  1.00  0.00     0.250 C 
HETATM   22  C   UNL     1      10.003  23.805  43.352  1.00  0.00     0.283 C 
HETATM   23  C   UNL     1       6.046  23.497  39.589  1.00  0.00     0.283 C 
HETATM   24  C   UNL     1      10.071  19.691  40.973  1.00  0.00     0.283 C 
HETATM   25  C   UNL     1       6.979  26.528  40.476  1.00  0.00     0.153 C 
HETATM   26  C   UNL     1      12.777  22.158  44.167  1.00  0.00     0.153 C 
HETATM   27  C   UNL     1       8.072  19.186  38.513  1.00  0.00     0.153 C 
ENDROOT
BRANCH  16  28
HETATM   28  C   UNL     1       7.914  26.119  44.024  1.00  0.00     0.016 C 
HETATM   29  C   UNL     1       6.447  26.514  44.182  1.00  0.00     0.012 C 
HETATM   30  C   UNL     1       8.789  27.361  43.870  1.00  0.00     0.012 C 
ENDBRANCH  16  28
BRANCH  14  31
HETATM   31  C   UNL     1      10.036  21.974  45.050  1.00  0.00     0.014 C 
HETATM   32  C   UNL     1       9.834  23.248  45.875  1.00  0.00     0.012 C 
BRANCH  31  33
HETATM   33  C   UNL     1       8.802  21.065  45.182  1.00  0.00     0.002 C 
HETATM   34  C   UNL     1       7.599  21.758  45.807  1.00  0.00     0.005 C 
ENDBRANCH  31  33
ENDBRANCH  14  31
BRANCH  13  35
HETATM   35  C   UNL     1       4.536  25.452  39.264  1.00  0.00     0.014 C 
HETATM   36  C   UNL     1       4.026  24.538  38.146  1.00  0.00     0.012 C 
BRANCH  35  37
HETATM   37  C   UNL     1       3.355  26.215  39.890  1.00  0.00     0.002 C 
HETATM   38  C   UNL     1       3.512  27.729  39.837  1.00  0.00     0.005 C 
ENDBRANCH  35  37
ENDBRANCH  13  35
BRANCH  18  39
HETATM   39  C   UNL     1      11.667  21.842  39.341  1.00  0.00     0.016 C 
HETATM   40  C   UNL     1      10.605  21.558  38.281  1.00  0.00     0.012 C 
HETATM   41  C   UNL     1      12.408  23.139  39.023  1.00  0.00     0.012 C 
ENDBRANCH  18  39
BRANCH  17  42
HETATM   42  C   UNL     1       4.838  20.144  38.957  1.00  0.00     0.016 C 
HETATM   43  C   UNL     1       4.553  20.062  37.458  1.00  0.00     0.012 C 
HETATM   44  C   UNL     1       3.573  20.536  39.720  1.00  0.00     0.012 C 
ENDBRANCH  17  42
BRANCH  15  45
HETATM   45  C   UNL     1       8.888  17.470  40.750  1.00  0.00     0.014 C 
HETATM   46  C   UNL     1       9.424  16.850  42.045  1.00  0.00     0.012 C 
BRANCH  45  47
HETATM   47  C   UNL     1       7.575  16.771  40.347  1.00  0.00     0.002 C 
HETATM   48  C   UNL     1       7.788  15.413  39.695  1.00  0.00     0.005 C 
ENDBRANCH  45  47
ENDBRANCH  15  45
TORSDOF 9
ENDMDL
