MODEL 1
REMARK VINA RESULT:    -6.123      0.000      0.000
REMARK INTER + INTRA:          -8.836
REMARK INTER:                  -9.344
REMARK INTRA:                   0.508
REMARK UNBOUND:                 0.508
REMARK  9 active torsions:
REMARK  status: ('A' for Active; 'I' for Inactive)
REMARK    1  A    between atoms: C_13  and  C_16 
REMARK    2  A    between atoms: C_14  and  C_17 
REMARK    3  A    between atoms: C_15  and  C_18 
REMARK    4  A    between atoms: C_16  and  C_22 
REMARK    5  A    between atoms: C_17  and  C_23 
REMARK    6  A    between atoms: C_18  and  C_24 
REMARK    7  A    between atoms: C_19  and  C_25 
REMARK    8  A    between atoms: C_20  and  C_26 
REMARK    9  A    between atoms: C_21  and  C_27 
ROOT
HETATM    1  O   UNL     1      16.550  36.657   0.694  1.00  0.00    -0.304 OA
HETATM    2  O   UNL     1      21.107  37.217   2.857  1.00  0.00    -0.304 OA
HETATM    3  O   UNL     1      18.254  40.331   0.485  1.00  0.00    -0.304 OA
HETATM    4  O   UNL     1      18.023  35.522   2.500  1.00  0.00    -0.270 OA
HETATM    5  O   UNL     1      16.117  41.471  -1.969  1.00  0.00    -0.270 OA
HETATM    6  O   UNL     1      18.912  38.652   3.107  1.00  0.00    -0.270 OA
HETATM    7  O   UNL     1      15.673  37.099  -1.393  1.00  0.00    -0.263 OA
HETATM    8  O   UNL     1      21.080  37.211   0.549  1.00  0.00    -0.263 OA
HETATM    9  O   UNL     1      17.206  42.352   0.816  1.00  0.00    -0.263 OA
HETATM   10  N   UNL     1      19.554  34.878   0.879  1.00  0.00    -0.340 N 
HETATM   11  N   UNL     1      15.313  39.753  -0.634  1.00  0.00    -0.340 N 
HETATM   12  N   UNL     1      19.870  40.692   2.556  1.00  0.00    -0.340 N 
HETATM   13  C   UNL     1      20.683  35.152   1.790  1.00  0.00     0.190 C 
HETATM   14  C   UNL     1      15.511  38.733   0.417  1.00  0.00     0.190 C 
HETATM   15  C   UNL     1      18.561  41.386   2.590  1.00  0.00     0.190 C 
HETATM   16  C   UNL     1      17.199  35.443   0.259  1.00  0.00     0.227 C 
HETATM   17  C   UNL     1      21.296  38.646   2.888  1.00  0.00     0.227 C 
HETATM   18  C   UNL     1      17.799  40.155  -0.860  1.00  0.00     0.227 C 
HETATM   19  C   UNL     1      18.278  35.259   1.318  1.00  0.00     0.250 C 
HETATM   20  C   UNL     1      16.339  40.533  -1.193  1.00  0.00     0.250 C 
HETATM   21  C   UNL     1      19.921  39.323   2.857  1.00  0.00     0.250 C 
HETATM   22  C   UNL     1      15.899  37.415  -0.234  1.00  0.00     0.283 C 
HETATM   23  C   UNL     1      20.982  36.637   1.626  1.00  0.00     0.283 C 
HETATM   24  C   UNL     1      17.953  41.457   1.189  1.00  0.00     0.283 C 
HETATM   25  C   UNL     1      19.833  34.366  -0.463  1.00  0.00     0.153 C 
HETATM   26  C   UNL     1      13.952  39.962  -1.128  1.00  0.00     0.153 C 
HETATM   27  C   UNL     1      21.022  41.493   2.131  1.00  0.00     0.153 C 
ENDROOT
BRANCH  16  28
HETATM   28  C   UNL     1      16.219  34.284   0.283  1.00  0.00     0.016 C 
HETATM   29  C   UNL     1      15.539  34.182   1.647  1.00  0.00     0.012 C 
HETATM   30  C   UNL     1      16.923  32.974  -0.063  1.00  0.00     0.012 C 
ENDBRANCH  16  28
BRANCH  14  31
HETATM   31  C   UNL     1      14.317  38.526   1.348  1.00  0.00     0.014 C 
HETATM   32  C   UNL     1      13.641  37.189   1.032  1.00  0.00     0.012 C 
BRANCH  31  33
HETATM   33  C   UNL     1      14.719  38.570   2.833  1.00  0.00     0.002 C 
HETATM   34  C   UNL     1      15.266  39.919   3.276  1.00  0.00     0.005 C 
ENDBRANCH  31  33
ENDBRANCH  14  31
BRANCH  13  35
HETATM   35  C   UNL     1      21.953  34.343   1.563  1.00  0.00     0.014 C 
HETATM   36  C   UNL     1      23.168  35.134   2.055  1.00  0.00     0.012 C 
BRANCH  35  37
HETATM   37  C   UNL     1      21.908  32.971   2.259  1.00  0.00     0.002 C 
HETATM   38  C   UNL     1      22.097  31.799   1.306  1.00  0.00     0.005 C 
ENDBRANCH  35  37
ENDBRANCH  13  35
BRANCH  18  39
HETATM   39  C   UNL     1      18.786  40.877  -1.779  1.00  0.00     0.016 C 
HETATM   40  C   UNL     1      20.207  40.765  -1.232  1.00  0.00     0.012 C 
HETATM   41  C   UNL     1      18.710  40.314  -3.196  1.00  0.00     0.012 C 
ENDBRANCH  18  39
BRANCH  17  42
HETATM   42  C   UNL     1      22.013  38.974   4.190  1.00  0.00     0.016 C 
HETATM   43  C   UNL     1      23.513  39.145   3.954  1.00  0.00     0.012 C 
HETATM   44  C   UNL     1      21.757  37.888   5.235  1.00  0.00     0.012 C 
ENDBRANCH  17  42
BRANCH  15  45
HETATM   45  C   UNL     1      18.622  42.765   3.245  1.00  0.00     0.014 C 
HETATM   46  C   UNL     1      18.878  43.839   2.182  1.00  0.00     0.012 C 
BRANCH  45  47
HETATM   47  C   UNL     1      17.338  43.106   4.026  1.00  0.00     0.002 C 
HETATM   48  C   UNL     1      17.523  44.231   5.033  1.00  0.00     0.005 C 
ENDBRANCH  45  47
ENDBRANCH  15  45
TORSDOF 9
ENDMDL
MODEL 2
REMARK VINA RESULT:    -5.453      2.117      4.349
REMARK INTER + INTRA:          -7.814
REMARK INTER:                  -7.964
REMARK INTRA:                   0.151
REMARK UNBOUND:                 0.508
REMARK  9 active torsions:
REMARK  status: ('A' for Active; 'I' for Inactive)
REMARK    1  A    between atoms: C_13  and  C_16 
REMARK    2  A    between atoms: C_14  and  C_17 
REMARK    3  A    between atoms: C_15  and  C_18 
REMARK    4  A    between atoms: C_16  and  C_22 
REMARK    5  A    between atoms: C_17  and  C_23 
REMARK    6  A    between atoms: C_18  and  C_24 
REMARK    7  A    between atoms: C_19  and  C_25 
REMARK    8  A    between atoms: C_20  and  C_26 
REMARK    9  A    between atoms: C_21  and  C_27 
ROOT
HETATM    1  O   UNL     1      17.481  37.076   1.266  1.00  0.00    -0.304 OA
HETATM    2  O   UNL     1      19.259  41.613   2.690  1.00  0.00    -0.304 OA
HETATM    3  O   UNL     1      15.546  40.346  -0.150  1.00  0.00    -0.304 OA
HETATM    4  O   UNL     1      18.919  38.122   3.154  1.00  0.00    -0.270 OA
HETATM    5  O   UNL     1      13.838  38.604  -2.586  1.00  0.00    -0.270 OA
HETATM    6  O   UNL     1      16.811  40.642   2.754  1.00  0.00    -0.270 OA
HETATM    7  O   UNL     1      16.990  36.083  -0.756  1.00  0.00    -0.263 OA
HETATM    8  O   UNL     1      19.651  41.020   0.494  1.00  0.00    -0.263 OA
HETATM    9  O   UNL     1      13.268  40.639  -0.295  1.00  0.00    -0.263 OA
HETATM   10  N   UNL     1      20.592  38.630   1.629  1.00  0.00    -0.340 N 
HETATM   11  N   UNL     1      14.524  37.373  -0.744  1.00  0.00    -0.340 N 
HETATM   12  N   UNL     1      15.818  42.361   1.552  1.00  0.00    -0.340 N 
HETATM   13  C   UNL     1      20.859  39.918   2.301  1.00  0.00     0.190 C 
HETATM   14  C   UNL     1      15.271  37.256   0.526  1.00  0.00     0.190 C 
HETATM   15  C   UNL     1      14.508  41.669   1.527  1.00  0.00     0.190 C 
HETATM   16  C   UNL     1      18.902  36.859   1.126  1.00  0.00     0.227 C 
HETATM   17  C   UNL     1      18.216  42.526   2.296  1.00  0.00     0.227 C 
HETATM   18  C   UNL     1      15.661  39.552  -1.335  1.00  0.00     0.227 C 
HETATM   19  C   UNL     1      19.481  37.900   2.074  1.00  0.00     0.250 C 
HETATM   20  C   UNL     1      14.581  38.481  -1.605  1.00  0.00     0.250 C 
HETATM   21  C   UNL     1      16.893  41.755   2.221  1.00  0.00     0.250 C 
HETATM   22  C   UNL     1      16.663  36.717   0.236  1.00  0.00     0.283 C 
HETATM   23  C   UNL     1      19.868  40.902   1.693  1.00  0.00     0.283 C 
HETATM   24  C   UNL     1      14.348  40.867   0.235  1.00  0.00     0.283 C 
HETATM   25  C   UNL     1      21.397  38.258   0.464  1.00  0.00     0.153 C 
HETATM   26  C   UNL     1      13.665  36.254  -1.130  1.00  0.00     0.153 C 
HETATM   27  C   UNL     1      15.908  43.616   0.799  1.00  0.00     0.153 C 
ENDROOT
BRANCH  16  28
HETATM   28  C   UNL     1      19.266  35.457   1.580  1.00  0.00     0.016 C 
HETATM   29  C   UNL     1      20.122  35.505   2.845  1.00  0.00     0.012 C 
HETATM   30  C   UNL     1      19.995  34.703   0.469  1.00  0.00     0.012 C 
ENDBRANCH  16  28
BRANCH  14  31
HETATM   31  C   UNL     1      14.593  36.404   1.598  1.00  0.00     0.014 C 
HETATM   32  C   UNL     1      15.437  35.158   1.879  1.00  0.00     0.012 C 
BRANCH  31  33
HETATM   33  C   UNL     1      14.362  37.184   2.904  1.00  0.00     0.002 C 
HETATM   34  C   UNL     1      13.420  38.368   2.748  1.00  0.00     0.005 C 
ENDBRANCH  31  33
ENDBRANCH  14  31
BRANCH  13  35
HETATM   35  C   UNL     1      22.273  40.469   2.179  1.00  0.00     0.014 C 
HETATM   36  C   UNL     1      22.260  41.984   2.397  1.00  0.00     0.012 C 
BRANCH  35  37
HETATM   37  C   UNL     1      23.249  39.809   3.170  1.00  0.00     0.002 C 
HETATM   38  C   UNL     1      22.592  39.380   4.476  1.00  0.00     0.005 C 
ENDBRANCH  35  37
ENDBRANCH  13  35
BRANCH  18  39
HETATM   39  C   UNL     1      15.806  40.510  -2.519  1.00  0.00     0.016 C 
HETATM   40  C   UNL     1      16.580  41.760  -2.106  1.00  0.00     0.012 C 
HETATM   41  C   UNL     1      16.497  39.814  -3.690  1.00  0.00     0.012 C 
ENDBRANCH  18  39
BRANCH  17  42
HETATM   42  C   UNL     1      18.136  43.602   3.370  1.00  0.00     0.016 C 
HETATM   43  C   UNL     1      19.486  43.775   4.063  1.00  0.00     0.012 C 
HETATM   44  C   UNL     1      17.050  43.265   4.391  1.00  0.00     0.012 C 
ENDBRANCH  17  42
BRANCH  15  45
HETATM   45  C   UNL     1      13.323  42.606   1.755  1.00  0.00     0.014 C 
HETATM   46  C   UNL     1      12.076  41.793   2.122  1.00  0.00     0.012 C 
BRANCH  45  47
HETATM   47  C   UNL     1      13.598  43.654   2.850  1.00  0.00     0.002 C 
HETATM   48  C   UNL     1      12.886  44.977   2.616  1.00  0.00     0.005 C 
ENDBRANCH  45  47
ENDBRANCH  15  45
TORSDOF 9
ENDMDL
MODEL 3
REMARK VINA RESULT:    -5.390      2.016      7.957
REMARK INTER + INTRA:          -7.718
REMARK INTER:                  -8.220
REMARK INTRA:                   0.502
REMARK UNBOUND:                 0.508
REMARK  9 active torsions:
REMARK  status: ('A' for Active; 'I' for Inactive)
REMARK    1  A    between atoms: C_13  and  C_16 
REMARK    2  A    between atoms: C_14  and  C_17 
REMARK    3  A    between atoms: C_15  and  C_18 
REMARK    4  A    between atoms: C_16  and  C_22 
REMARK    5  A    between atoms: C_17  and  C_23 
REMARK    6  A    between atoms: C_18  and  C_24 
REMARK    7  A    between atoms: C_19  and  C_25 
REMARK    8  A    between atoms: C_20  and  C_26 
REMARK    9  A    between atoms: C_21  and  C_27 
ROOT
HETATM    1  O   UNL     1      20.055  39.282   1.758  1.00  0.00    -0.304 OA
HETATM    2  O   UNL     1      16.226  36.124   0.693  1.00  0.00    -0.304 OA
HETATM    3  O   UNL     1      20.907  36.060  -0.552  1.00  0.00    -0.304 OA
HETATM    4  O   UNL     1      17.726  38.630   2.690  1.00  0.00    -0.270 OA
HETATM    5  O   UNL     1      23.946  37.294  -1.612  1.00  0.00    -0.270 OA
HETATM    6  O   UNL     1      18.636  35.628   1.635  1.00  0.00    -0.270 OA
HETATM    7  O   UNL     1      21.624  40.418   0.506  1.00  0.00    -0.263 OA
HETATM    8  O   UNL     1      16.962  37.442  -1.054  1.00  0.00    -0.263 OA
HETATM    9  O   UNL     1      22.750  34.694  -0.379  1.00  0.00    -0.263 OA
HETATM   10  N   UNL     1      16.698  39.524   0.812  1.00  0.00    -0.340 N 
HETATM   11  N   UNL     1      23.168  38.104   0.417  1.00  0.00    -0.340 N 
HETATM   12  N   UNL     1      19.236  34.080   0.013  1.00  0.00    -0.340 N 
HETATM   13  C   UNL     1      15.709  38.428   0.790  1.00  0.00     0.190 C 
HETATM   14  C   UNL     1      22.112  38.215   1.444  1.00  0.00     0.190 C 
HETATM   15  C   UNL     1      20.616  33.971   0.540  1.00  0.00     0.190 C 
HETATM   16  C   UNL     1      19.007  40.230   1.462  1.00  0.00     0.227 C 
HETATM   17  C   UNL     1      16.884  34.965   0.143  1.00  0.00     0.227 C 
HETATM   18  C   UNL     1      21.573  37.103  -1.269  1.00  0.00     0.227 C 
HETATM   19  C   UNL     1      17.751  39.412   1.732  1.00  0.00     0.250 C 
HETATM   20  C   UNL     1      23.004  37.490  -0.835  1.00  0.00     0.250 C 
HETATM   21  C   UNL     1      18.326  34.928   0.663  1.00  0.00     0.250 C 
HETATM   22  C   UNL     1      21.271  39.450   1.162  1.00  0.00     0.283 C 
HETATM   23  C   UNL     1      16.376  37.300   0.012  1.00  0.00     0.283 C 
HETATM   24  C   UNL     1      21.556  34.911  -0.216  1.00  0.00     0.283 C 
HETATM   25  C   UNL     1      16.613  40.578  -0.202  1.00  0.00     0.153 C 
HETATM   26  C   UNL     1      24.478  38.677   0.728  1.00  0.00     0.153 C 
HETATM   27  C   UNL     1      18.945  33.333  -1.215  1.00  0.00     0.153 C 
ENDROOT
BRANCH  16  28
HETATM   28  C   UNL     1      19.089  41.416   2.405  1.00  0.00     0.016 C 
HETATM   29  C   UNL     1      17.723  41.707   3.025  1.00  0.00     0.012 C 
HETATM   30  C   UNL     1      19.619  42.649   1.676  1.00  0.00     0.012 C 
ENDBRANCH  16  28
BRANCH  14  31
HETATM   31  C   UNL     1      22.614  38.241   2.887  1.00  0.00     0.014 C 
HETATM   32  C   UNL     1      22.407  39.637   3.481  1.00  0.00     0.012 C 
BRANCH  31  33
HETATM   33  C   UNL     1      21.917  37.190   3.768  1.00  0.00     0.002 C 
HETATM   34  C   UNL     1      20.958  37.788   4.787  1.00  0.00     0.005 C 
ENDBRANCH  31  33
ENDBRANCH  14  31
BRANCH  13  35
HETATM   35  C   UNL     1      14.353  38.747   0.176  1.00  0.00     0.014 C 
HETATM   36  C   UNL     1      13.761  37.484  -0.458  1.00  0.00     0.012 C 
BRANCH  35  37
HETATM   37  C   UNL     1      13.365  39.327   1.202  1.00  0.00     0.002 C 
HETATM   38  C   UNL     1      13.344  38.568   2.523  1.00  0.00     0.005 C 
ENDBRANCH  35  37
ENDBRANCH  13  35
BRANCH  18  39
HETATM   39  C   UNL     1      21.516  36.750  -2.756  1.00  0.00     0.016 C 
HETATM   40  C   UNL     1      20.193  36.068  -3.095  1.00  0.00     0.012 C 
HETATM   41  C   UNL     1      21.711  38.000  -3.612  1.00  0.00     0.012 C 
ENDBRANCH  18  39
BRANCH  17  42
HETATM   42  C   UNL     1      16.119  33.744   0.633  1.00  0.00     0.016 C 
HETATM   43  C   UNL     1      15.231  33.181  -0.477  1.00  0.00     0.012 C 
HETATM   44  C   UNL     1      15.281  34.089   1.864  1.00  0.00     0.012 C 
ENDBRANCH  17  42
BRANCH  15  45
HETATM   45  C   UNL     1      21.149  32.539   0.555  1.00  0.00     0.014 C 
HETATM   46  C   UNL     1      21.863  32.232  -0.767  1.00  0.00     0.012 C 
BRANCH  45  47
HETATM   47  C   UNL     1      22.107  32.277   1.733  1.00  0.00     0.002 C 
HETATM   48  C   UNL     1      23.412  31.614   1.317  1.00  0.00     0.005 C 
ENDBRANCH  45  47
ENDBRANCH  15  45
TORSDOF 9
ENDMDL
MODEL 4
REMARK VINA RESULT:    -5.387      1.889      7.747
REMARK INTER + INTRA:          -7.713
REMARK INTER:                  -7.801
REMARK INTRA:                   0.087
REMARK UNBOUND:                 0.508
REMARK  9 active torsions:
REMARK  status: ('A' for Active; 'I' for Inactive)
REMARK    1  A    between atoms: C_13  and  C_16 
REMARK    2  A    between atoms: C_14  and  C_17 
REMARK    3  A    between atoms: C_15  and  C_18 
REMARK    4  A    between atoms: C_16  and  C_22 
REMARK    5  A    between atoms: C_17  and  C_23 
REMARK    6  A    between atoms: C_18  and  C_24 
REMARK    7  A    between atoms: C_19  and  C_25 
REMARK    8  A    between atoms: C_20  and  C_26 
REMARK    9  A    between atoms: C_21  and  C_27 
ROOT
HETATM    1  O   UNL     1      21.516  38.220   1.920  1.00  0.00    -0.304 OA
HETATM    2  O   UNL     1      16.639  39.628   1.878  1.00  0.00    -0.304 OA
HETATM    3  O   UNL     1      19.254  36.951  -1.197  1.00  0.00    -0.304 OA
HETATM    4  O   UNL     1      19.688  39.030   3.570  1.00  0.00    -0.270 OA
HETATM    5  O   UNL     1      21.960  36.031  -3.126  1.00  0.00    -0.270 OA
HETATM    6  O   UNL     1      17.732  37.249   1.581  1.00  0.00    -0.270 OA
HETATM    7  O   UNL     1      23.262  38.352   0.418  1.00  0.00    -0.263 OA
HETATM    8  O   UNL     1      18.003  40.668   0.332  1.00  0.00    -0.263 OA
HETATM    9  O   UNL     1      19.255  34.846  -2.128  1.00  0.00    -0.263 OA
HETATM   10  N   UNL     1      19.661  41.115   2.554  1.00  0.00    -0.340 N 
HETATM   11  N   UNL     1      22.305  36.057  -0.832  1.00  0.00    -0.340 N 
HETATM   12  N   UNL     1      16.719  36.749  -0.446  1.00  0.00    -0.340 N 
HETATM   13  C   UNL     1      18.195  41.205   2.701  1.00  0.00     0.190 C 
HETATM   14  C   UNL     1      21.847  36.363   0.539  1.00  0.00     0.190 C 
HETATM   15  C   UNL     1      17.485  35.489  -0.588  1.00  0.00     0.190 C 
HETATM   16  C   UNL     1      21.638  39.604   2.315  1.00  0.00     0.227 C 
HETATM   17  C   UNL     1      16.054  38.797   0.856  1.00  0.00     0.227 C 
HETATM   18  C   UNL     1      20.433  37.402  -1.871  1.00  0.00     0.227 C 
HETATM   19  C   UNL     1      20.260  39.894   2.895  1.00  0.00     0.250 C 
HETATM   20  C   UNL     1      21.620  36.423  -2.003  1.00  0.00     0.250 C 
HETATM   21  C   UNL     1      16.913  37.536   0.699  1.00  0.00     0.250 C 
HETATM   22  C   UNL     1      22.324  37.754   0.924  1.00  0.00     0.283 C 
HETATM   23  C   UNL     1      17.623  40.493   1.482  1.00  0.00     0.283 C 
HETATM   24  C   UNL     1      18.738  35.712  -1.434  1.00  0.00     0.283 C 
HETATM   25  C   UNL     1      20.382  42.231   1.937  1.00  0.00     0.153 C 
HETATM   26  C   UNL     1      23.561  35.321  -0.979  1.00  0.00     0.153 C 
HETATM   27  C   UNL     1      15.855  37.118  -1.572  1.00  0.00     0.153 C 
ENDROOT
BRANCH  16  28
HETATM   28  C   UNL     1      22.711  39.755   3.378  1.00  0.00     0.016 C 
HETATM   29  C   UNL     1      22.429  38.832   4.563  1.00  0.00     0.012 C 
HETATM   30  C   UNL     1      22.809  41.207   3.842  1.00  0.00     0.012 C 
ENDBRANCH  16  28
BRANCH  14  31
HETATM   31  C   UNL     1      22.272  35.351   1.603  1.00  0.00     0.014 C 
HETATM   32  C   UNL     1      23.376  35.952   2.476  1.00  0.00     0.012 C 
BRANCH  31  33
HETATM   33  C   UNL     1      21.095  34.901   2.485  1.00  0.00     0.002 C 
HETATM   34  C   UNL     1      20.017  34.143   1.723  1.00  0.00     0.005 C 
ENDBRANCH  31  33
ENDBRANCH  14  31
BRANCH  13  35
HETATM   35  C   UNL     1      17.606  42.605   2.803  1.00  0.00     0.014 C 
HETATM   36  C   UNL     1      16.172  42.606   2.265  1.00  0.00     0.012 C 
BRANCH  35  37
HETATM   37  C   UNL     1      17.620  43.146   4.244  1.00  0.00     0.002 C 
HETATM   38  C   UNL     1      18.712  44.177   4.495  1.00  0.00     0.005 C 
ENDBRANCH  35  37
ENDBRANCH  13  35
BRANCH  18  39
HETATM   39  C   UNL     1      20.004  37.948  -3.234  1.00  0.00     0.016 C 
HETATM   40  C   UNL     1      18.747  38.803  -3.098  1.00  0.00     0.012 C 
HETATM   41  C   UNL     1      21.136  38.754  -3.869  1.00  0.00     0.012 C 
ENDBRANCH  18  39
BRANCH  17  42
HETATM   42  C   UNL     1      14.657  38.423   1.332  1.00  0.00     0.016 C 
HETATM   43  C   UNL     1      13.644  39.493   0.927  1.00  0.00     0.012 C 
HETATM   44  C   UNL     1      14.639  38.215   2.846  1.00  0.00     0.012 C 
ENDBRANCH  17  42
BRANCH  15  45
HETATM   45  C   UNL     1      16.649  34.327  -1.123  1.00  0.00     0.014 C 
HETATM   46  C   UNL     1      17.480  33.039  -1.123  1.00  0.00     0.012 C 
BRANCH  45  47
HETATM   47  C   UNL     1      15.355  34.108  -0.315  1.00  0.00     0.002 C 
HETATM   48  C   UNL     1      15.602  33.815   1.157  1.00  0.00     0.005 C 
ENDBRANCH  45  47
ENDBRANCH  15  45
TORSDOF 9
ENDMDL
MODEL 5
REMARK VINA RESULT:    -5.345      2.148      6.565
REMARK INTER + INTRA:          -7.648
REMARK INTER:                  -7.954
REMARK INTRA:                   0.305
REMARK UNBOUND:                 0.508
REMARK  9 active torsions:
REMARK  status: ('A' for Active; 'I' for Inactive)
REMARK    1  A    between atoms: C_13  and  C_16 
REMARK    2  A    between atoms: C_14  and  C_17 
REMARK    3  A    between atoms: C_15  and  C_18 
REMARK    4  A    between atoms: C_16  and  C_22 
REMARK    5  A    between atoms: C_17  and  C_23 
REMARK    6  A    between atoms: C_18  and  C_24 
REMARK    7  A    between atoms: C_19  and  C_25 
REMARK    8  A    between atoms: C_20  and  C_26 
REMARK    9  A    between atoms: C_21  and  C_27 
ROOT
HETATM    1  O   UNL     1      18.625  40.477   0.473  1.00  0.00    -0.304 OA
HETATM    2  O   UNL     1      17.840  35.473   0.145  1.00  0.00    -0.304 OA
HETATM    3  O   UNL     1      14.796  39.237  -0.026  1.00  0.00    -0.304 OA
HETATM    4  O   UNL     1      19.932  38.314  -0.104  1.00  0.00    -0.270 OA
HETATM    5  O   UNL     1      13.421  42.274   0.852  1.00  0.00    -0.270 OA
HETATM    6  O   UNL     1      17.022  37.434  -1.412  1.00  0.00    -0.270 OA
HETATM    7  O   UNL     1      17.757  42.180   1.765  1.00  0.00    -0.263 OA
HETATM    8  O   UNL     1      17.151  36.476   2.107  1.00  0.00    -0.263 OA
HETATM    9  O   UNL     1      13.225  40.161  -1.431  1.00  0.00    -0.263 OA
HETATM   10  N   UNL     1      19.732  37.581   2.088  1.00  0.00    -0.340 N 
HETATM   11  N   UNL     1      15.588  42.336   0.027  1.00  0.00    -0.340 N 
HETATM   12  N   UNL     1      14.762  36.919  -1.314  1.00  0.00    -0.340 N 
HETATM   13  C   UNL     1      19.525  36.189   1.638  1.00  0.00     0.190 C 
HETATM   14  C   UNL     1      16.817  41.653  -0.429  1.00  0.00     0.190 C 
HETATM   15  C   UNL     1      14.390  38.128  -2.086  1.00  0.00     0.190 C 
HETATM   16  C   UNL     1      19.493  40.005   1.526  1.00  0.00     0.227 C 
HETATM   17  C   UNL     1      16.480  35.372  -0.323  1.00  0.00     0.227 C 
HETATM   18  C   UNL     1      14.644  40.209   1.013  1.00  0.00     0.227 C 
HETATM   19  C   UNL     1      19.767  38.570   1.095  1.00  0.00     0.250 C 
HETATM   20  C   UNL     1      14.485  41.691   0.610  1.00  0.00     0.250 C 
HETATM   21  C   UNL     1      16.118  36.667  -1.059  1.00  0.00     0.250 C 
HETATM   22  C   UNL     1      17.768  41.503   0.747  1.00  0.00     0.283 C 
HETATM   23  C   UNL     1      18.033  36.074   1.358  1.00  0.00     0.283 C 
HETATM   24  C   UNL     1      14.022  39.275  -1.146  1.00  0.00     0.283 C 
HETATM   25  C   UNL     1      19.746  37.868   3.524  1.00  0.00     0.153 C 
HETATM   26  C   UNL     1      15.518  43.788  -0.140  1.00  0.00     0.153 C 
HETATM   27  C   UNL     1      13.655  36.104  -0.805  1.00  0.00     0.153 C 
ENDROOT
BRANCH  16  28
HETATM   28  C   UNL     1      20.777  40.814   1.552  1.00  0.00     0.016 C 
HETATM   29  C   UNL     1      21.984  39.916   1.288  1.00  0.00     0.012 C 
HETATM   30  C   UNL     1      20.930  41.539   2.887  1.00  0.00     0.012 C 
ENDBRANCH  16  28
BRANCH  14  31
HETATM   31  C   UNL     1      17.533  42.325  -1.599  1.00  0.00     0.014 C 
HETATM   32  C   UNL     1      18.893  42.855  -1.138  1.00  0.00     0.012 C 
BRANCH  31  33
HETATM   33  C   UNL     1      17.721  41.374  -2.794  1.00  0.00     0.002 C 
HETATM   34  C   UNL     1      16.411  40.930  -3.430  1.00  0.00     0.005 C 
ENDBRANCH  31  33
ENDBRANCH  14  31
BRANCH  13  35
HETATM   35  C   UNL     1      19.955  35.092   2.602  1.00  0.00     0.014 C 
HETATM   36  C   UNL     1      19.160  33.814   2.320  1.00  0.00     0.012 C 
BRANCH  35  37
HETATM   37  C   UNL     1      21.463  34.795   2.522  1.00  0.00     0.002 C 
HETATM   38  C   UNL     1      22.045  34.979   1.127  1.00  0.00     0.005 C 
ENDBRANCH  35  37
ENDBRANCH  13  35
BRANCH  18  39
HETATM   39  C   UNL     1      13.494  39.747   1.910  1.00  0.00     0.016 C 
HETATM   40  C   UNL     1      13.595  38.248   2.184  1.00  0.00     0.012 C 
HETATM   41  C   UNL     1      13.487  40.533   3.220  1.00  0.00     0.012 C 
ENDBRANCH  18  39
BRANCH  17  42
HETATM   42  C   UNL     1      16.426  34.191  -1.283  1.00  0.00     0.016 C 
HETATM   43  C   UNL     1      15.794  32.975  -0.607  1.00  0.00     0.012 C 
HETATM   44  C   UNL     1      17.823  33.849  -1.799  1.00  0.00     0.012 C 
ENDBRANCH  17  42
BRANCH  15  45
HETATM   45  C   UNL     1      13.292  37.875  -3.118  1.00  0.00     0.014 C 
HETATM   46  C   UNL     1      11.945  38.373  -2.582  1.00  0.00     0.012 C 
BRANCH  45  47
HETATM   47  C   UNL     1      13.589  38.544  -4.474  1.00  0.00     0.002 C 
HETATM   48  C   UNL     1      12.584  38.187  -5.558  1.00  0.00     0.005 C 
ENDBRANCH  45  47
ENDBRANCH  15  45
TORSDOF 9
ENDMDL
MODEL 6
REMARK VINA RESULT:    -5.204      2.443      7.172
REMARK INTER + INTRA:          -7.434
REMARK INTER:                  -7.605
REMARK INTRA:                   0.172
REMARK UNBOUND:                 0.508
REMARK  9 active torsions:
REMARK  status: ('A' for Active; 'I' for Inactive)
REMARK    1  A    between atoms: C_13  and  C_16 
REMARK    2  A    between atoms: C_14  and  C_17 
REMARK    3  A    between atoms: C_15  and  C_18 
REMARK    4  A    between atoms: C_16  and  C_22 
REMARK    5  A    between atoms: C_17  and  C_23 
REMARK    6  A    between atoms: C_18  and  C_24 
REMARK    7  A    between atoms: C_19  and  C_25 
REMARK    8  A    between atoms: C_20  and  C_26 
REMARK    9  A    between atoms: C_21  and  C_27 
ROOT
HETATM    1  O   UNL     1      18.589  34.397  -0.048  1.00  0.00    -0.304 OA
HETATM    2  O   UNL     1      16.830  38.807  -1.844  1.00  0.00    -0.304 OA
HETATM    3  O   UNL     1      20.654  37.747   0.933  1.00  0.00    -0.304 OA
HETATM    4  O   UNL     1      17.081  35.280  -1.963  1.00  0.00    -0.270 OA
HETATM    5  O   UNL     1      22.446  36.220   3.452  1.00  0.00    -0.270 OA
HETATM    6  O   UNL     1      19.253  37.777  -1.924  1.00  0.00    -0.270 OA
HETATM    7  O   UNL     1      19.161  33.602   2.041  1.00  0.00    -0.263 OA
HETATM    8  O   UNL     1      16.535  38.449   0.418  1.00  0.00    -0.263 OA
HETATM    9  O   UNL     1      22.941  37.998   0.940  1.00  0.00    -0.263 OA
HETATM   10  N   UNL     1      15.494  35.980  -0.421  1.00  0.00    -0.340 N 
HETATM   11  N   UNL     1      21.647  34.826   1.780  1.00  0.00    -0.340 N 
HETATM   12  N   UNL     1      20.337  39.584  -0.952  1.00  0.00    -0.340 N 
HETATM   13  C   UNL     1      15.219  37.199  -1.208  1.00  0.00     0.190 C 
HETATM   14  C   UNL     1      20.836  34.598   0.566  1.00  0.00     0.190 C 
HETATM   15  C   UNL     1      21.633  38.868  -0.918  1.00  0.00     0.190 C 
HETATM   16  C   UNL     1      17.173  34.229   0.181  1.00  0.00     0.227 C 
HETATM   17  C   UNL     1      17.908  39.730  -1.595  1.00  0.00     0.227 C 
HETATM   18  C   UNL     1      20.583  37.080   2.197  1.00  0.00     0.227 C 
HETATM   19  C   UNL     1      16.569  35.182  -0.841  1.00  0.00     0.250 C 
HETATM   20  C   UNL     1      21.653  36.016   2.524  1.00  0.00     0.250 C 
HETATM   21  C   UNL     1      19.219  38.940  -1.504  1.00  0.00     0.250 C 
HETATM   22  C   UNL     1      19.450  34.125   0.974  1.00  0.00     0.283 C 
HETATM   23  C   UNL     1      16.257  38.216  -0.752  1.00  0.00     0.283 C 
HETATM   24  C   UNL     1      21.841  38.197   0.440  1.00  0.00     0.283 C 
HETATM   25  C   UNL     1      14.741  35.747   0.813  1.00  0.00     0.153 C 
HETATM   26  C   UNL     1      22.503  33.731   2.238  1.00  0.00     0.153 C 
HETATM   27  C   UNL     1      20.307  40.911  -0.328  1.00  0.00     0.153 C 
ENDROOT
BRANCH  16  28
HETATM   28  C   UNL     1      16.761  32.797  -0.109  1.00  0.00     0.016 C 
HETATM   29  C   UNL     1      17.434  32.290  -1.383  1.00  0.00     0.012 C 
HETATM   30  C   UNL     1      15.241  32.688  -0.228  1.00  0.00     0.012 C 
ENDBRANCH  16  28
BRANCH  14  31
HETATM   31  C   UNL     1      21.444  33.626  -0.444  1.00  0.00     0.014 C 
HETATM   32  C   UNL     1      20.840  32.233  -0.250  1.00  0.00     0.012 C 
BRANCH  31  33
HETATM   33  C   UNL     1      21.237  34.087  -1.898  1.00  0.00     0.002 C 
HETATM   34  C   UNL     1      21.912  35.413  -2.218  1.00  0.00     0.005 C 
ENDBRANCH  31  33
ENDBRANCH  14  31
BRANCH  13  35
HETATM   35  C   UNL     1      13.823  37.793  -1.077  1.00  0.00     0.014 C 
HETATM   36  C   UNL     1      13.886  39.311  -1.267  1.00  0.00     0.012 C 
BRANCH  35  37
HETATM   37  C   UNL     1      12.828  37.184  -2.080  1.00  0.00     0.002 C 
HETATM   38  C   UNL     1      12.367  38.164  -3.151  1.00  0.00     0.005 C 
ENDBRANCH  35  37
ENDBRANCH  13  35
BRANCH  18  39
HETATM   39  C   UNL     1      20.514  38.156   3.282  1.00  0.00     0.016 C 
HETATM   40  C   UNL     1      19.538  39.260   2.882  1.00  0.00     0.012 C 
HETATM   41  C   UNL     1      20.110  37.542   4.621  1.00  0.00     0.012 C 
ENDBRANCH  18  39
BRANCH  17  42
HETATM   42  C   UNL     1      17.956  40.689  -2.776  1.00  0.00     0.016 C 
HETATM   43  C   UNL     1      16.584  41.318  -3.018  1.00  0.00     0.012 C 
HETATM   44  C   UNL     1      18.444  39.972  -4.035  1.00  0.00     0.012 C 
ENDBRANCH  17  42
BRANCH  15  45
HETATM   45  C   UNL     1      22.823  39.747  -1.296  1.00  0.00     0.014 C 
HETATM   46  C   UNL     1      24.040  38.872  -1.617  1.00  0.00     0.012 C 
BRANCH  45  47
HETATM   47  C   UNL     1      22.520  40.671  -2.492  1.00  0.00     0.002 C 
HETATM   48  C   UNL     1      22.436  39.935  -3.820  1.00  0.00     0.005 C 
ENDBRANCH  45  47
ENDBRANCH  15  45
TORSDOF 9
ENDMDL
MODEL 7
REMARK VINA RESULT:    -5.021      2.420      7.065
REMARK INTER + INTRA:          -7.155
REMARK INTER:                  -7.835
REMARK INTRA:                   0.680
REMARK UNBOUND:                 0.508
REMARK  9 active torsions:
REMARK  status: ('A' for Active; 'I' for Inactive)
REMARK    1  A    between atoms: C_13  and  C_16 
REMARK    2  A    between atoms: C_14  and  C_17 
REMARK    3  A    between atoms: C_15  and  C_18 
REMARK    4  A    between atoms: C_16  and  C_22 
REMARK    5  A    between atoms: C_17  and  C_23 
REMARK    6  A    between atoms: C_18  and  C_24 
REMARK    7  A    between atoms: C_19  and  C_25 
REMARK    8  A    between atoms: C_20  and  C_26 
REMARK    9  A    between atoms: C_21  and  C_27 
ROOT
HETATM    1  O   UNL     1      20.254  37.578   0.165  1.00  0.00    -0.304 OA
HETATM    2  O   UNL     1      17.216  40.938  -2.127  1.00  0.00    -0.304 OA
HETATM    3  O   UNL     1      16.267  37.202   0.806  1.00  0.00    -0.304 OA
HETATM    4  O   UNL     1      20.373  39.951  -0.872  1.00  0.00    -0.270 OA
HETATM    5  O   UNL     1      16.511  34.015   2.099  1.00  0.00    -0.270 OA
HETATM    6  O   UNL     1      17.323  40.174   0.393  1.00  0.00    -0.270 OA
HETATM    7  O   UNL     1      20.347  35.276   0.273  1.00  0.00    -0.263 OA
HETATM    8  O   UNL     1      17.178  38.794  -2.983  1.00  0.00    -0.263 OA
HETATM    9  O   UNL     1      15.234  36.766   2.815  1.00  0.00    -0.263 OA
HETATM   10  N   UNL     1      19.971  39.074  -2.982  1.00  0.00    -0.340 N 
HETATM   11  N   UNL     1      18.411  35.333   2.272  1.00  0.00    -0.340 N 
HETATM   12  N   UNL     1      15.091  39.567   0.576  1.00  0.00    -0.340 N 
HETATM   13  C   UNL     1      19.118  40.226  -3.335  1.00  0.00     0.190 C 
HETATM   14  C   UNL     1      19.155  36.573   1.968  1.00  0.00     0.190 C 
HETATM   15  C   UNL     1      15.284  39.038   1.946  1.00  0.00     0.190 C 
HETATM   16  C   UNL     1      20.857  37.628  -1.146  1.00  0.00     0.227 C 
HETATM   17  C   UNL     1      15.943  40.742  -1.480  1.00  0.00     0.227 C 
HETATM   18  C   UNL     1      16.639  35.845   0.544  1.00  0.00     0.227 C 
HETATM   19  C   UNL     1      20.410  38.992  -1.653  1.00  0.00     0.250 C 
HETATM   20  C   UNL     1      17.167  34.991   1.717  1.00  0.00     0.250 C 
HETATM   21  C   UNL     1      16.186  40.135  -0.093  1.00  0.00     0.250 C 
HETATM   22  C   UNL     1      19.989  36.358   0.714  1.00  0.00     0.283 C 
HETATM   23  C   UNL     1      17.730  39.874  -2.815  1.00  0.00     0.283 C 
HETATM   24  C   UNL     1      15.541  37.531   1.911  1.00  0.00     0.283 C 
HETATM   25  C   UNL     1      20.193  38.023  -3.978  1.00  0.00     0.153 C 
HETATM   26  C   UNL     1      19.015  34.396   3.219  1.00  0.00     0.153 C 
HETATM   27  C   UNL     1      13.761  39.385  -0.013  1.00  0.00     0.153 C 
ENDROOT
BRANCH  16  28
HETATM   28  C   UNL     1      22.369  37.565  -1.031  1.00  0.00     0.016 C 
HETATM   29  C   UNL     1      22.876  36.161  -1.352  1.00  0.00     0.012 C 
HETATM   30  C   UNL     1      22.823  37.993   0.364  1.00  0.00     0.012 C 
ENDBRANCH  16  28
BRANCH  14  31
HETATM   31  C   UNL     1      20.039  37.091   3.101  1.00  0.00     0.014 C 
HETATM   32  C   UNL     1      21.452  36.521   2.957  1.00  0.00     0.012 C 
BRANCH  31  33
HETATM   33  C   UNL     1      20.097  38.628   3.142  1.00  0.00     0.002 C 
HETATM   34  C   UNL     1      21.436  39.175   3.615  1.00  0.00     0.005 C 
ENDBRANCH  31  33
ENDBRANCH  14  31
BRANCH  13  35
HETATM   35  C   UNL     1      19.038  40.587  -4.812  1.00  0.00     0.014 C 
HETATM   36  C   UNL     1      17.749  41.367  -5.086  1.00  0.00     0.012 C 
BRANCH  35  37
HETATM   37  C   UNL     1      20.252  41.405  -5.284  1.00  0.00     0.002 C 
HETATM   38  C   UNL     1      20.740  42.418  -4.256  1.00  0.00     0.005 C 
ENDBRANCH  35  37
ENDBRANCH  13  35
BRANCH  18  39
HETATM   39  C   UNL     1      15.456  35.169  -0.152  1.00  0.00     0.016 C 
HETATM   40  C   UNL     1      14.692  36.175  -1.010  1.00  0.00     0.012 C 
HETATM   41  C   UNL     1      15.934  33.993  -1.001  1.00  0.00     0.012 C 
ENDBRANCH  18  39
BRANCH  17  42
HETATM   42  C   UNL     1      15.295  42.113  -1.346  1.00  0.00     0.016 C 
HETATM   43  C   UNL     1      14.195  42.295  -2.391  1.00  0.00     0.012 C 
HETATM   44  C   UNL     1      16.341  43.219  -1.472  1.00  0.00     0.012 C 
ENDBRANCH  17  42
BRANCH  15  45
HETATM   45  C   UNL     1      14.141  39.388   2.898  1.00  0.00     0.014 C 
HETATM   46  C   UNL     1      14.011  40.910   3.023  1.00  0.00     0.012 C 
BRANCH  45  47
HETATM   47  C   UNL     1      12.794  38.788   2.451  1.00  0.00     0.002 C 
HETATM   48  C   UNL     1      11.604  39.321   3.234  1.00  0.00     0.005 C 
ENDBRANCH  45  47
ENDBRANCH  15  45
TORSDOF 9
ENDMDL
MODEL 8
REMARK VINA RESULT:    -4.990      1.577      2.011
REMARK INTER + INTRA:          -7.107
REMARK INTER:                  -8.018
REMARK INTRA:                   0.911
REMARK UNBOUND:                 0.508
REMARK  9 active torsions:
REMARK  status: ('A' for Active; 'I' for Inactive)
REMARK    1  A    between atoms: C_13  and  C_16 
REMARK    2  A    between atoms: C_14  and  C_17 
REMARK    3  A    between atoms: C_15  and  C_18 
REMARK    4  A    between atoms: C_16  and  C_22 
REMARK    5  A    between atoms: C_17  and  C_23 
REMARK    6  A    between atoms: C_18  and  C_24 
REMARK    7  A    between atoms: C_19  and  C_25 
REMARK    8  A    between atoms: C_20  and  C_26 
REMARK    9  A    between atoms: C_21  and  C_27 
ROOT
HETATM    1  O   UNL     1      16.040  37.921   1.325  1.00  0.00    -0.304 OA
HETATM    2  O   UNL     1      21.047  37.299   1.884  1.00  0.00    -0.304 OA
HETATM    3  O   UNL     1      18.382  41.179   0.740  1.00  0.00    -0.304 OA
HETATM    4  O   UNL     1      17.705  36.308   2.486  1.00  0.00    -0.270 OA
HETATM    5  O   UNL     1      15.905  43.006  -0.812  1.00  0.00    -0.270 OA
HETATM    6  O   UNL     1      19.425  39.103   2.914  1.00  0.00    -0.270 OA
HETATM    7  O   UNL     1      14.681  38.774  -0.331  1.00  0.00    -0.263 OA
HETATM    8  O   UNL     1      20.300  37.574  -0.283  1.00  0.00    -0.263 OA
HETATM    9  O   UNL     1      17.978  43.315   1.495  1.00  0.00    -0.263 OA
HETATM   10  N   UNL     1      18.465  35.569   0.422  1.00  0.00    -0.340 N 
HETATM   11  N   UNL     1      15.189  41.337   0.630  1.00  0.00    -0.340 N 
HETATM   12  N   UNL     1      20.601  40.962   2.175  1.00  0.00    -0.340 N 
HETATM   13  C   UNL     1      19.853  35.502   0.920  1.00  0.00     0.190 C 
HETATM   14  C   UNL     1      15.467  40.180   1.507  1.00  0.00     0.190 C 
HETATM   15  C   UNL     1      19.562  41.893   2.673  1.00  0.00     0.190 C 
HETATM   16  C   UNL     1      16.227  36.662   0.643  1.00  0.00     0.227 C 
HETATM   17  C   UNL     1      21.555  38.648   1.919  1.00  0.00     0.227 C 
HETATM   18  C   UNL     1      17.503  41.259  -0.385  1.00  0.00     0.227 C 
HETATM   19  C   UNL     1      17.511  36.142   1.276  1.00  0.00     0.250 C 
HETATM   20  C   UNL     1      16.138  41.958  -0.198  1.00  0.00     0.250 C 
HETATM   21  C   UNL     1      20.431  39.584   2.377  1.00  0.00     0.250 C 
HETATM   22  C   UNL     1      15.322  38.898   0.702  1.00  0.00     0.283 C 
HETATM   23  C   UNL     1      20.415  36.906   0.737  1.00  0.00     0.283 C 
HETATM   24  C   UNL     1      18.580  42.251   1.557  1.00  0.00     0.283 C 
HETATM   25  C   UNL     1      18.187  35.175  -0.960  1.00  0.00     0.153 C 
HETATM   26  C   UNL     1      13.827  41.870   0.624  1.00  0.00     0.153 C 
HETATM   27  C   UNL     1      21.713  41.562   1.432  1.00  0.00     0.153 C 
ENDROOT
BRANCH  16  28
HETATM   28  C   UNL     1      15.067  35.728   0.935  1.00  0.00     0.016 C 
HETATM   29  C   UNL     1      15.539  34.518   1.739  1.00  0.00     0.012 C 
HETATM   30  C   UNL     1      14.396  35.280  -0.362  1.00  0.00     0.012 C 
ENDBRANCH  16  28
BRANCH  14  31
HETATM   31  C   UNL     1      14.610  40.105   2.769  1.00  0.00     0.014 C 
HETATM   32  C   UNL     1      14.875  41.330   3.648  1.00  0.00     0.012 C 
BRANCH  31  33
HETATM   33  C   UNL     1      13.108  40.007   2.451  1.00  0.00     0.002 C 
HETATM   34  C   UNL     1      12.512  38.637   2.743  1.00  0.00     0.005 C 
ENDBRANCH  31  33
ENDBRANCH  14  31
BRANCH  13  35
HETATM   35  C   UNL     1      20.769  34.489   0.248  1.00  0.00     0.014 C 
HETATM   36  C   UNL     1      22.232  34.881   0.474  1.00  0.00     0.012 C 
BRANCH  35  37
HETATM   37  C   UNL     1      20.531  33.055   0.753  1.00  0.00     0.002 C 
HETATM   38  C   UNL     1      20.004  32.992   2.181  1.00  0.00     0.005 C 
ENDBRANCH  35  37
ENDBRANCH  13  35
BRANCH  18  39
HETATM   39  C   UNL     1      18.291  41.874  -1.543  1.00  0.00     0.016 C 
HETATM   40  C   UNL     1      19.742  41.402  -1.514  1.00  0.00     0.012 C 
HETATM   41  C   UNL     1      17.639  41.525  -2.880  1.00  0.00     0.012 C 
ENDBRANCH  18  39
BRANCH  17  42
HETATM   42  C   UNL     1      22.697  38.668   2.925  1.00  0.00     0.016 C 
HETATM   43  C   UNL     1      24.040  38.466   2.224  1.00  0.00     0.012 C 
HETATM   44  C   UNL     1      22.490  37.601   3.999  1.00  0.00     0.012 C 
ENDBRANCH  17  42
BRANCH  15  45
HETATM   45  C   UNL     1      20.136  43.144   3.336  1.00  0.00     0.014 C 
HETATM   46  C   UNL     1      19.086  43.779   4.255  1.00  0.00     0.012 C 
BRANCH  45  47
HETATM   47  C   UNL     1      21.419  42.854   4.138  1.00  0.00     0.002 C 
HETATM   48  C   UNL     1      22.281  44.086   4.370  1.00  0.00     0.005 C 
ENDBRANCH  45  47
ENDBRANCH  15  45
TORSDOF 9
ENDMDL
MODEL 9
REMARK VINA RESULT:    -4.958      2.712      7.024
REMARK INTER + INTRA:          -7.059
REMARK INTER:                  -7.478
REMARK INTRA:                   0.419
REMARK UNBOUND:                 0.508
REMARK  9 active torsions:
REMARK  status: ('A' for Active; 'I' for Inactive)
REMARK    1  A    between atoms: C_13  and  C_16 
REMARK    2  A    between atoms: C_14  and  C_17 
REMARK    3  A    between atoms: C_15  and  C_18 
REMARK    4  A    between atoms: C_16  and  C_22 
REMARK    5  A    between atoms: C_17  and  C_23 
REMARK    6  A    between atoms: C_18  and  C_24 
REMARK    7  A    between atoms: C_19  and  C_25 
REMARK    8  A    between atoms: C_20  and  C_26 
REMARK    9  A    between atoms: C_21  and  C_27 
ROOT
HETATM    1  O   UNL     1      17.937  34.400  -1.219  1.00  0.00    -0.304 OA
HETATM    2  O   UNL     1      18.113  38.925   1.074  1.00  0.00    -0.304 OA
HETATM    3  O   UNL     1      21.594  35.784  -0.143  1.00  0.00    -0.304 OA
HETATM    4  O   UNL     1      16.500  36.545  -0.988  1.00  0.00    -0.270 OA
HETATM    5  O   UNL     1      23.150  32.731  -0.521  1.00  0.00    -0.270 OA
HETATM    6  O   UNL     1      19.472  38.001  -0.985  1.00  0.00    -0.270 OA
HETATM    7  O   UNL     1      18.745  32.295  -0.731  1.00  0.00    -0.263 OA
HETATM    8  O   UNL     1      18.522  37.095   2.420  1.00  0.00    -0.263 OA
HETATM    9  O   UNL     1      23.519  35.699  -1.399  1.00  0.00    -0.263 OA
HETATM   10  N   UNL     1      16.163  36.104   1.265  1.00  0.00    -0.340 N 
HETATM   11  N   UNL     1      21.218  33.051  -1.762  1.00  0.00    -0.340 N 
HETATM   12  N   UNL     1      21.582  38.435  -0.121  1.00  0.00    -0.340 N 
HETATM   13  C   UNL     1      16.272  37.539   1.596  1.00  0.00     0.190 C 
HETATM   14  C   UNL     1      20.026  33.850  -2.115  1.00  0.00     0.190 C 
HETATM   15  C   UNL     1      22.254  37.772  -1.262  1.00  0.00     0.190 C 
HETATM   16  C   UNL     1      16.823  34.277  -0.309  1.00  0.00     0.227 C 
HETATM   17  C   UNL     1      19.514  39.265   1.048  1.00  0.00     0.227 C 
HETATM   18  C   UNL     1      21.662  34.428   0.310  1.00  0.00     0.227 C 
HETATM   19  C   UNL     1      16.455  35.733  -0.056  1.00  0.00     0.250 C 
HETATM   20  C   UNL     1      22.089  33.341  -0.700  1.00  0.00     0.250 C 
HETATM   21  C   UNL     1      20.180  38.508  -0.106  1.00  0.00     0.250 C 
HETATM   22  C   UNL     1      18.848  33.386  -1.273  1.00  0.00     0.283 C 
HETATM   23  C   UNL     1      17.763  37.800   1.768  1.00  0.00     0.283 C 
HETATM   24  C   UNL     1      22.574  36.315  -0.925  1.00  0.00     0.283 C 
HETATM   25  C   UNL     1      15.901  35.145   2.340  1.00  0.00     0.153 C 
HETATM   26  C   UNL     1      21.508  31.872  -2.579  1.00  0.00     0.153 C 
HETATM   27  C   UNL     1      22.450  38.909   0.962  1.00  0.00     0.153 C 
ENDROOT
BRANCH  16  28
HETATM   28  C   UNL     1      15.676  33.541  -0.977  1.00  0.00     0.016 C 
HETATM   29  C   UNL     1      14.371  34.317  -0.815  1.00  0.00     0.012 C 
HETATM   30  C   UNL     1      15.535  32.131  -0.407  1.00  0.00     0.012 C 
ENDBRANCH  16  28
BRANCH  14  31
HETATM   31  C   UNL     1      19.651  33.833  -3.595  1.00  0.00     0.014 C 
HETATM   32  C   UNL     1      18.214  33.332  -3.759  1.00  0.00     0.012 C 
BRANCH  31  33
HETATM   33  C   UNL     1      19.799  35.216  -4.253  1.00  0.00     0.002 C 
HETATM   34  C   UNL     1      21.243  35.685  -4.365  1.00  0.00     0.005 C 
ENDBRANCH  31  33
ENDBRANCH  14  31
BRANCH  13  35
HETATM   35  C   UNL     1      15.521  38.011   2.833  1.00  0.00     0.014 C 
HETATM   36  C   UNL     1      15.876  39.470   3.131  1.00  0.00     0.012 C 
BRANCH  35  37
HETATM   37  C   UNL     1      13.996  37.866   2.686  1.00  0.00     0.002 C 
HETATM   38  C   UNL     1      13.273  39.195   2.511  1.00  0.00     0.005 C 
ENDBRANCH  35  37
ENDBRANCH  13  35
BRANCH  18  39
HETATM   39  C   UNL     1      22.540  34.404   1.562  1.00  0.00     0.016 C 
HETATM   40  C   UNL     1      22.261  35.625   2.436  1.00  0.00     0.012 C 
HETATM   41  C   UNL     1      22.314  33.116   2.351  1.00  0.00     0.012 C 
ENDBRANCH  18  39
BRANCH  17  42
HETATM   42  C   UNL     1      19.603  40.766   0.811  1.00  0.00     0.016 C 
HETATM   43  C   UNL     1      19.859  41.506   2.124  1.00  0.00     0.012 C 
HETATM   44  C   UNL     1      18.330  41.285   0.145  1.00  0.00     0.012 C 
ENDBRANCH  17  42
BRANCH  15  45
HETATM   45  C   UNL     1      23.492  38.518  -1.754  1.00  0.00     0.014 C 
HETATM   46  C   UNL     1      24.760  37.823  -1.244  1.00  0.00     0.012 C 
BRANCH  45  47
HETATM   47  C   UNL     1      23.545  38.628  -3.290  1.00  0.00     0.002 C 
HETATM   48  C   UNL     1      22.282  39.217  -3.899  1.00  0.00     0.005 C 
ENDBRANCH  45  47
ENDBRANCH  15  45
TORSDOF 9
ENDMDL
MODEL 10
REMARK VINA RESULT:    -4.778      2.351      7.023
REMARK INTER + INTRA:          -6.784
REMARK INTER:                  -7.385
REMARK INTRA:                   0.602
REMARK UNBOUND:                 0.508
REMARK  9 active torsions:
REMARK  status: ('A' for Active; 'I' for Inactive)
REMARK    1  A    between atoms: C_13  and  C_16 
REMARK    2  A    between atoms: C_14  and  C_17 
REMARK    3  A    between atoms: C_15  and  C_18 
REMARK    4  A    between atoms: C_16  and  C_22 
REMARK    5  A    between atoms: C_17  and  C_23 
REMARK    6  A    between atoms: C_18  and  C_24 
REMARK    7  A    between atoms: C_19  and  C_25 
REMARK    8  A    between atoms: C_20  and  C_26 
REMARK    9  A    between atoms: C_21  and  C_27 
ROOT
HETATM    1  O   UNL     1      22.985  35.350   0.770  1.00  0.00    -0.304 OA
HETATM    2  O   UNL     1      18.088  36.611   0.330  1.00  0.00    -0.304 OA
HETATM    3  O   UNL     1      21.751  38.676   2.735  1.00  0.00    -0.304 OA
HETATM    4  O   UNL     1      20.983  34.936  -0.823  1.00  0.00    -0.270 OA
HETATM    5  O   UNL     1      24.563  38.866   4.720  1.00  0.00    -0.270 OA
HETATM    6  O   UNL     1      20.261  38.062  -0.009  1.00  0.00    -0.270 OA
HETATM    7  O   UNL     1      24.426  35.010   2.539  1.00  0.00    -0.263 OA
HETATM    8  O   UNL     1      18.732  35.764   2.379  1.00  0.00    -0.263 OA
HETATM    9  O   UNL     1      22.856  40.690   2.856  1.00  0.00    -0.263 OA
HETATM   10  N   UNL     1      19.888  33.729   0.829  1.00  0.00    -0.340 N 
HETATM   11  N   UNL     1      24.816  37.762   2.696  1.00  0.00    -0.340 N 
HETATM   12  N   UNL     1      19.681  39.750   1.473  1.00  0.00    -0.340 N 
HETATM   13  C   UNL     1      18.587  34.304   0.433  1.00  0.00     0.190 C 
HETATM   14  C   UNL     1      24.250  37.194   1.455  1.00  0.00     0.190 C 
HETATM   15  C   UNL     1      20.991  40.423   1.317  1.00  0.00     0.190 C 
HETATM   16  C   UNL     1      22.366  34.054   0.914  1.00  0.00     0.227 C 
HETATM   17  C   UNL     1      18.032  37.950   0.860  1.00  0.00     0.227 C 
HETATM   18  C   UNL     1      22.531  38.027   3.743  1.00  0.00     0.227 C 
HETATM   19  C   UNL     1      21.030  34.258   0.210  1.00  0.00     0.250 C 
HETATM   20  C   UNL     1      24.056  38.274   3.760  1.00  0.00     0.250 C 
HETATM   21  C   UNL     1      19.423  38.584   0.736  1.00  0.00     0.250 C 
HETATM   22  C   UNL     1      23.929  35.725   1.681  1.00  0.00     0.283 C 
HETATM   23  C   UNL     1      18.483  35.623   1.188  1.00  0.00     0.283 C 
HETATM   24  C   UNL     1      21.956  39.985   2.419  1.00  0.00     0.283 C 
HETATM   25  C   UNL     1      19.932  32.759   1.925  1.00  0.00     0.153 C 
HETATM   26  C   UNL     1      26.273  37.791   2.824  1.00  0.00     0.153 C 
HETATM   27  C   UNL     1      18.765  40.328   2.462  1.00  0.00     0.153 C 
ENDROOT
BRANCH  16  28
HETATM   28  C   UNL     1      23.191  32.995   0.205  1.00  0.00     0.016 C 
HETATM   29  C   UNL     1      24.014  32.192   1.211  1.00  0.00     0.012 C 
HETATM   30  C   UNL     1      24.100  33.633  -0.843  1.00  0.00     0.012 C 
ENDBRANCH  16  28
BRANCH  14  31
HETATM   31  C   UNL     1      25.126  37.353   0.213  1.00  0.00     0.014 C 
HETATM   32  C   UNL     1      26.010  36.116   0.041  1.00  0.00     0.012 C 
BRANCH  31  33
HETATM   33  C   UNL     1      24.296  37.583  -1.062  1.00  0.00     0.002 C 
HETATM   34  C   UNL     1      23.498  38.879  -1.045  1.00  0.00     0.005 C 
ENDBRANCH  31  33
ENDBRANCH  14  31
BRANCH  13  35
HETATM   35  C   UNL     1      17.355  33.453   0.710  1.00  0.00     0.014 C 
HETATM   36  C   UNL     1      16.257  34.319   1.334  1.00  0.00     0.012 C 
BRANCH  35  37
HETATM   37  C   UNL     1      16.818  32.765  -0.558  1.00  0.00     0.002 C 
HETATM   38  C   UNL     1      15.311  32.549  -0.541  1.00  0.00     0.005 C 
ENDBRANCH  35  37
ENDBRANCH  13  35
BRANCH  18  39
HETATM   39  C   UNL     1      21.898  38.353   5.097  1.00  0.00     0.016 C 
HETATM   40  C   UNL     1      20.439  37.905   5.128  1.00  0.00     0.012 C 
HETATM   41  C   UNL     1      22.685  37.697   6.230  1.00  0.00     0.012 C 
ENDBRANCH  18  39
BRANCH  17  42
HETATM   42  C   UNL     1      17.028  38.723   0.017  1.00  0.00     0.016 C 
HETATM   43  C   UNL     1      15.692  38.849   0.749  1.00  0.00     0.012 C 
HETATM   44  C   UNL     1      16.831  38.049  -1.341  1.00  0.00     0.012 C 
ENDBRANCH  17  42
BRANCH  15  45
HETATM   45  C   UNL     1      20.887  41.945   1.236  1.00  0.00     0.014 C 
HETATM   46  C   UNL     1      22.192  42.531   0.687  1.00  0.00     0.012 C 
BRANCH  45  47
HETATM   47  C   UNL     1      19.704  42.412   0.368  1.00  0.00     0.002 C 
HETATM   48  C   UNL     1      19.903  42.153  -1.118  1.00  0.00     0.005 C 
ENDBRANCH  45  47
ENDBRANCH  15  45
TORSDOF 9
ENDMDL
MODEL 11
REMARK VINA RESULT:    -4.579      2.097      6.927
REMARK INTER + INTRA:          -6.480
REMARK INTER:                  -8.148
REMARK INTRA:                   1.668
REMARK UNBOUND:                 0.508
REMARK  9 active torsions:
REMARK  status: ('A' for Active; 'I' for Inactive)
REMARK    1  A    between atoms: C_13  and  C_16 
REMARK    2  A    between atoms: C_14  and  C_17 
REMARK    3  A    between atoms: C_15  and  C_18 
REMARK    4  A    between atoms: C_16  and  C_22 
REMARK    5  A    between atoms: C_17  and  C_23 
REMARK    6  A    between atoms: C_18  and  C_24 
REMARK    7  A    between atoms: C_19  and  C_25 
REMARK    8  A    between atoms: C_20  and  C_26 
REMARK    9  A    between atoms: C_21  and  C_27 
ROOT
HETATM    1  O   UNL     1      18.383  34.273  -0.200  1.00  0.00    -0.304 OA
HETATM    2  O   UNL     1      16.840  39.088   0.248  1.00  0.00    -0.304 OA
HETATM    3  O   UNL     1      21.056  36.939   1.280  1.00  0.00    -0.304 OA
HETATM    4  O   UNL     1      16.578  35.859  -1.174  1.00  0.00    -0.270 OA
HETATM    5  O   UNL     1      23.197  34.520   2.486  1.00  0.00    -0.270 OA
HETATM    6  O   UNL     1      19.007  38.087  -0.866  1.00  0.00    -0.270 OA
HETATM    7  O   UNL     1      19.343  32.732   1.223  1.00  0.00    -0.263 OA
HETATM    8  O   UNL     1      17.071  37.915   2.223  1.00  0.00    -0.263 OA
HETATM    9  O   UNL     1      23.286  37.096   0.733  1.00  0.00    -0.263 OA
HETATM   10  N   UNL     1      15.533  35.978   0.895  1.00  0.00    -0.340 N 
HETATM   11  N   UNL     1      21.828  33.884   0.725  1.00  0.00    -0.340 N 
HETATM   12  N   UNL     1      20.530  39.360   0.335  1.00  0.00    -0.340 N 
HETATM   13  C   UNL     1      15.237  37.411   0.700  1.00  0.00     0.190 C 
HETATM   14  C   UNL     1      20.718  34.156  -0.212  1.00  0.00     0.190 C 
HETATM   15  C   UNL     1      21.686  38.642  -0.251  1.00  0.00     0.190 C 
HETATM   16  C   UNL     1      17.059  34.076   0.342  1.00  0.00     0.227 C 
HETATM   17  C   UNL     1      18.060  39.815   0.494  1.00  0.00     0.227 C 
HETATM   18  C   UNL     1      21.212  35.848   2.192  1.00  0.00     0.227 C 
HETATM   19  C   UNL     1      16.352  35.363  -0.063  1.00  0.00     0.250 C 
HETATM   20  C   UNL     1      22.178  34.706   1.809  1.00  0.00     0.250 C 
HETATM   21  C   UNL     1      19.234  39.006  -0.071  1.00  0.00     0.250 C 
HETATM   22  C   UNL     1      19.426  33.609   0.375  1.00  0.00     0.283 C 
HETATM   23  C   UNL     1      16.483  38.148   1.175  1.00  0.00     0.283 C 
HETATM   24  C   UNL     1      22.133  37.504   0.666  1.00  0.00     0.283 C 
HETATM   25  C   UNL     1      15.086  35.321   2.125  1.00  0.00     0.153 C 
HETATM   26  C   UNL     1      22.616  32.671   0.507  1.00  0.00     0.153 C 
HETATM   27  C   UNL     1      20.835  40.354   1.369  1.00  0.00     0.153 C 
ENDROOT
BRANCH  16  28
HETATM   28  C   UNL     1      16.399  32.873  -0.307  1.00  0.00     0.016 C 
HETATM   29  C   UNL     1      16.781  32.779  -1.783  1.00  0.00     0.012 C 
HETATM   30  C   UNL     1      14.880  32.941  -0.150  1.00  0.00     0.012 C 
ENDBRANCH  16  28
BRANCH  14  31
HETATM   31  C   UNL     1      20.920  33.617  -1.627  1.00  0.00     0.014 C 
HETATM   32  C   UNL     1      20.231  32.257  -1.765  1.00  0.00     0.012 C 
BRANCH  31  33
HETATM   33  C   UNL     1      20.390  34.582  -2.701  1.00  0.00     0.002 C 
HETATM   34  C   UNL     1      19.654  33.886  -3.837  1.00  0.00     0.005 C 
ENDBRANCH  31  33
ENDBRANCH  14  31
BRANCH  13  35
HETATM   35  C   UNL     1      14.010  37.956   1.418  1.00  0.00     0.014 C 
HETATM   36  C   UNL     1      14.444  38.766   2.643  1.00  0.00     0.012 C 
BRANCH  35  37
HETATM   37  C   UNL     1      13.131  38.827   0.503  1.00  0.00     0.002 C 
HETATM   38  C   UNL     1      13.511  40.302   0.520  1.00  0.00     0.005 C 
ENDBRANCH  35  37
ENDBRANCH  13  35
BRANCH  18  39
HETATM   39  C   UNL     1      21.560  36.438   3.560  1.00  0.00     0.016 C 
HETATM   40  C   UNL     1      22.912  37.147   3.511  1.00  0.00     0.012 C 
HETATM   41  C   UNL     1      20.467  37.399   4.023  1.00  0.00     0.012 C 
ENDBRANCH  18  39
BRANCH  17  42
HETATM   42  C   UNL     1      17.941  41.146  -0.235  1.00  0.00     0.016 C 
HETATM   43  C   UNL     1      17.529  42.256   0.731  1.00  0.00     0.012 C 
HETATM   44  C   UNL     1      16.943  41.043  -1.387  1.00  0.00     0.012 C 
ENDBRANCH  17  42
BRANCH  15  45
HETATM   45  C   UNL     1      22.851  39.561  -0.612  1.00  0.00     0.014 C 
HETATM   46  C   UNL     1      23.826  38.831  -1.542  1.00  0.00     0.012 C 
BRANCH  45  47
HETATM   47  C   UNL     1      22.388  40.873  -1.274  1.00  0.00     0.002 C 
HETATM   48  C   UNL     1      23.290  42.058  -0.968  1.00  0.00     0.005 C 
ENDBRANCH  45  47
ENDBRANCH  15  45
TORSDOF 9
ENDMDL
MODEL 12
REMARK VINA RESULT:    -4.577      2.058      7.084
REMARK INTER + INTRA:          -6.477
REMARK INTER:                  -6.426
REMARK INTRA:                  -0.051
REMARK UNBOUND:                 0.508
REMARK  9 active torsions:
REMARK  status: ('A' for Active; 'I' for Inactive)
REMARK    1  A    between atoms: C_13  and  C_16 
REMARK    2  A    between atoms: C_14  and  C_17 
REMARK    3  A    between atoms: C_15  and  C_18 
REMARK    4  A    between atoms: C_16  and  C_22 
REMARK    5  A    between atoms: C_17  and  C_23 
REMARK    6  A    between atoms: C_18  and  C_24 
REMARK    7  A    between atoms: C_19  and  C_25 
REMARK    8  A    between atoms: C_20  and  C_26 
REMARK    9  A    between atoms: C_21  and  C_27 
ROOT
HETATM    1  O   UNL     1      17.995  35.909   0.525  1.00  0.00    -0.304 OA
HETATM    2  O   UNL     1      17.703  40.839  -0.647  1.00  0.00    -0.304 OA
HETATM    3  O   UNL     1      21.288  38.171   1.220  1.00  0.00    -0.304 OA
HETATM    4  O   UNL     1      16.609  37.492  -0.989  1.00  0.00    -0.270 OA
HETATM    5  O   UNL     1      22.802  35.817   3.234  1.00  0.00    -0.270 OA
HETATM    6  O   UNL     1      19.520  39.040  -1.278  1.00  0.00    -0.270 OA
HETATM    7  O   UNL     1      18.589  34.716   2.407  1.00  0.00    -0.263 OA
HETATM    8  O   UNL     1      17.698  40.336   1.606  1.00  0.00    -0.263 OA
HETATM    9  O   UNL     1      23.470  37.598   0.765  1.00  0.00    -0.263 OA
HETATM   10  N   UNL     1      15.689  38.513   0.881  1.00  0.00    -0.340 N 
HETATM   11  N   UNL     1      21.265  35.008   1.697  1.00  0.00    -0.340 N 
HETATM   12  N   UNL     1      21.347  40.217  -0.465  1.00  0.00    -0.340 N 
HETATM   13  C   UNL     1      15.751  39.837   0.229  1.00  0.00     0.190 C 
HETATM   14  C   UNL     1      20.228  35.229   0.668  1.00  0.00     0.190 C 
HETATM   15  C   UNL     1      22.271  39.092  -0.735  1.00  0.00     0.190 C 
HETATM   16  C   UNL     1      16.681  36.223   1.034  1.00  0.00     0.227 C 
HETATM   17  C   UNL     1      19.072  41.286  -0.581  1.00  0.00     0.227 C 
HETATM   18  C   UNL     1      21.198  37.424   2.437  1.00  0.00     0.227 C 
HETATM   19  C   UNL     1      16.302  37.445   0.208  1.00  0.00     0.250 C 
HETATM   20  C   UNL     1      21.840  36.020   2.482  1.00  0.00     0.250 C 
HETATM   21  C   UNL     1      19.992  40.080  -0.803  1.00  0.00     0.250 C 
HETATM   22  C   UNL     1      18.860  35.229   1.332  1.00  0.00     0.283 C 
HETATM   23  C   UNL     1      17.153  40.359   0.510  1.00  0.00     0.283 C 
HETATM   24  C   UNL     1      22.452  38.231   0.515  1.00  0.00     0.283 C 
HETATM   25  C   UNL     1      15.132  38.411   2.231  1.00  0.00     0.153 C 
HETATM   26  C   UNL     1      21.722  33.635   1.913  1.00  0.00     0.153 C 
HETATM   27  C   UNL     1      21.919  41.383   0.217  1.00  0.00     0.153 C 
ENDROOT
BRANCH  16  28
HETATM   28  C   UNL     1      15.725  35.075   0.765  1.00  0.00     0.016 C 
HETATM   29  C   UNL     1      14.538  35.547  -0.073  1.00  0.00     0.012 C 
HETATM   30  C   UNL     1      15.242  34.458   2.076  1.00  0.00     0.012 C 
ENDBRANCH  16  28
BRANCH  14  31
HETATM   31  C   UNL     1      20.247  34.236  -0.493  1.00  0.00     0.014 C 
HETATM   32  C   UNL     1      19.037  33.304  -0.396  1.00  0.00     0.012 C 
BRANCH  31  33
HETATM   33  C   UNL     1      20.257  34.938  -1.862  1.00  0.00     0.002 C 
HETATM   34  C   UNL     1      21.526  35.735  -2.128  1.00  0.00     0.005 C 
ENDBRANCH  31  33
ENDBRANCH  14  31
BRANCH  13  35
HETATM   35  C   UNL     1      14.719  40.863   0.676  1.00  0.00     0.014 C 
HETATM   36  C   UNL     1      15.249  42.277   0.421  1.00  0.00     0.012 C 
BRANCH  35  37
HETATM   37  C   UNL     1      13.364  40.681  -0.029  1.00  0.00     0.002 C 
HETATM   38  C   UNL     1      12.520  41.948  -0.063  1.00  0.00     0.005 C 
ENDBRANCH  35  37
ENDBRANCH  13  35
BRANCH  18  39
HETATM   39  C   UNL     1      21.723  38.315   3.565  1.00  0.00     0.016 C 
HETATM   40  C   UNL     1      21.394  39.779   3.289  1.00  0.00     0.012 C 
HETATM   41  C   UNL     1      21.141  37.878   4.908  1.00  0.00     0.012 C 
ENDBRANCH  18  39
BRANCH  17  42
HETATM   42  C   UNL     1      19.262  42.303  -1.698  1.00  0.00     0.016 C 
HETATM   43  C   UNL     1      19.271  43.725  -1.138  1.00  0.00     0.012 C 
HETATM   44  C   UNL     1      18.172  42.153  -2.758  1.00  0.00     0.012 C 
ENDBRANCH  17  42
BRANCH  15  45
HETATM   45  C   UNL     1      23.616  39.535  -1.308  1.00  0.00     0.014 C 
HETATM   46  C   UNL     1      24.313  38.350  -1.986  1.00  0.00     0.012 C 
BRANCH  45  47
HETATM   47  C   UNL     1      23.478  40.697  -2.312  1.00  0.00     0.002 C 
HETATM   48  C   UNL     1      24.682  41.625  -2.334  1.00  0.00     0.005 C 
ENDBRANCH  45  47
ENDBRANCH  15  45
TORSDOF 9
ENDMDL
MODEL 13
REMARK VINA RESULT:    -4.438      2.378      3.894
REMARK INTER + INTRA:          -6.264
REMARK INTER:                  -7.492
REMARK INTRA:                   1.228
REMARK UNBOUND:                 0.508
REMARK  9 active torsions:
REMARK  status: ('A' for Active; 'I' for Inactive)
REMARK    1  A    between atoms: C_13  and  C_16 
REMARK    2  A    between atoms: C_14  and  C_17 
REMARK    3  A    between atoms: C_15  and  C_18 
REMARK    4  A    between atoms: C_16  and  C_22 
REMARK    5  A    between atoms: C_17  and  C_23 
REMARK    6  A    between atoms: C_18  and  C_24 
REMARK    7  A    between atoms: C_19  and  C_25 
REMARK    8  A    between atoms: C_20  and  C_26 
REMARK    9  A    between atoms: C_21  and  C_27 
ROOT
HETATM    1  O   UNL     1      17.808  35.375  -0.028  1.00  0.00    -0.304 OA
HETATM    2  O   UNL     1      22.667  33.921   0.192  1.00  0.00    -0.304 OA
HETATM    3  O   UNL     1      20.613  38.304   0.014  1.00  0.00    -0.304 OA
HETATM    4  O   UNL     1      19.216  33.321   0.693  1.00  0.00    -0.270 OA
HETATM    5  O   UNL     1      18.432  40.769  -1.011  1.00  0.00    -0.270 OA
HETATM    6  O   UNL     1      21.342  35.672   1.647  1.00  0.00    -0.270 OA
HETATM    7  O   UNL     1      16.585  36.761  -1.409  1.00  0.00    -0.263 OA
HETATM    8  O   UNL     1      21.959  34.769  -1.835  1.00  0.00    -0.263 OA
HETATM    9  O   UNL     1      20.541  40.258   1.226  1.00  0.00    -0.263 OA
HETATM   10  N   UNL     1      19.845  32.950  -1.509  1.00  0.00    -0.340 N 
HETATM   11  N   UNL     1      17.480  38.947   0.062  1.00  0.00    -0.340 N 
HETATM   12  N   UNL     1      22.781  37.455   1.283  1.00  0.00    -0.340 N 
HETATM   13  C   UNL     1      21.210  32.573  -1.091  1.00  0.00     0.190 C 
HETATM   14  C   UNL     1      17.585  37.599   0.658  1.00  0.00     0.190 C 
HETATM   15  C   UNL     1      21.898  38.397   2.009  1.00  0.00     0.190 C 
HETATM   16  C   UNL     1      17.800  34.283  -0.973  1.00  0.00     0.227 C 
HETATM   17  C   UNL     1      23.373  35.139   0.497  1.00  0.00     0.227 C 
HETATM   18  C   UNL     1      19.750  38.757  -1.033  1.00  0.00     0.227 C 
HETATM   19  C   UNL     1      18.994  33.455  -0.516  1.00  0.00     0.250 C 
HETATM   20  C   UNL     1      18.507  39.589  -0.648  1.00  0.00     0.250 C 
HETATM   21  C   UNL     1      22.406  36.107   1.189  1.00  0.00     0.250 C 
HETATM   22  C   UNL     1      17.243  36.560  -0.399  1.00  0.00     0.283 C 
HETATM   23  C   UNL     1      21.977  33.885  -0.988  1.00  0.00     0.283 C 
HETATM   24  C   UNL     1      20.975  39.130   1.035  1.00  0.00     0.283 C 
HETATM   25  C   UNL     1      19.504  32.913  -2.933  1.00  0.00     0.153 C 
HETATM   26  C   UNL     1      16.214  39.663   0.224  1.00  0.00     0.153 C 
HETATM   27  C   UNL     1      23.968  38.034   0.645  1.00  0.00     0.153 C 
ENDROOT
BRANCH  16  28
HETATM   28  C   UNL     1      16.513  33.488  -0.845  1.00  0.00     0.016 C 
HETATM   29  C   UNL     1      16.254  33.113   0.612  1.00  0.00     0.012 C 
HETATM   30  C   UNL     1      16.565  32.236  -1.719  1.00  0.00     0.012 C 
ENDBRANCH  16  28
BRANCH  14  31
HETATM   31  C   UNL     1      16.732  37.376   1.906  1.00  0.00     0.014 C 
HETATM   32  C   UNL     1      16.927  38.540   2.880  1.00  0.00     0.012 C 
BRANCH  31  33
HETATM   33  C   UNL     1      15.239  37.217   1.574  1.00  0.00     0.002 C 
HETATM   34  C   UNL     1      14.610  35.970   2.178  1.00  0.00     0.005 C 
ENDBRANCH  31  33
ENDBRANCH  14  31
BRANCH  13  35
HETATM   35  C   UNL     1      21.959  31.608  -2.000  1.00  0.00     0.014 C 
HETATM   36  C   UNL     1      23.468  31.818  -1.848  1.00  0.00     0.012 C 
BRANCH  35  37
HETATM   37  C   UNL     1      21.606  30.138  -1.715  1.00  0.00     0.002 C 
HETATM   38  C   UNL     1      22.667  29.404  -0.905  1.00  0.00     0.005 C 
ENDBRANCH  35  37
ENDBRANCH  13  35
BRANCH  18  39
HETATM   39  C   UNL     1      20.616  39.488  -2.060  1.00  0.00     0.016 C 
HETATM   40  C   UNL     1      21.983  38.819  -2.183  1.00  0.00     0.012 C 
HETATM   41  C   UNL     1      19.916  39.532  -3.417  1.00  0.00     0.012 C 
ENDBRANCH  18  39
BRANCH  17  42
HETATM   42  C   UNL     1      24.510  34.772   1.440  1.00  0.00     0.016 C 
HETATM   43  C   UNL     1      25.859  34.887   0.731  1.00  0.00     0.012 C 
HETATM   44  C   UNL     1      24.317  33.361   1.995  1.00  0.00     0.012 C 
ENDBRANCH  17  42
BRANCH  15  45
HETATM   45  C   UNL     1      22.657  39.375   2.904  1.00  0.00     0.014 C 
HETATM   46  C   UNL     1      21.688  40.402   3.499  1.00  0.00     0.012 C 
BRANCH  45  47
HETATM   47  C   UNL     1      23.422  38.667   4.039  1.00  0.00     0.002 C 
HETATM   48  C   UNL     1      22.522  38.182   5.165  1.00  0.00     0.005 C 
ENDBRANCH  45  47
ENDBRANCH  15  45
TORSDOF 9
ENDMDL
MODEL 14
REMARK VINA RESULT:    -4.302      2.066      6.732
REMARK INTER + INTRA:          -6.057
REMARK INTER:                  -7.095
REMARK INTRA:                   1.039
REMARK UNBOUND:                 0.508
REMARK  9 active torsions:
REMARK  status: ('A' for Active; 'I' for Inactive)
REMARK    1  A    between atoms: C_13  and  C_16 
REMARK    2  A    between atoms: C_14  and  C_17 
REMARK    3  A    between atoms: C_15  and  C_18 
REMARK    4  A    between atoms: C_16  and  C_22 
REMARK    5  A    between atoms: C_17  and  C_23 
REMARK    6  A    between atoms: C_18  and  C_24 
REMARK    7  A    between atoms: C_19  and  C_25 
REMARK    8  A    between atoms: C_20  and  C_26 
REMARK    9  A    between atoms: C_21  and  C_27 
ROOT
HETATM    1  O   UNL     1      17.771  35.750  -0.587  1.00  0.00    -0.304 OA
HETATM    2  O   UNL     1      16.379  40.410   0.867  1.00  0.00    -0.304 OA
HETATM    3  O   UNL     1      20.736  38.377   0.282  1.00  0.00    -0.304 OA
HETATM    4  O   UNL     1      15.730  37.338  -0.762  1.00  0.00    -0.270 OA
HETATM    5  O   UNL     1      23.182  35.955   0.477  1.00  0.00    -0.270 OA
HETATM    6  O   UNL     1      18.099  39.639  -0.973  1.00  0.00    -0.270 OA
HETATM    7  O   UNL     1      19.153  34.119   0.280  1.00  0.00    -0.263 OA
HETATM    8  O   UNL     1      17.237  39.050   2.524  1.00  0.00    -0.263 OA
HETATM    9  O   UNL     1      22.678  38.700  -0.909  1.00  0.00    -0.263 OA
HETATM   10  N   UNL     1      15.387  37.188   1.528  1.00  0.00    -0.340 N 
HETATM   11  N   UNL     1      21.338  35.438  -0.831  1.00  0.00    -0.340 N 
HETATM   12  N   UNL     1      19.905  40.854  -0.168  1.00  0.00    -0.340 N 
HETATM   13  C   UNL     1      15.024  38.618   1.600  1.00  0.00     0.190 C 
HETATM   14  C   UNL     1      19.985  35.751  -1.338  1.00  0.00     0.190 C 
HETATM   15  C   UNL     1      20.827  40.259  -1.163  1.00  0.00     0.190 C 
HETATM   16  C   UNL     1      16.688  35.432   0.314  1.00  0.00     0.227 C 
HETATM   17  C   UNL     1      17.604  41.167   0.803  1.00  0.00     0.227 C 
HETATM   18  C   UNL     1      21.188  37.206   0.970  1.00  0.00     0.227 C 
HETATM   19  C   UNL     1      15.872  36.718   0.298  1.00  0.00     0.250 C 
HETATM   20  C   UNL     1      22.000  36.159   0.176  1.00  0.00     0.250 C 
HETATM   21  C   UNL     1      18.552  40.481  -0.188  1.00  0.00     0.250 C 
HETATM   22  C   UNL     1      18.952  35.082  -0.445  1.00  0.00     0.283 C 
HETATM   23  C   UNL     1      16.346  39.362   1.745  1.00  0.00     0.283 C 
HETATM   24  C   UNL     1      21.557  39.055  -0.567  1.00  0.00     0.283 C 
HETATM   25  C   UNL     1      15.359  36.386   2.752  1.00  0.00     0.153 C 
HETATM   26  C   UNL     1      22.035  34.295  -1.421  1.00  0.00     0.153 C 
HETATM   27  C   UNL     1      20.505  41.749   0.826  1.00  0.00     0.153 C 
ENDROOT
BRANCH  16  28
HETATM   28  C   UNL     1      15.875  34.273  -0.231  1.00  0.00     0.016 C 
HETATM   29  C   UNL     1      15.936  33.079   0.720  1.00  0.00     0.012 C 
HETATM   30  C   UNL     1      16.366  33.875  -1.621  1.00  0.00     0.012 C 
ENDBRANCH  16  28
BRANCH  14  31
HETATM   31  C   UNL     1      19.739  35.373  -2.798  1.00  0.00     0.014 C 
HETATM   32  C   UNL     1      20.740  36.103  -3.697  1.00  0.00     0.012 C 
BRANCH  31  33
HETATM   33  C   UNL     1      19.836  33.856  -3.034  1.00  0.00     0.002 C 
HETATM   34  C   UNL     1      18.922  33.353  -4.142  1.00  0.00     0.005 C 
ENDBRANCH  31  33
ENDBRANCH  14  31
BRANCH  13  35
HETATM   35  C   UNL     1      14.078  39.024   2.722  1.00  0.00     0.014 C 
HETATM   36  C   UNL     1      14.234  40.519   3.016  1.00  0.00     0.012 C 
BRANCH  35  37
HETATM   37  C   UNL     1      12.608  38.708   2.395  1.00  0.00     0.002 C 
HETATM   38  C   UNL     1      11.615  39.463   3.268  1.00  0.00     0.005 C 
ENDBRANCH  35  37
ENDBRANCH  13  35
BRANCH  18  39
HETATM   39  C   UNL     1      21.940  37.667   2.220  1.00  0.00     0.016 C 
HETATM   40  C   UNL     1      21.294  38.922   2.802  1.00  0.00     0.012 C 
HETATM   41  C   UNL     1      21.981  36.551   3.262  1.00  0.00     0.012 C 
ENDBRANCH  18  39
BRANCH  17  42
HETATM   42  C   UNL     1      17.243  42.559   0.305  1.00  0.00     0.016 C 
HETATM   43  C   UNL     1      17.282  43.570   1.450  1.00  0.00     0.012 C 
HETATM   44  C   UNL     1      15.865  42.555  -0.357  1.00  0.00     0.012 C 
ENDBRANCH  17  42
BRANCH  15  45
HETATM   45  C   UNL     1      21.807  41.268  -1.761  1.00  0.00     0.014 C 
HETATM   46  C   UNL     1      23.153  41.186  -1.032  1.00  0.00     0.012 C 
BRANCH  45  47
HETATM   47  C   UNL     1      22.023  41.058  -3.272  1.00  0.00     0.002 C 
HETATM   48  C   UNL     1      20.878  40.323  -3.951  1.00  0.00     0.005 C 
ENDBRANCH  45  47
ENDBRANCH  15  45
TORSDOF 9
ENDMDL
MODEL 15
REMARK VINA RESULT:    -4.275      2.363      8.532
REMARK INTER + INTRA:          -6.016
REMARK INTER:                  -7.369
REMARK INTRA:                   1.354
REMARK UNBOUND:                 0.508
REMARK  9 active torsions:
REMARK  status: ('A' for Active; 'I' for Inactive)
REMARK    1  A    between atoms: C_13  and  C_16 
REMARK    2  A    between atoms: C_14  and  C_17 
REMARK    3  A    between atoms: C_15  and  C_18 
REMARK    4  A    between atoms: C_16  and  C_22 
REMARK    5  A    between atoms: C_17  and  C_23 
REMARK    6  A    between atoms: C_18  and  C_24 
REMARK    7  A    between atoms: C_19  and  C_25 
REMARK    8  A    between atoms: C_20  and  C_26 
REMARK    9  A    between atoms: C_21  and  C_27 
ROOT
HETATM    1  O   UNL     1      21.839  38.606   2.102  1.00  0.00    -0.304 OA
HETATM    2  O   UNL     1      17.372  36.336   1.288  1.00  0.00    -0.304 OA
HETATM    3  O   UNL     1      21.787  35.520  -0.529  1.00  0.00    -0.304 OA
HETATM    4  O   UNL     1      19.541  38.312   3.265  1.00  0.00    -0.270 OA
HETATM    5  O   UNL     1      24.879  36.263  -1.863  1.00  0.00    -0.270 OA
HETATM    6  O   UNL     1      19.724  35.310   1.884  1.00  0.00    -0.270 OA
HETATM    7  O   UNL     1      23.457  39.545   0.753  1.00  0.00    -0.263 OA
HETATM    8  O   UNL     1      18.162  37.657  -0.434  1.00  0.00    -0.263 OA
HETATM    9  O   UNL     1      23.334  33.824  -0.688  1.00  0.00    -0.263 OA
HETATM   10  N   UNL     1      18.514  39.561   1.600  1.00  0.00    -0.340 N 
HETATM   11  N   UNL     1      24.498  37.003   0.302  1.00  0.00    -0.340 N 
HETATM   12  N   UNL     1      19.830  33.842   0.090  1.00  0.00    -0.340 N 
HETATM   13  C   UNL     1      17.332  38.675   1.619  1.00  0.00     0.190 C 
HETATM   14  C   UNL     1      23.600  37.209   1.457  1.00  0.00     0.190 C 
HETATM   15  C   UNL     1      21.211  33.427   0.431  1.00  0.00     0.190 C 
HETATM   16  C   UNL     1      20.972  39.756   2.010  1.00  0.00     0.227 C 
HETATM   17  C   UNL     1      17.726  35.133   0.576  1.00  0.00     0.227 C 
HETATM   18  C   UNL     1      22.565  36.486  -1.243  1.00  0.00     0.227 C 
HETATM   19  C   UNL     1      19.616  39.165   2.372  1.00  0.00     0.250 C 
HETATM   20  C   UNL     1      24.082  36.555  -0.963  1.00  0.00     0.250 C 
HETATM   21  C   UNL     1      19.180  34.777   0.909  1.00  0.00     0.250 C 
HETATM   22  C   UNL     1      22.993  38.600   1.375  1.00  0.00     0.283 C 
HETATM   23  C   UNL     1      17.676  37.524   0.683  1.00  0.00     0.283 C 
HETATM   24  C   UNL     1      22.231  34.243  -0.362  1.00  0.00     0.283 C 
HETATM   25  C   UNL     1      18.529  40.705   0.687  1.00  0.00     0.153 C 
HETATM   26  C   UNL     1      25.920  37.288   0.490  1.00  0.00     0.153 C 
HETATM   27  C   UNL     1      19.268  33.285  -1.145  1.00  0.00     0.153 C 
ENDROOT
BRANCH  16  28
HETATM   28  C   UNL     1      21.386  40.809   3.022  1.00  0.00     0.016 C 
HETATM   29  C   UNL     1      21.913  42.057   2.315  1.00  0.00     0.012 C 
HETATM   30  C   UNL     1      22.438  40.252   3.979  1.00  0.00     0.012 C 
ENDBRANCH  16  28
BRANCH  14  31
HETATM   31  C   UNL     1      24.249  37.001   2.825  1.00  0.00     0.014 C 
HETATM   32  C   UNL     1      24.973  35.653   2.854  1.00  0.00     0.012 C 
BRANCH  31  33
HETATM   33  C   UNL     1      25.232  38.129   3.184  1.00  0.00     0.002 C 
HETATM   34  C   UNL     1      25.537  38.220   4.672  1.00  0.00     0.005 C 
ENDBRANCH  31  33
ENDBRANCH  14  31
BRANCH  13  35
HETATM   35  C   UNL     1      16.007  39.300   1.203  1.00  0.00     0.014 C 
HETATM   36  C   UNL     1      15.230  38.324   0.315  1.00  0.00     0.012 C 
BRANCH  35  37
HETATM   37  C   UNL     1      15.143  39.705   2.411  1.00  0.00     0.002 C 
HETATM   38  C   UNL     1      13.992  38.746   2.683  1.00  0.00     0.005 C 
ENDBRANCH  35  37
ENDBRANCH  13  35
BRANCH  18  39
HETATM   39  C   UNL     1      22.281  36.295  -2.734  1.00  0.00     0.016 C 
HETATM   40  C   UNL     1      20.826  35.890  -2.955  1.00  0.00     0.012 C 
HETATM   41  C   UNL     1      22.607  37.570  -3.510  1.00  0.00     0.012 C 
ENDBRANCH  18  39
BRANCH  17  42
HETATM   42  C   UNL     1      16.793  34.035   1.064  1.00  0.00     0.016 C 
HETATM   43  C   UNL     1      15.976  33.465  -0.095  1.00  0.00     0.012 C 
HETATM   44  C   UNL     1      15.868  34.560   2.162  1.00  0.00     0.012 C 
ENDBRANCH  17  42
BRANCH  15  45
HETATM   45  C   UNL     1      21.450  31.926   0.273  1.00  0.00     0.014 C 
HETATM   46  C   UNL     1      22.064  31.635  -1.100  1.00  0.00     0.012 C 
BRANCH  45  47
HETATM   47  C   UNL     1      22.358  31.352   1.378  1.00  0.00     0.002 C 
HETATM   48  C   UNL     1      22.931  29.984   1.041  1.00  0.00     0.005 C 
ENDBRANCH  45  47
ENDBRANCH  15  45
TORSDOF 9
ENDMDL
MODEL 16
REMARK VINA RESULT:    -4.267      4.843      8.840
REMARK INTER + INTRA:          -6.004
REMARK INTER:                  -6.101
REMARK INTRA:                   0.098
REMARK UNBOUND:                 0.508
REMARK  9 active torsions:
REMARK  status: ('A' for Active; 'I' for Inactive)
REMARK    1  A    between atoms: C_13  and  C_16 
REMARK    2  A    between atoms: C_14  and  C_17 
REMARK    3  A    between atoms: C_15  and  C_18 
REMARK    4  A    between atoms: C_16  and  C_22 
REMARK    5  A    between atoms: C_17  and  C_23 
REMARK    6  A    between atoms: C_18  and  C_24 
REMARK    7  A    between atoms: C_19  and  C_25 
REMARK    8  A    between atoms: C_20  and  C_26 
REMARK    9  A    between atoms: C_21  and  C_27 
ROOT
HETATM    1  O   UNL     1      22.666  33.054  -0.051  1.00  0.00    -0.304 OA
HETATM    2  O   UNL     1      23.626  32.094  -4.943  1.00  0.00    -0.304 OA
HETATM    3  O   UNL     1      20.028  34.502  -2.770  1.00  0.00    -0.304 OA
HETATM    4  O   UNL     1      24.665  32.425  -1.578  1.00  0.00    -0.270 OA
HETATM    5  O   UNL     1      17.579  35.159  -0.434  1.00  0.00    -0.270 OA
HETATM    6  O   UNL     1      23.059  34.362  -3.728  1.00  0.00    -0.270 OA
HETATM    7  O   UNL     1      20.851  32.754   1.340  1.00  0.00    -0.263 OA
HETATM    8  O   UNL     1      21.867  30.924  -4.011  1.00  0.00    -0.263 OA
HETATM    9  O   UNL     1      19.063  36.591  -2.771  1.00  0.00    -0.263 OA
HETATM   10  N   UNL     1      23.726  30.344  -1.989  1.00  0.00    -0.340 N 
HETATM   11  N   UNL     1      19.759  35.118   0.358  1.00  0.00    -0.340 N 
HETATM   12  N   UNL     1      21.261  34.938  -5.077  1.00  0.00    -0.340 N 
HETATM   13  C   UNL     1      24.164  30.388  -3.399  1.00  0.00     0.190 C 
HETATM   14  C   UNL     1      21.201  34.864   0.158  1.00  0.00     0.190 C 
HETATM   15  C   UNL     1      20.939  36.123  -4.248  1.00  0.00     0.190 C 
HETATM   16  C   UNL     1      23.063  31.668   0.025  1.00  0.00     0.227 C 
HETATM   17  C   UNL     1      22.720  32.968  -5.645  1.00  0.00     0.227 C 
HETATM   18  C   UNL     1      19.146  33.941  -1.794  1.00  0.00     0.227 C 
HETATM   19  C   UNL     1      23.911  31.508  -1.230  1.00  0.00     0.250 C 
HETATM   20  C   UNL     1      18.757  34.807  -0.576  1.00  0.00     0.250 C 
HETATM   21  C   UNL     1      22.365  34.144  -4.728  1.00  0.00     0.250 C 
HETATM   22  C   UNL     1      21.518  33.438   0.578  1.00  0.00     0.283 C 
HETATM   23  C   UNL     1      23.065  31.141  -4.138  1.00  0.00     0.283 C 
HETATM   24  C   UNL     1      19.867  35.780  -3.213  1.00  0.00     0.283 C 
HETATM   25  C   UNL     1      23.007  29.163  -1.506  1.00  0.00     0.153 C 
HETATM   26  C   UNL     1      19.348  35.735   1.618  1.00  0.00     0.153 C 
HETATM   27  C   UNL     1      20.338  34.641  -6.177  1.00  0.00     0.153 C 
ENDROOT
BRANCH  16  28
HETATM   28  C   UNL     1      23.896  31.428   1.271  1.00  0.00     0.016 C 
HETATM   29  C   UNL     1      24.961  32.512   1.425  1.00  0.00     0.012 C 
HETATM   30  C   UNL     1      24.542  30.044   1.229  1.00  0.00     0.012 C 
ENDBRANCH  16  28
BRANCH  14  31
HETATM   31  C   UNL     1      22.133  35.840   0.873  1.00  0.00     0.014 C 
HETATM   32  C   UNL     1      22.670  35.198   2.155  1.00  0.00     0.012 C 
BRANCH  31  33
HETATM   33  C   UNL     1      23.306  36.288  -0.016  1.00  0.00     0.002 C 
HETATM   34  C   UNL     1      22.870  37.047  -1.262  1.00  0.00     0.005 C 
ENDBRANCH  31  33
ENDBRANCH  14  31
BRANCH  13  35
HETATM   35  C   UNL     1      24.415  29.048  -4.076  1.00  0.00     0.014 C 
HETATM   36  C   UNL     1      24.502  29.241  -5.592  1.00  0.00     0.012 C 
BRANCH  35  37
HETATM   37  C   UNL     1      25.694  28.361  -3.564  1.00  0.00     0.002 C 
HETATM   38  C   UNL     1      25.722  26.860  -3.820  1.00  0.00     0.005 C 
ENDBRANCH  35  37
ENDBRANCH  13  35
BRANCH  18  39
HETATM   39  C   UNL     1      17.908  33.427  -2.532  1.00  0.00     0.016 C 
HETATM   40  C   UNL     1      18.274  32.981  -3.946  1.00  0.00     0.012 C 
HETATM   41  C   UNL     1      17.260  32.280  -1.759  1.00  0.00     0.012 C 
ENDBRANCH  18  39
BRANCH  17  42
HETATM   42  C   UNL     1      23.454  33.470  -6.881  1.00  0.00     0.016 C 
HETATM   43  C   UNL     1      23.725  32.322  -7.852  1.00  0.00     0.012 C 
HETATM   44  C   UNL     1      24.760  34.160  -6.491  1.00  0.00     0.012 C 
ENDBRANCH  17  42
BRANCH  15  45
HETATM   45  C   UNL     1      20.552  37.351  -5.069  1.00  0.00     0.014 C 
HETATM   46  C   UNL     1      20.638  38.611  -4.200  1.00  0.00     0.012 C 
BRANCH  45  47
HETATM   47  C   UNL     1      21.431  37.527  -6.322  1.00  0.00     0.002 C 
HETATM   48  C   UNL     1      22.859  37.945  -6.007  1.00  0.00     0.005 C 
ENDBRANCH  45  47
ENDBRANCH  15  45
TORSDOF 9
ENDMDL
MODEL 17
REMARK VINA RESULT:    -4.229      2.490      7.740
REMARK INTER + INTRA:          -5.946
REMARK INTER:                  -6.813
REMARK INTRA:                   0.868
REMARK UNBOUND:                 0.508
REMARK  9 active torsions:
REMARK  status: ('A' for Active; 'I' for Inactive)
REMARK    1  A    between atoms: C_13  and  C_16 
REMARK    2  A    between atoms: C_14  and  C_17 
REMARK    3  A    between atoms: C_15  and  C_18 
REMARK    4  A    between atoms: C_16  and  C_22 
REMARK    5  A    between atoms: C_17  and  C_23 
REMARK    6  A    between atoms: C_18  and  C_24 
REMARK    7  A    between atoms: C_19  and  C_25 
REMARK    8  A    between atoms: C_20  and  C_26 
REMARK    9  A    between atoms: C_21  and  C_27 
ROOT
HETATM    1  O   UNL     1      16.742  36.151   0.599  1.00  0.00    -0.304 OA
HETATM    2  O   UNL     1      17.941  40.112  -2.341  1.00  0.00    -0.304 OA
HETATM    3  O   UNL     1      20.597  36.442  -0.626  1.00  0.00    -0.304 OA
HETATM    4  O   UNL     1      15.585  37.853  -0.978  1.00  0.00    -0.270 OA
HETATM    5  O   UNL     1      21.772  34.148   1.664  1.00  0.00    -0.270 OA
HETATM    6  O   UNL     1      18.415  37.541  -2.665  1.00  0.00    -0.270 OA
HETATM    7  O   UNL     1      17.578  35.267   2.558  1.00  0.00    -0.263 OA
HETATM    8  O   UNL     1      18.732  40.189  -0.174  1.00  0.00    -0.263 OA
HETATM    9  O   UNL     1      21.927  34.729  -1.395  1.00  0.00    -0.263 OA
HETATM   10  N   UNL     1      16.072  39.581   0.491  1.00  0.00    -0.340 N 
HETATM   11  N   UNL     1      19.536  33.952   1.080  1.00  0.00    -0.340 N 
HETATM   12  N   UNL     1      20.711  37.731  -2.940  1.00  0.00    -0.340 N 
HETATM   13  C   UNL     1      16.358  40.498  -0.631  1.00  0.00     0.190 C 
HETATM   14  C   UNL     1      18.335  34.454   0.380  1.00  0.00     0.190 C 
HETATM   15  C   UNL     1      20.891  36.261  -2.976  1.00  0.00     0.190 C 
HETATM   16  C   UNL     1      16.032  37.209   1.278  1.00  0.00     0.227 C 
HETATM   17  C   UNL     1      19.250  39.778  -2.845  1.00  0.00     0.227 C 
HETATM   18  C   UNL     1      20.765  36.138   0.762  1.00  0.00     0.227 C 
HETATM   19  C   UNL     1      15.846  38.235   0.168  1.00  0.00     0.250 C 
HETATM   20  C   UNL     1      20.746  34.655   1.193  1.00  0.00     0.250 C 
HETATM   21  C   UNL     1      19.416  38.254  -2.804  1.00  0.00     0.250 C 
HETATM   22  C   UNL     1      17.525  35.314   1.338  1.00  0.00     0.283 C 
HETATM   23  C   UNL     1      17.819  40.256  -0.987  1.00  0.00     0.283 C 
HETATM   24  C   UNL     1      21.247  35.729  -1.587  1.00  0.00     0.283 C 
HETATM   25  C   UNL     1      16.178  40.083   1.862  1.00  0.00     0.153 C 
HETATM   26  C   UNL     1      19.456  32.628   1.698  1.00  0.00     0.153 C 
HETATM   27  C   UNL     1      21.934  38.539  -2.978  1.00  0.00     0.153 C 
ENDROOT
BRANCH  16  28
HETATM   28  C   UNL     1      14.689  36.706   1.775  1.00  0.00     0.016 C 
HETATM   29  C   UNL     1      13.743  36.448   0.604  1.00  0.00     0.012 C 
HETATM   30  C   UNL     1      14.069  37.701   2.754  1.00  0.00     0.012 C 
ENDBRANCH  16  28
BRANCH  14  31
HETATM   31  C   UNL     1      17.445  33.374  -0.233  1.00  0.00     0.014 C 
HETATM   32  C   UNL     1      16.170  33.219   0.600  1.00  0.00     0.012 C 
BRANCH  31  33
HETATM   33  C   UNL     1      17.080  33.678  -1.696  1.00  0.00     0.002 C 
HETATM   34  C   UNL     1      16.727  32.439  -2.506  1.00  0.00     0.005 C 
ENDBRANCH  31  33
ENDBRANCH  14  31
BRANCH  13  35
HETATM   35  C   UNL     1      16.130  41.981  -0.372  1.00  0.00     0.014 C 
HETATM   36  C   UNL     1      16.934  42.812  -1.377  1.00  0.00     0.012 C 
BRANCH  35  37
HETATM   37  C   UNL     1      14.643  42.370  -0.447  1.00  0.00     0.002 C 
HETATM   38  C   UNL     1      14.411  43.801  -0.912  1.00  0.00     0.005 C 
ENDBRANCH  35  37
ENDBRANCH  13  35
BRANCH  18  39
HETATM   39  C   UNL     1      22.037  36.842   1.237  1.00  0.00     0.016 C 
HETATM   40  C   UNL     1      22.178  38.206   0.565  1.00  0.00     0.012 C 
HETATM   41  C   UNL     1      22.032  36.990   2.757  1.00  0.00     0.012 C 
ENDBRANCH  18  39
BRANCH  17  42
HETATM   42  C   UNL     1      19.314  40.273  -4.283  1.00  0.00     0.016 C 
HETATM   43  C   UNL     1      20.093  41.585  -4.369  1.00  0.00     0.012 C 
HETATM   44  C   UNL     1      17.909  40.447  -4.858  1.00  0.00     0.012 C 
ENDBRANCH  17  42
BRANCH  15  45
HETATM   45  C   UNL     1      21.897  35.798  -4.027  1.00  0.00     0.014 C 
HETATM   46  C   UNL     1      21.436  36.234  -5.422  1.00  0.00     0.012 C 
BRANCH  45  47
HETATM   47  C   UNL     1      23.319  36.331  -3.763  1.00  0.00     0.002 C 
HETATM   48  C   UNL     1      24.236  36.238  -4.972  1.00  0.00     0.005 C 
ENDBRANCH  45  47
ENDBRANCH  15  45
TORSDOF 9
ENDMDL
MODEL 18
REMARK VINA RESULT:    -4.113      2.261      5.316
REMARK INTER + INTRA:          -5.769
REMARK INTER:                  -7.449
REMARK INTRA:                   1.681
REMARK UNBOUND:                 0.508
REMARK  9 active torsions:
REMARK  status: ('A' for Active; 'I' for Inactive)
REMARK    1  A    between atoms: C_13  and  C_16 
REMARK    2  A    between atoms: C_14  and  C_17 
REMARK    3  A    between atoms: C_15  and  C_18 
REMARK    4  A    between atoms: C_16  and  C_22 
REMARK    5  A    between atoms: C_17  and  C_23 
REMARK    6  A    between atoms: C_18  and  C_24 
REMARK    7  A    between atoms: C_19  and  C_25 
REMARK    8  A    between atoms: C_20  and  C_26 
REMARK    9  A    between atoms: C_21  and  C_27 
ROOT
HETATM    1  O   UNL     1      18.364  37.199   0.888  1.00  0.00    -0.304 OA
HETATM    2  O   UNL     1      18.955  42.020   2.366  1.00  0.00    -0.304 OA
HETATM    3  O   UNL     1      15.313  39.756   0.114  1.00  0.00    -0.304 OA
HETATM    4  O   UNL     1      19.760  38.582   2.581  1.00  0.00    -0.270 OA
HETATM    5  O   UNL     1      13.766  37.644  -2.130  1.00  0.00    -0.270 OA
HETATM    6  O   UNL     1      16.964  40.343   2.770  1.00  0.00    -0.270 OA
HETATM    7  O   UNL     1      17.812  36.161  -1.096  1.00  0.00    -0.263 OA
HETATM    8  O   UNL     1      19.078  41.639   0.092  1.00  0.00    -0.263 OA
HETATM    9  O   UNL     1      13.067  39.339   0.391  1.00  0.00    -0.263 OA
HETATM   10  N   UNL     1      20.884  39.623   0.838  1.00  0.00    -0.340 N 
HETATM   11  N   UNL     1      15.125  36.631  -0.547  1.00  0.00    -0.340 N 
HETATM   12  N   UNL     1      15.295  41.707   1.909  1.00  0.00    -0.340 N 
HETATM   13  C   UNL     1      20.880  40.910   1.562  1.00  0.00     0.190 C 
HETATM   14  C   UNL     1      16.101  36.712   0.560  1.00  0.00     0.190 C 
HETATM   15  C   UNL     1      14.270  40.647   2.052  1.00  0.00     0.190 C 
HETATM   16  C   UNL     1      19.731  37.433   0.486  1.00  0.00     0.227 C 
HETATM   17  C   UNL     1      17.633  42.579   2.237  1.00  0.00     0.227 C 
HETATM   18  C   UNL     1      15.429  39.070  -1.137  1.00  0.00     0.227 C 
HETATM   19  C   UNL     1      20.145  38.574   1.405  1.00  0.00     0.250 C 
HETATM   20  C   UNL     1      14.685  37.727  -1.306  1.00  0.00     0.250 C 
HETATM   21  C   UNL     1      16.609  41.442   2.327  1.00  0.00     0.250 C 
HETATM   22  C   UNL     1      17.508  36.636  -0.012  1.00  0.00     0.283 C 
HETATM   23  C   UNL     1      19.545  41.560   1.221  1.00  0.00     0.283 C 
HETATM   24  C   UNL     1      14.111  39.872   0.744  1.00  0.00     0.283 C 
HETATM   25  C   UNL     1      21.525  39.549  -0.476  1.00  0.00     0.153 C 
HETATM   26  C   UNL     1      14.578  35.313  -0.872  1.00  0.00     0.153 C 
HETATM   27  C   UNL     1      14.864  42.950   1.262  1.00  0.00     0.153 C 
ENDROOT
BRANCH  16  28
HETATM   28  C   UNL     1      20.574  36.198   0.748  1.00  0.00     0.016 C 
HETATM   29  C   UNL     1      20.940  35.507  -0.563  1.00  0.00     0.012 C 
HETATM   30  C   UNL     1      19.841  35.231   1.677  1.00  0.00     0.012 C 
ENDBRANCH  16  28
BRANCH  14  31
HETATM   31  C   UNL     1      15.924  35.663   1.656  1.00  0.00     0.014 C 
HETATM   32  C   UNL     1      14.787  36.081   2.592  1.00  0.00     0.012 C 
BRANCH  31  33
HETATM   33  C   UNL     1      15.643  34.262   1.086  1.00  0.00     0.002 C 
HETATM   34  C   UNL     1      16.865  33.355   1.069  1.00  0.00     0.005 C 
ENDBRANCH  31  33
ENDBRANCH  14  31
BRANCH  13  35
HETATM   35  C   UNL     1      22.017  41.872   1.244  1.00  0.00     0.014 C 
HETATM   36  C   UNL     1      21.605  43.300   1.612  1.00  0.00     0.012 C 
BRANCH  35  37
HETATM   37  C   UNL     1      23.321  41.502   1.973  1.00  0.00     0.002 C 
HETATM   38  C   UNL     1      24.184  42.707   2.324  1.00  0.00     0.005 C 
ENDBRANCH  35  37
ENDBRANCH  13  35
BRANCH  18  39
HETATM   39  C   UNL     1      15.056  40.060  -2.242  1.00  0.00     0.016 C 
HETATM   40  C   UNL     1      15.544  41.463  -1.892  1.00  0.00     0.012 C 
HETATM   41  C   UNL     1      15.632  39.609  -3.583  1.00  0.00     0.012 C 
ENDBRANCH  18  39
BRANCH  17  42
HETATM   42  C   UNL     1      17.444  43.547   3.397  1.00  0.00     0.016 C 
HETATM   43  C   UNL     1      17.263  44.976   2.885  1.00  0.00     0.012 C 
HETATM   44  C   UNL     1      18.626  43.471   4.363  1.00  0.00     0.012 C 
ENDBRANCH  17  42
BRANCH  15  45
HETATM   45  C   UNL     1      12.927  41.167   2.561  1.00  0.00     0.014 C 
HETATM   46  C   UNL     1      12.126  41.772   1.403  1.00  0.00     0.012 C 
BRANCH  45  47
HETATM   47  C   UNL     1      12.092  40.072   3.252  1.00  0.00     0.002 C 
HETATM   48  C   UNL     1      10.720  40.550   3.702  1.00  0.00     0.005 C 
ENDBRANCH  45  47
ENDBRANCH  15  45
TORSDOF 9
ENDMDL
MODEL 19
REMARK VINA RESULT:    -4.100      2.438      8.124
REMARK INTER + INTRA:          -5.748
REMARK INTER:                  -6.290
REMARK INTRA:                   0.541
REMARK UNBOUND:                 0.508
REMARK  9 active torsions:
REMARK  status: ('A' for Active; 'I' for Inactive)
REMARK    1  A    between atoms: C_13  and  C_16 
REMARK    2  A    between atoms: C_14  and  C_17 
REMARK    3  A    between atoms: C_15  and  C_18 
REMARK    4  A    between atoms: C_16  and  C_22 
REMARK    5  A    between atoms: C_17  and  C_23 
REMARK    6  A    between atoms: C_18  and  C_24 
REMARK    7  A    between atoms: C_19  and  C_25 
REMARK    8  A    between atoms: C_20  and  C_26 
REMARK    9  A    between atoms: C_21  and  C_27 
ROOT
HETATM    1  O   UNL     1      21.685  38.524   1.194  1.00  0.00    -0.304 OA
HETATM    2  O   UNL     1      17.193  40.015  -0.642  1.00  0.00    -0.304 OA
HETATM    3  O   UNL     1      19.245  35.642  -0.284  1.00  0.00    -0.304 OA
HETATM    4  O   UNL     1      20.041  40.519   1.396  1.00  0.00    -0.270 OA
HETATM    5  O   UNL     1      21.729  33.257  -0.450  1.00  0.00    -0.270 OA
HETATM    6  O   UNL     1      17.786  38.116   1.085  1.00  0.00    -0.270 OA
HETATM    7  O   UNL     1      23.436  37.261   0.383  1.00  0.00    -0.263 OA
HETATM    8  O   UNL     1      18.755  39.353  -2.209  1.00  0.00    -0.263 OA
HETATM    9  O   UNL     1      18.831  33.580   0.650  1.00  0.00    -0.263 OA
HETATM   10  N   UNL     1      20.446  41.106  -0.812  1.00  0.00    -0.340 N 
HETATM   11  N   UNL     1      22.049  34.956   1.096  1.00  0.00    -0.340 N 
HETATM   12  N   UNL     1      16.714  36.394  -0.043  1.00  0.00    -0.340 N 
HETATM   13  C   UNL     1      19.026  41.459  -1.013  1.00  0.00     0.190 C 
HETATM   14  C   UNL     1      21.648  36.243   1.703  1.00  0.00     0.190 C 
HETATM   15  C   UNL     1      17.211  35.376   0.912  1.00  0.00     0.190 C 
HETATM   16  C   UNL     1      22.079  39.701   0.456  1.00  0.00     0.227 C 
HETATM   17  C   UNL     1      16.463  38.782  -0.796  1.00  0.00     0.227 C 
HETATM   18  C   UNL     1      20.498  35.279  -0.873  1.00  0.00     0.227 C 
HETATM   19  C   UNL     1      20.782  40.497   0.406  1.00  0.00     0.250 C 
HETATM   20  C   UNL     1      21.464  34.398  -0.052  1.00  0.00     0.250 C 
HETATM   21  C   UNL     1      17.051  37.741   0.163  1.00  0.00     0.250 C 
HETATM   22  C   UNL     1      22.392  37.373   1.008  1.00  0.00     0.283 C 
HETATM   23  C   UNL     1      18.335  40.153  -1.383  1.00  0.00     0.283 C 
HETATM   24  C   UNL     1      18.492  34.728   0.389  1.00  0.00     0.283 C 
HETATM   25  C   UNL     1      21.383  41.273  -1.924  1.00  0.00     0.153 C 
HETATM   26  C   UNL     1      23.132  34.212   1.739  1.00  0.00     0.153 C 
HETATM   27  C   UNL     1      15.954  35.894  -1.193  1.00  0.00     0.153 C 
ENDROOT
BRANCH  16  28
HETATM   28  C   UNL     1      23.150  40.464   1.215  1.00  0.00     0.016 C 
HETATM   29  C   UNL     1      22.645  41.850   1.611  1.00  0.00     0.012 C 
HETATM   30  C   UNL     1      24.425  40.577   0.381  1.00  0.00     0.012 C 
ENDBRANCH  16  28
BRANCH  14  31
HETATM   31  C   UNL     1      21.849  36.335   3.214  1.00  0.00     0.014 C 
HETATM   32  C   UNL     1      23.020  37.271   3.524  1.00  0.00     0.012 C 
BRANCH  31  33
HETATM   33  C   UNL     1      20.585  36.821   3.944  1.00  0.00     0.002 C 
HETATM   34  C   UNL     1      20.750  38.179   4.610  1.00  0.00     0.005 C 
ENDBRANCH  31  33
ENDBRANCH  14  31
BRANCH  13  35
HETATM   35  C   UNL     1      18.731  42.516  -2.069  1.00  0.00     0.014 C 
HETATM   36  C   UNL     1      17.285  42.376  -2.552  1.00  0.00     0.012 C 
BRANCH  35  37
HETATM   37  C   UNL     1      18.972  43.945  -1.554  1.00  0.00     0.002 C 
HETATM   38  C   UNL     1      19.984  44.727  -2.381  1.00  0.00     0.005 C 
ENDBRANCH  35  37
ENDBRANCH  13  35
BRANCH  18  39
HETATM   39  C   UNL     1      20.201  34.661  -2.241  1.00  0.00     0.016 C 
HETATM   40  C   UNL     1      18.910  35.232  -2.820  1.00  0.00     0.012 C 
HETATM   41  C   UNL     1      21.369  34.893  -3.198  1.00  0.00     0.012 C 
ENDBRANCH  18  39
BRANCH  17  42
HETATM   42  C   UNL     1      15.014  39.073  -0.429  1.00  0.00     0.016 C 
HETATM   43  C   UNL     1      14.151  39.189  -1.685  1.00  0.00     0.012 C 
HETATM   44  C   UNL     1      14.915  40.349   0.406  1.00  0.00     0.012 C 
ENDBRANCH  17  42
BRANCH  15  45
HETATM   45  C   UNL     1      16.163  34.328   1.282  1.00  0.00     0.014 C 
HETATM   46  C   UNL     1      15.149  34.924   2.265  1.00  0.00     0.012 C 
BRANCH  45  47
HETATM   47  C   UNL     1      15.424  33.770   0.050  1.00  0.00     0.002 C 
HETATM   48  C   UNL     1      15.744  32.312  -0.240  1.00  0.00     0.005 C 
ENDBRANCH  45  47
ENDBRANCH  15  45
TORSDOF 9
ENDMDL
MODEL 20
REMARK VINA RESULT:    -4.096      2.255      2.938
REMARK INTER + INTRA:          -5.742
REMARK INTER:                  -7.283
REMARK INTRA:                   1.540
REMARK UNBOUND:                 0.508
REMARK  9 active torsions:
REMARK  status: ('A' for Active; 'I' for Inactive)
REMARK    1  A    between atoms: C_13  and  C_16 
REMARK    2  A    between atoms: C_14  and  C_17 
REMARK    3  A    between atoms: C_15  and  C_18 
REMARK    4  A    between atoms: C_16  and  C_22 
REMARK    5  A    between atoms: C_17  and  C_23 
REMARK    6  A    between atoms: C_18  and  C_24 
REMARK    7  A    between atoms: C_19  and  C_25 
REMARK    8  A    between atoms: C_20  and  C_26 
REMARK    9  A    between atoms: C_21  and  C_27 
ROOT
HETATM    1  O   UNL     1      17.810  35.087  -0.207  1.00  0.00    -0.304 OA
HETATM    2  O   UNL     1      22.433  35.108   1.890  1.00  0.00    -0.304 OA
HETATM    3  O   UNL     1      20.054  38.426  -0.716  1.00  0.00    -0.304 OA
HETATM    4  O   UNL     1      19.120  33.885   1.680  1.00  0.00    -0.270 OA
HETATM    5  O   UNL     1      18.080  39.685  -3.247  1.00  0.00    -0.270 OA
HETATM    6  O   UNL     1      20.487  36.879   2.030  1.00  0.00    -0.270 OA
HETATM    7  O   UNL     1      16.979  35.493  -2.320  1.00  0.00    -0.263 OA
HETATM    8  O   UNL     1      22.369  34.924  -0.411  1.00  0.00    -0.263 OA
HETATM    9  O   UNL     1      19.334  40.605  -0.546  1.00  0.00    -0.263 OA
HETATM   10  N   UNL     1      20.508  32.887   0.112  1.00  0.00    -0.340 N 
HETATM   11  N   UNL     1      17.043  38.222  -1.776  1.00  0.00    -0.340 N 
HETATM   12  N   UNL     1      21.738  38.697   1.314  1.00  0.00    -0.340 N 
HETATM   13  C   UNL     1      21.680  33.055   0.994  1.00  0.00     0.190 C 
HETATM   14  C   UNL     1      17.097  37.271  -0.647  1.00  0.00     0.190 C 
HETATM   15  C   UNL     1      20.552  39.585   1.297  1.00  0.00     0.190 C 
HETATM   16  C   UNL     1      18.258  33.757  -0.545  1.00  0.00     0.227 C 
HETATM   17  C   UNL     1      22.839  36.488   1.805  1.00  0.00     0.227 C 
HETATM   18  C   UNL     1      19.556  38.218  -2.041  1.00  0.00     0.227 C 
HETATM   19  C   UNL     1      19.312  33.494   0.522  1.00  0.00     0.250 C 
HETATM   20  C   UNL     1      18.167  38.789  -2.398  1.00  0.00     0.250 C 
HETATM   21  C   UNL     1      21.583  37.364   1.724  1.00  0.00     0.250 C 
HETATM   22  C   UNL     1      17.268  35.861  -1.191  1.00  0.00     0.283 C 
HETATM   23  C   UNL     1      22.201  34.458   0.709  1.00  0.00     0.283 C 
HETATM   24  C   UNL     1      19.941  39.638  -0.104  1.00  0.00     0.283 C 
HETATM   25  C   UNL     1      20.684  32.233  -1.187  1.00  0.00     0.153 C 
HETATM   26  C   UNL     1      15.722  38.599  -2.280  1.00  0.00     0.153 C 
HETATM   27  C   UNL     1      22.993  39.275   0.822  1.00  0.00     0.153 C 
ENDROOT
BRANCH  16  28
HETATM   28  C   UNL     1      17.112  32.770  -0.424  1.00  0.00     0.016 C 
HETATM   29  C   UNL     1      16.529  32.451  -1.799  1.00  0.00     0.012 C 
HETATM   30  C   UNL     1      16.028  33.313   0.505  1.00  0.00     0.012 C 
ENDBRANCH  16  28
BRANCH  14  31
HETATM   31  C   UNL     1      15.901  37.324   0.302  1.00  0.00     0.014 C 
HETATM   32  C   UNL     1      14.796  36.395  -0.207  1.00  0.00     0.012 C 
BRANCH  31  33
HETATM   33  C   UNL     1      16.280  36.943   1.744  1.00  0.00     0.002 C 
HETATM   34  C   UNL     1      15.137  36.316   2.529  1.00  0.00     0.005 C 
ENDBRANCH  31  33
ENDBRANCH  14  31
BRANCH  13  35
HETATM   35  C   UNL     1      22.806  32.044   0.829  1.00  0.00     0.014 C 
HETATM   36  C   UNL     1      24.085  32.582   1.477  1.00  0.00     0.012 C 
BRANCH  35  37
HETATM   37  C   UNL     1      22.457  30.671   1.428  1.00  0.00     0.002 C 
HETATM   38  C   UNL     1      23.180  29.511   0.755  1.00  0.00     0.005 C 
ENDBRANCH  35  37
ENDBRANCH  13  35
BRANCH  18  39
HETATM   39  C   UNL     1      20.629  38.704  -3.018  1.00  0.00     0.016 C 
HETATM   40  C   UNL     1      22.022  38.515  -2.423  1.00  0.00     0.012 C 
HETATM   41  C   UNL     1      20.510  37.970  -4.352  1.00  0.00     0.012 C 
ENDBRANCH  18  39
BRANCH  17  42
HETATM   42  C   UNL     1      23.617  36.803   3.074  1.00  0.00     0.016 C 
HETATM   43  C   UNL     1      22.750  37.587   4.059  1.00  0.00     0.012 C 
HETATM   44  C   UNL     1      24.892  37.581   2.748  1.00  0.00     0.012 C 
ENDBRANCH  17  42
BRANCH  15  45
HETATM   45  C   UNL     1      20.834  40.985   1.838  1.00  0.00     0.014 C 
HETATM   46  C   UNL     1      21.437  40.892   3.244  1.00  0.00     0.012 C 
BRANCH  45  47
HETATM   47  C   UNL     1      21.774  41.795   0.924  1.00  0.00     0.002 C 
HETATM   48  C   UNL     1      21.434  43.277   0.866  1.00  0.00     0.005 C 
ENDBRANCH  45  47
ENDBRANCH  15  45
TORSDOF 9
ENDMDL
