MODEL 1
REMARK VINA RESULT:    -6.892      0.000      0.000
REMARK INTER + INTRA:          -9.548
REMARK INTER:                 -10.518
REMARK INTRA:                   0.970
REMARK UNBOUND:                 0.970
REMARK  9 active torsions:
REMARK  status: ('A' for Active; 'I' for Inactive)
REMARK    1  A    between atoms: C_13  and  C_16 
REMARK    2  A    between atoms: C_14  and  C_17 
REMARK    3  A    between atoms: C_15  and  C_18 
REMARK    4  A    between atoms: C_16  and  C_22 
REMARK    5  A    between atoms: C_17  and  C_23 
REMARK    6  A    between atoms: C_18  and  C_24 
REMARK    7  A    between atoms: C_19  and  C_25 
REMARK    8  A    between atoms: C_20  and  C_26 
REMARK    9  A    between atoms: C_21  and  C_27 
ROOT
HETATM    1  O   UNL     1      30.339  25.872   9.242  1.00  0.00    -0.304 OA
HETATM    2  O   UNL     1      34.032  29.239  10.131  1.00  0.00    -0.304 OA
HETATM    3  O   UNL     1      31.360  28.342   6.192  1.00  0.00    -0.304 OA
HETATM    4  O   UNL     1      31.489  27.047  11.246  1.00  0.00    -0.270 OA
HETATM    5  O   UNL     1      29.742  26.473   3.789  1.00  0.00    -0.270 OA
HETATM    6  O   UNL     1      31.625  29.574   9.113  1.00  0.00    -0.270 OA
HETATM    7  O   UNL     1      29.952  24.270   7.628  1.00  0.00    -0.263 OA
HETATM    8  O   UNL     1      34.588  27.473   8.752  1.00  0.00    -0.263 OA
HETATM    9  O   UNL     1      29.921  29.429   4.763  1.00  0.00    -0.263 OA
HETATM   10  N   UNL     1      33.467  25.918  10.803  1.00  0.00    -0.340 N 
HETATM   11  N   UNL     1      28.947  26.255   5.957  1.00  0.00    -0.340 N 
HETATM   12  N   UNL     1      32.312  30.620   7.159  1.00  0.00    -0.340 N 
HETATM   13  C   UNL     1      34.264  27.115  11.140  1.00  0.00     0.190 C 
HETATM   14  C   UNL     1      29.051  26.531   7.405  1.00  0.00     0.190 C 
HETATM   15  C   UNL     1      30.936  30.640   6.613  1.00  0.00     0.190 C 
HETATM   16  C   UNL     1      31.282  25.046   9.958  1.00  0.00     0.227 C 
HETATM   17  C   UNL     1      33.950  30.139   9.008  1.00  0.00     0.227 C 
HETATM   18  C   UNL     1      31.296  27.080   5.522  1.00  0.00     0.227 C 
HETATM   19  C   UNL     1      32.075  26.077  10.750  1.00  0.00     0.250 C 
HETATM   20  C   UNL     1      29.924  26.594   5.007  1.00  0.00     0.250 C 
HETATM   21  C   UNL     1      32.529  30.080   8.436  1.00  0.00     0.250 C 
HETATM   22  C   UNL     1      29.818  25.400   8.072  1.00  0.00     0.283 C 
HETATM   23  C   UNL     1      34.326  27.932   9.856  1.00  0.00     0.283 C 
HETATM   24  C   UNL     1      30.697  29.430   5.710  1.00  0.00     0.283 C 
HETATM   25  C   UNL     1      34.161  24.690  10.411  1.00  0.00     0.153 C 
HETATM   26  C   UNL     1      27.738  25.581   5.481  1.00  0.00     0.153 C 
HETATM   27  C   UNL     1      33.373  31.110   6.273  1.00  0.00     0.153 C 
ENDROOT
BRANCH  16  28
HETATM   28  C   UNL     1      30.549  24.099  10.891  1.00  0.00     0.016 C 
HETATM   29  C   UNL     1      30.569  22.675  10.338  1.00  0.00     0.012 C 
HETATM   30  C   UNL     1      29.112  24.566  11.113  1.00  0.00     0.012 C 
ENDBRANCH  16  28
BRANCH  14  31
HETATM   31  C   UNL     1      27.719  26.752   8.119  1.00  0.00     0.014 C 
HETATM   32  C   UNL     1      27.293  25.466   8.830  1.00  0.00     0.012 C 
BRANCH  31  33
HETATM   33  C   UNL     1      27.781  27.911   9.128  1.00  0.00     0.002 C 
HETATM   34  C   UNL     1      28.105  29.256   8.493  1.00  0.00     0.005 C 
ENDBRANCH  31  33
ENDBRANCH  14  31
BRANCH  13  35
HETATM   35  C   UNL     1      35.672  26.869  11.663  1.00  0.00     0.014 C 
HETATM   36  C   UNL     1      36.699  27.323  10.622  1.00  0.00     0.012 C 
BRANCH  35  37
HETATM   37  C   UNL     1      35.937  27.585  13.000  1.00  0.00     0.002 C 
HETATM   38  C   UNL     1      35.605  29.071  12.970  1.00  0.00     0.005 C 
ENDBRANCH  35  37
ENDBRANCH  13  35
BRANCH  18  39
HETATM   39  C   UNL     1      32.339  27.099   4.402  1.00  0.00     0.016 C 
HETATM   40  C   UNL     1      33.588  27.856   4.845  1.00  0.00     0.012 C 
HETATM   41  C   UNL     1      32.695  25.676   3.977  1.00  0.00     0.012 C 
ENDBRANCH  18  39
BRANCH  17  42
HETATM   42  C   UNL     1      34.246  31.536   9.534  1.00  0.00     0.016 C 
HETATM   43  C   UNL     1      35.721  31.672   9.908  1.00  0.00     0.012 C 
HETATM   44  C   UNL     1      33.358  31.861  10.734  1.00  0.00     0.012 C 
ENDBRANCH  17  42
BRANCH  15  45
HETATM   45  C   UNL     1      30.584  31.946   5.902  1.00  0.00     0.014 C 
HETATM   46  C   UNL     1      30.841  31.810   4.398  1.00  0.00     0.012 C 
BRANCH  45  47
HETATM   47  C   UNL     1      29.123  32.374   6.141  1.00  0.00     0.002 C 
HETATM   48  C   UNL     1      28.439  32.918   4.895  1.00  0.00     0.005 C 
ENDBRANCH  45  47
ENDBRANCH  15  45
TORSDOF 9
ENDMDL
MODEL 2
REMARK VINA RESULT:    -6.707      1.896      5.090
REMARK INTER + INTRA:          -9.266
REMARK INTER:                 -11.199
REMARK INTRA:                   1.934
REMARK UNBOUND:                 0.970
REMARK  9 active torsions:
REMARK  status: ('A' for Active; 'I' for Inactive)
REMARK    1  A    between atoms: C_13  and  C_16 
REMARK    2  A    between atoms: C_14  and  C_17 
REMARK    3  A    between atoms: C_15  and  C_18 
REMARK    4  A    between atoms: C_16  and  C_22 
REMARK    5  A    between atoms: C_17  and  C_23 
REMARK    6  A    between atoms: C_18  and  C_24 
REMARK    7  A    between atoms: C_19  and  C_25 
REMARK    8  A    between atoms: C_20  and  C_26 
REMARK    9  A    between atoms: C_21  and  C_27 
ROOT
HETATM    1  O   UNL     1      28.588  28.285   7.267  1.00  0.00    -0.304 OA
HETATM    2  O   UNL     1      31.749  26.160  10.623  1.00  0.00    -0.304 OA
HETATM    3  O   UNL     1      32.427  29.594   7.275  1.00  0.00    -0.304 OA
HETATM    4  O   UNL     1      28.495  26.991   9.512  1.00  0.00    -0.270 OA
HETATM    5  O   UNL     1      32.172  31.168   4.218  1.00  0.00    -0.270 OA
HETATM    6  O   UNL     1      31.269  28.697  10.100  1.00  0.00    -0.270 OA
HETATM    7  O   UNL     1      28.625  28.624   4.986  1.00  0.00    -0.263 OA
HETATM    8  O   UNL     1      32.067  25.558   8.417  1.00  0.00    -0.263 OA
HETATM    9  O   UNL     1      33.134  31.778   7.119  1.00  0.00    -0.263 OA
HETATM   10  N   UNL     1      29.300  25.080   8.470  1.00  0.00    -0.340 N 
HETATM   11  N   UNL     1      30.190  30.890   5.390  1.00  0.00    -0.340 N 
HETATM   12  N   UNL     1      33.473  29.301   9.694  1.00  0.00    -0.340 N 
HETATM   13  C   UNL     1      30.126  24.747   9.648  1.00  0.00     0.190 C 
HETATM   14  C   UNL     1      29.431  30.338   6.531  1.00  0.00     0.190 C 
HETATM   15  C   UNL     1      33.087  30.672   9.286  1.00  0.00     0.190 C 
HETATM   16  C   UNL     1      28.212  26.897   7.141  1.00  0.00     0.227 C 
HETATM   17  C   UNL     1      32.905  27.020  10.594  1.00  0.00     0.227 C 
HETATM   18  C   UNL     1      32.191  29.423   5.874  1.00  0.00     0.227 C 
HETATM   19  C   UNL     1      28.651  26.323   8.482  1.00  0.00     0.250 C 
HETATM   20  C   UNL     1      31.529  30.582   5.097  1.00  0.00     0.250 C 
HETATM   21  C   UNL     1      32.472  28.408  10.105  1.00  0.00     0.250 C 
HETATM   22  C   UNL     1      28.835  28.998   6.131  1.00  0.00     0.283 C 
HETATM   23  C   UNL     1      31.426  25.518   9.460  1.00  0.00     0.283 C 
HETATM   24  C   UNL     1      32.935  30.758   7.767  1.00  0.00     0.283 C 
HETATM   25  C   UNL     1      29.316  24.181   7.315  1.00  0.00     0.153 C 
HETATM   26  C   UNL     1      29.496  31.824   4.503  1.00  0.00     0.153 C 
HETATM   27  C   UNL     1      34.892  28.956   9.564  1.00  0.00     0.153 C 
ENDROOT
BRANCH  16  28
HETATM   28  C   UNL     1      26.709  26.773   6.969  1.00  0.00     0.016 C 
HETATM   29  C   UNL     1      26.096  25.998   8.133  1.00  0.00     0.012 C 
HETATM   30  C   UNL     1      26.373  26.098   5.640  1.00  0.00     0.012 C 
ENDBRANCH  16  28
BRANCH  14  31
HETATM   31  C   UNL     1      28.339  31.252   7.083  1.00  0.00     0.014 C 
HETATM   32  C   UNL     1      28.126  30.964   8.571  1.00  0.00     0.012 C 
BRANCH  31  33
HETATM   33  C   UNL     1      28.665  32.742   6.881  1.00  0.00     0.002 C 
HETATM   34  C   UNL     1      27.469  33.661   7.083  1.00  0.00     0.005 C 
ENDBRANCH  31  33
ENDBRANCH  14  31
BRANCH  13  35
HETATM   35  C   UNL     1      30.430  23.271   9.870  1.00  0.00     0.014 C 
HETATM   36  C   UNL     1      31.933  23.023   9.717  1.00  0.00     0.012 C 
BRANCH  35  37
HETATM   37  C   UNL     1      29.958  22.775  11.248  1.00  0.00     0.002 C 
HETATM   38  C   UNL     1      28.842  23.618  11.850  1.00  0.00     0.005 C 
ENDBRANCH  35  37
ENDBRANCH  13  35
BRANCH  18  39
HETATM   39  C   UNL     1      33.515  29.004   5.232  1.00  0.00     0.016 C 
HETATM   40  C   UNL     1      34.490  28.499   6.293  1.00  0.00     0.012 C 
HETATM   41  C   UNL     1      33.279  27.935   4.167  1.00  0.00     0.012 C 
ENDBRANCH  18  39
BRANCH  17  42
HETATM   42  C   UNL     1      33.433  27.108  12.019  1.00  0.00     0.016 C 
HETATM   43  C   UNL     1      33.961  25.751  12.484  1.00  0.00     0.012 C 
HETATM   44  C   UNL     1      32.346  27.612  12.967  1.00  0.00     0.012 C 
ENDBRANCH  17  42
BRANCH  15  45
HETATM   45  C   UNL     1      34.029  31.751   9.816  1.00  0.00     0.014 C 
HETATM   46  C   UNL     1      33.949  31.810  11.346  1.00  0.00     0.012 C 
BRANCH  45  47
HETATM   47  C   UNL     1      35.490  31.527   9.382  1.00  0.00     0.002 C 
HETATM   48  C   UNL     1      36.507  32.050  10.384  1.00  0.00     0.005 C 
ENDBRANCH  45  47
ENDBRANCH  15  45
TORSDOF 9
ENDMDL
MODEL 3
REMARK VINA RESULT:    -6.646      3.144      6.736
REMARK INTER + INTRA:          -9.173
REMARK INTER:                  -9.503
REMARK INTRA:                   0.330
REMARK UNBOUND:                 0.970
REMARK  9 active torsions:
REMARK  status: ('A' for Active; 'I' for Inactive)
REMARK    1  A    between atoms: C_13  and  C_16 
REMARK    2  A    between atoms: C_14  and  C_17 
REMARK    3  A    between atoms: C_15  and  C_18 
REMARK    4  A    between atoms: C_16  and  C_22 
REMARK    5  A    between atoms: C_17  and  C_23 
REMARK    6  A    between atoms: C_18  and  C_24 
REMARK    7  A    between atoms: C_19  and  C_25 
REMARK    8  A    between atoms: C_20  and  C_26 
REMARK    9  A    between atoms: C_21  and  C_27 
ROOT
HETATM    1  O   UNL     1      31.510  24.198   3.138  1.00  0.00    -0.304 OA
HETATM    2  O   UNL     1      33.352  28.392   5.325  1.00  0.00    -0.304 OA
HETATM    3  O   UNL     1      28.934  26.407   5.358  1.00  0.00    -0.304 OA
HETATM    4  O   UNL     1      33.788  25.197   3.870  1.00  0.00    -0.270 OA
HETATM    5  O   UNL     1      26.118  24.862   4.105  1.00  0.00    -0.270 OA
HETATM    6  O   UNL     1      31.958  26.405   6.349  1.00  0.00    -0.270 OA
HETATM    7  O   UNL     1      29.711  23.731   1.772  1.00  0.00    -0.263 OA
HETATM    8  O   UNL     1      31.935  28.728   3.534  1.00  0.00    -0.263 OA
HETATM    9  O   UNL     1      27.379  25.611   6.856  1.00  0.00    -0.263 OA
HETATM   10  N   UNL     1      33.601  26.859   2.261  1.00  0.00    -0.340 N 
HETATM   11  N   UNL     1      28.080  23.628   4.024  1.00  0.00    -0.340 N 
HETATM   12  N   UNL     1      30.263  27.711   7.246  1.00  0.00    -0.340 N 
HETATM   13  C   UNL     1      34.184  27.859   3.179  1.00  0.00     0.190 C 
HETATM   14  C   UNL     1      29.543  23.514   4.200  1.00  0.00     0.190 C 
HETATM   15  C   UNL     1      29.484  26.523   7.665  1.00  0.00     0.190 C 
HETATM   16  C   UNL     1      32.303  24.733   2.056  1.00  0.00     0.227 C 
HETATM   17  C   UNL     1      32.321  28.770   6.259  1.00  0.00     0.227 C 
HETATM   18  C   UNL     1      28.149  26.149   4.191  1.00  0.00     0.227 C 
HETATM   19  C   UNL     1      33.316  25.595   2.798  1.00  0.00     0.250 C 
HETATM   20  C   UNL     1      27.354  24.826   4.121  1.00  0.00     0.250 C 
HETATM   21  C   UNL     1      31.502  27.524   6.615  1.00  0.00     0.250 C 
HETATM   22  C   UNL     1      30.228  23.813   2.876  1.00  0.00     0.283 C 
HETATM   23  C   UNL     1      33.013  28.383   4.000  1.00  0.00     0.283 C 
HETATM   24  C   UNL     1      28.445  26.158   6.605  1.00  0.00     0.283 C 
HETATM   25  C   UNL     1      33.226  27.273   0.908  1.00  0.00     0.153 C 
HETATM   26  C   UNL     1      27.336  22.403   3.727  1.00  0.00     0.153 C 
HETATM   27  C   UNL     1      29.629  29.016   7.463  1.00  0.00     0.153 C 
ENDROOT
BRANCH  16  28
HETATM   28  C   UNL     1      32.998  23.610   1.309  1.00  0.00     0.016 C 
HETATM   29  C   UNL     1      34.515  23.742   1.427  1.00  0.00     0.012 C 
HETATM   30  C   UNL     1      32.575  23.596  -0.159  1.00  0.00     0.012 C 
ENDBRANCH  16  28
BRANCH  14  31
HETATM   31  C   UNL     1      30.025  22.172   4.748  1.00  0.00     0.014 C 
HETATM   32  C   UNL     1      30.740  21.389   3.644  1.00  0.00     0.012 C 
BRANCH  31  33
HETATM   33  C   UNL     1      30.959  22.336   5.960  1.00  0.00     0.002 C 
HETATM   34  C   UNL     1      30.281  22.963   7.170  1.00  0.00     0.005 C 
ENDBRANCH  31  33
ENDBRANCH  14  31
BRANCH  13  35
HETATM   35  C   UNL     1      34.925  29.023   2.536  1.00  0.00     0.014 C 
HETATM   36  C   UNL     1      34.800  30.268   3.418  1.00  0.00     0.012 C 
BRANCH  35  37
HETATM   37  C   UNL     1      36.410  28.709   2.285  1.00  0.00     0.002 C 
HETATM   38  C   UNL     1      37.177  29.862   1.651  1.00  0.00     0.005 C 
ENDBRANCH  35  37
ENDBRANCH  13  35
BRANCH  18  39
HETATM   39  C   UNL     1      27.239  27.359   3.970  1.00  0.00     0.016 C 
HETATM   40  C   UNL     1      27.990  28.655   4.265  1.00  0.00     0.012 C 
HETATM   41  C   UNL     1      26.694  27.367   2.543  1.00  0.00     0.012 C 
ENDBRANCH  18  39
BRANCH  17  42
HETATM   42  C   UNL     1      33.018  29.311   7.499  1.00  0.00     0.016 C 
HETATM   43  C   UNL     1      32.888  30.832   7.572  1.00  0.00     0.012 C 
HETATM   44  C   UNL     1      34.490  28.899   7.514  1.00  0.00     0.012 C 
ENDBRANCH  17  42
BRANCH  15  45
HETATM   45  C   UNL     1      28.847  26.670   9.046  1.00  0.00     0.014 C 
HETATM   46  C   UNL     1      27.435  27.253   8.912  1.00  0.00     0.012 C 
BRANCH  45  47
HETATM   47  C   UNL     1      28.786  25.337   9.815  1.00  0.00     0.002 C 
HETATM   48  C   UNL     1      27.400  25.009  10.351  1.00  0.00     0.005 C 
ENDBRANCH  45  47
ENDBRANCH  15  45
TORSDOF 9
ENDMDL
MODEL 4
REMARK VINA RESULT:    -6.510      3.281      7.352
REMARK INTER + INTRA:          -8.965
REMARK INTER:                  -9.297
REMARK INTRA:                   0.332
REMARK UNBOUND:                 0.970
REMARK  9 active torsions:
REMARK  status: ('A' for Active; 'I' for Inactive)
REMARK    1  A    between atoms: C_13  and  C_16 
REMARK    2  A    between atoms: C_14  and  C_17 
REMARK    3  A    between atoms: C_15  and  C_18 
REMARK    4  A    between atoms: C_16  and  C_22 
REMARK    5  A    between atoms: C_17  and  C_23 
REMARK    6  A    between atoms: C_18  and  C_24 
REMARK    7  A    between atoms: C_19  and  C_25 
REMARK    8  A    between atoms: C_20  and  C_26 
REMARK    9  A    between atoms: C_21  and  C_27 
ROOT
HETATM    1  O   UNL     1      30.628  27.749   2.403  1.00  0.00    -0.304 OA
HETATM    2  O   UNL     1      28.708  25.284   6.403  1.00  0.00    -0.304 OA
HETATM    3  O   UNL     1      31.217  29.412   6.054  1.00  0.00    -0.304 OA
HETATM    4  O   UNL     1      28.794  25.997   2.940  1.00  0.00    -0.270 OA
HETATM    5  O   UNL     1      33.669  31.576   4.963  1.00  0.00    -0.270 OA
HETATM    6  O   UNL     1      28.492  27.811   5.692  1.00  0.00    -0.270 OA
HETATM    7  O   UNL     1      32.707  28.577   1.846  1.00  0.00    -0.263 OA
HETATM    8  O   UNL     1      31.005  25.210   6.180  1.00  0.00    -0.263 OA
HETATM    9  O   UNL     1      31.016  31.639   6.599  1.00  0.00    -0.263 OA
HETATM   10  N   UNL     1      30.415  24.450   3.541  1.00  0.00    -0.340 N 
HETATM   11  N   UNL     1      32.162  30.850   3.357  1.00  0.00    -0.340 N 
HETATM   12  N   UNL     1      29.252  28.711   7.691  1.00  0.00    -0.340 N 
HETATM   13  C   UNL     1      29.578  23.956   4.653  1.00  0.00     0.190 C 
HETATM   14  C   UNL     1      31.037  29.988   2.937  1.00  0.00     0.190 C 
HETATM   15  C   UNL     1      29.223  30.090   7.152  1.00  0.00     0.190 C 
HETATM   16  C   UNL     1      30.984  26.390   2.071  1.00  0.00     0.227 C 
HETATM   17  C   UNL     1      28.807  26.244   7.474  1.00  0.00     0.227 C 
HETATM   18  C   UNL     1      32.522  29.526   5.480  1.00  0.00     0.227 C 
HETATM   19  C   UNL     1      29.958  25.588   2.860  1.00  0.00     0.250 C 
HETATM   20  C   UNL     1      32.826  30.751   4.591  1.00  0.00     0.250 C 
HETATM   21  C   UNL     1      28.838  27.652   6.868  1.00  0.00     0.250 C 
HETATM   22  C   UNL     1      31.589  28.713   2.321  1.00  0.00     0.283 C 
HETATM   23  C   UNL     1      29.880  24.879   5.826  1.00  0.00     0.283 C 
HETATM   24  C   UNL     1      30.599  30.488   6.617  1.00  0.00     0.283 C 
HETATM   25  C   UNL     1      31.720  23.829   3.305  1.00  0.00     0.153 C 
HETATM   26  C   UNL     1      32.615  31.877   2.419  1.00  0.00     0.153 C 
HETATM   27  C   UNL     1      29.791  28.550   9.045  1.00  0.00     0.153 C 
ENDROOT
BRANCH  16  28
HETATM   28  C   UNL     1      30.821  26.153   0.581  1.00  0.00     0.016 C 
HETATM   29  C   UNL     1      29.751  25.095   0.317  1.00  0.00     0.012 C 
HETATM   30  C   UNL     1      32.150  25.738  -0.048  1.00  0.00     0.012 C 
ENDBRANCH  16  28
BRANCH  14  31
HETATM   31  C   UNL     1      30.043  30.644   1.980  1.00  0.00     0.014 C 
HETATM   32  C   UNL     1      29.971  29.841   0.679  1.00  0.00     0.012 C 
BRANCH  31  33
HETATM   33  C   UNL     1      28.638  30.773   2.592  1.00  0.00     0.002 C 
HETATM   34  C   UNL     1      27.781  29.527   2.419  1.00  0.00     0.005 C 
ENDBRANCH  31  33
ENDBRANCH  14  31
BRANCH  13  35
HETATM   35  C   UNL     1      29.787  22.507   5.070  1.00  0.00     0.014 C 
HETATM   36  C   UNL     1      29.645  22.379   6.589  1.00  0.00     0.012 C 
BRANCH  35  37
HETATM   37  C   UNL     1      28.807  21.547   4.373  1.00  0.00     0.002 C 
HETATM   38  C   UNL     1      29.487  20.562   3.431  1.00  0.00     0.005 C 
ENDBRANCH  35  37
ENDBRANCH  13  35
BRANCH  18  39
HETATM   39  C   UNL     1      33.539  29.394   6.616  1.00  0.00     0.016 C 
HETATM   40  C   UNL     1      32.965  28.553   7.754  1.00  0.00     0.012 C 
HETATM   41  C   UNL     1      34.841  28.784   6.101  1.00  0.00     0.012 C 
ENDBRANCH  18  39
BRANCH  17  42
HETATM   42  C   UNL     1      27.567  26.074   8.341  1.00  0.00     0.016 C 
HETATM   43  C   UNL     1      27.644  24.777   9.146  1.00  0.00     0.012 C 
HETATM   44  C   UNL     1      26.302  26.097   7.485  1.00  0.00     0.012 C 
ENDBRANCH  17  42
BRANCH  15  45
HETATM   45  C   UNL     1      28.691  31.120   8.147  1.00  0.00     0.014 C 
HETATM   46  C   UNL     1      28.079  32.307   7.396  1.00  0.00     0.012 C 
BRANCH  45  47
HETATM   47  C   UNL     1      27.648  30.525   9.113  1.00  0.00     0.002 C 
HETATM   48  C   UNL     1      26.974  31.567   9.993  1.00  0.00     0.005 C 
ENDBRANCH  45  47
ENDBRANCH  15  45
TORSDOF 9
ENDMDL
MODEL 5
REMARK VINA RESULT:    -6.377      2.860      7.513
REMARK INTER + INTRA:          -8.762
REMARK INTER:                  -8.829
REMARK INTRA:                   0.067
REMARK UNBOUND:                 0.970
REMARK  9 active torsions:
REMARK  status: ('A' for Active; 'I' for Inactive)
REMARK    1  A    between atoms: C_13  and  C_16 
REMARK    2  A    between atoms: C_14  and  C_17 
REMARK    3  A    between atoms: C_15  and  C_18 
REMARK    4  A    between atoms: C_16  and  C_22 
REMARK    5  A    between atoms: C_17  and  C_23 
REMARK    6  A    between atoms: C_18  and  C_24 
REMARK    7  A    between atoms: C_19  and  C_25 
REMARK    8  A    between atoms: C_20  and  C_26 
REMARK    9  A    between atoms: C_21  and  C_27 
ROOT
HETATM    1  O   UNL     1      31.759  29.108   7.018  1.00  0.00    -0.304 OA
HETATM    2  O   UNL     1      28.239  25.839   5.378  1.00  0.00    -0.304 OA
HETATM    3  O   UNL     1      30.603  29.427   3.144  1.00  0.00    -0.304 OA
HETATM    4  O   UNL     1      30.787  26.787   7.642  1.00  0.00    -0.270 OA
HETATM    5  O   UNL     1      31.995  32.551   2.712  1.00  0.00    -0.270 OA
HETATM    6  O   UNL     1      30.578  26.484   4.353  1.00  0.00    -0.270 OA
HETATM    7  O   UNL     1      31.986  31.403   6.992  1.00  0.00    -0.263 OA
HETATM    8  O   UNL     1      27.537  28.020   5.661  1.00  0.00    -0.263 OA
HETATM    9  O   UNL     1      31.972  29.761   1.325  1.00  0.00    -0.263 OA
HETATM   10  N   UNL     1      28.750  27.759   8.180  1.00  0.00    -0.340 N 
HETATM   11  N   UNL     1      32.932  31.240   4.380  1.00  0.00    -0.340 N 
HETATM   12  N   UNL     1      29.789  27.067   2.250  1.00  0.00    -0.340 N 
HETATM   13  C   UNL     1      28.014  26.619   7.597  1.00  0.00     0.190 C 
HETATM   14  C   UNL     1      32.936  30.020   5.215  1.00  0.00     0.190 C 
HETATM   15  C   UNL     1      31.125  27.532   1.810  1.00  0.00     0.190 C 
HETATM   16  C   UNL     1      30.844  29.124   8.134  1.00  0.00     0.227 C 
HETATM   17  C   UNL     1      28.270  25.995   3.945  1.00  0.00     0.227 C 
HETATM   18  C   UNL     1      30.583  30.797   3.557  1.00  0.00     0.227 C 
HETATM   19  C   UNL     1      30.139  27.782   7.990  1.00  0.00     0.250 C 
HETATM   20  C   UNL     1      31.902  31.598   3.495  1.00  0.00     0.250 C 
HETATM   21  C   UNL     1      29.645  26.538   3.542  1.00  0.00     0.250 C 
HETATM   22  C   UNL     1      32.183  30.299   6.506  1.00  0.00     0.283 C 
HETATM   23  C   UNL     1      27.888  26.937   6.113  1.00  0.00     0.283 C 
HETATM   24  C   UNL     1      31.264  29.041   2.017  1.00  0.00     0.283 C 
HETATM   25  C   UNL     1      27.993  28.857   8.786  1.00  0.00     0.153 C 
HETATM   26  C   UNL     1      34.083  32.136   4.484  1.00  0.00     0.153 C 
HETATM   27  C   UNL     1      28.684  27.267   1.306  1.00  0.00     0.153 C 
ENDROOT
BRANCH  16  28
HETATM   28  C   UNL     1      31.611  29.191   9.442  1.00  0.00     0.016 C 
HETATM   29  C   UNL     1      31.448  27.893  10.229  1.00  0.00     0.012 C 
HETATM   30  C   UNL     1      31.150  30.385  10.277  1.00  0.00     0.012 C 
ENDBRANCH  16  28
BRANCH  14  31
HETATM   31  C   UNL     1      34.320  29.456   5.527  1.00  0.00     0.014 C 
HETATM   32  C   UNL     1      34.466  29.248   7.037  1.00  0.00     0.012 C 
BRANCH  31  33
HETATM   33  C   UNL     1      34.593  28.133   4.789  1.00  0.00     0.002 C 
HETATM   34  C   UNL     1      34.779  28.301   3.288  1.00  0.00     0.005 C 
ENDBRANCH  31  33
ENDBRANCH  14  31
BRANCH  13  35
HETATM   35  C   UNL     1      26.639  26.327   8.181  1.00  0.00     0.014 C 
HETATM   36  C   UNL     1      25.629  26.116   7.049  1.00  0.00     0.012 C 
BRANCH  35  37
HETATM   37  C   UNL     1      26.642  25.102   9.110  1.00  0.00     0.002 C 
HETATM   38  C   UNL     1      27.360  25.342  10.432  1.00  0.00     0.005 C 
ENDBRANCH  35  37
ENDBRANCH  13  35
BRANCH  18  39
HETATM   39  C   UNL     1      29.467  31.496   2.779  1.00  0.00     0.016 C 
HETATM   40  C   UNL     1      28.279  30.557   2.584  1.00  0.00     0.012 C 
HETATM   41  C   UNL     1      29.031  32.772   3.497  1.00  0.00     0.012 C 
ENDBRANCH  18  39
BRANCH  17  42
HETATM   42  C   UNL     1      28.053  24.615   3.341  1.00  0.00     0.016 C 
HETATM   43  C   UNL     1      26.572  24.381   3.045  1.00  0.00     0.012 C 
HETATM   44  C   UNL     1      28.590  23.528   4.270  1.00  0.00     0.012 C 
ENDBRANCH  17  42
BRANCH  15  45
HETATM   45  C   UNL     1      31.465  27.131   0.376  1.00  0.00     0.014 C 
HETATM   46  C   UNL     1      32.980  27.214   0.154  1.00  0.00     0.012 C 
BRANCH  45  47
HETATM   47  C   UNL     1      30.968  25.715   0.024  1.00  0.00     0.002 C 
HETATM   48  C   UNL     1      31.817  24.607   0.628  1.00  0.00     0.005 C 
ENDBRANCH  45  47
ENDBRANCH  15  45
TORSDOF 9
ENDMDL
MODEL 6
REMARK VINA RESULT:    -6.231      2.140      6.472
REMARK INTER + INTRA:          -8.539
REMARK INTER:                 -10.241
REMARK INTRA:                   1.701
REMARK UNBOUND:                 0.970
REMARK  9 active torsions:
REMARK  status: ('A' for Active; 'I' for Inactive)
REMARK    1  A    between atoms: C_13  and  C_16 
REMARK    2  A    between atoms: C_14  and  C_17 
REMARK    3  A    between atoms: C_15  and  C_18 
REMARK    4  A    between atoms: C_16  and  C_22 
REMARK    5  A    between atoms: C_17  and  C_23 
REMARK    6  A    between atoms: C_18  and  C_24 
REMARK    7  A    between atoms: C_19  and  C_25 
REMARK    8  A    between atoms: C_20  and  C_26 
REMARK    9  A    between atoms: C_21  and  C_27 
ROOT
HETATM    1  O   UNL     1      28.675  28.721   5.807  1.00  0.00    -0.304 OA
HETATM    2  O   UNL     1      31.092  25.052   8.349  1.00  0.00    -0.304 OA
HETATM    3  O   UNL     1      32.305  29.637   7.365  1.00  0.00    -0.304 OA
HETATM    4  O   UNL     1      28.143  26.505   7.042  1.00  0.00    -0.270 OA
HETATM    5  O   UNL     1      32.672  32.513   5.500  1.00  0.00    -0.270 OA
HETATM    6  O   UNL     1      30.578  27.545   9.028  1.00  0.00    -0.270 OA
HETATM    7  O   UNL     1      29.225  30.127   4.063  1.00  0.00    -0.263 OA
HETATM    8  O   UNL     1      31.961  25.585   6.277  1.00  0.00    -0.263 OA
HETATM    9  O   UNL     1      32.879  31.575   8.465  1.00  0.00    -0.263 OA
HETATM   10  N   UNL     1      29.299  25.302   5.430  1.00  0.00    -0.340 N 
HETATM   11  N   UNL     1      30.493  31.814   5.878  1.00  0.00    -0.340 N 
HETATM   12  N   UNL     1      32.769  28.142   9.506  1.00  0.00    -0.340 N 
HETATM   13  C   UNL     1      29.845  24.389   6.455  1.00  0.00     0.190 C 
HETATM   14  C   UNL     1      29.525  30.821   6.388  1.00  0.00     0.190 C 
HETATM   15  C   UNL     1      32.398  29.558   9.737  1.00  0.00     0.190 C 
HETATM   16  C   UNL     1      28.434  27.595   4.936  1.00  0.00     0.227 C 
HETATM   17  C   UNL     1      32.162  25.749   9.017  1.00  0.00     0.227 C 
HETATM   18  C   UNL     1      32.418  30.185   6.048  1.00  0.00     0.227 C 
HETATM   19  C   UNL     1      28.582  26.416   5.889  1.00  0.00     0.250 C 
HETATM   20  C   UNL     1      31.881  31.612   5.801  1.00  0.00     0.250 C 
HETATM   21  C   UNL     1      31.763  27.221   9.178  1.00  0.00     0.250 C 
HETATM   22  C   UNL     1      29.133  29.882   5.257  1.00  0.00     0.283 C 
HETATM   23  C   UNL     1      31.097  25.078   6.982  1.00  0.00     0.283 C 
HETATM   24  C   UNL     1      32.603  30.382   8.466  1.00  0.00     0.283 C 
HETATM   25  C   UNL     1      29.648  25.081   4.025  1.00  0.00     0.153 C 
HETATM   26  C   UNL     1      29.966  33.100   5.420  1.00  0.00     0.153 C 
HETATM   27  C   UNL     1      34.199  27.824   9.567  1.00  0.00     0.153 C 
ENDROOT
BRANCH  16  28
HETATM   28  C   UNL     1      27.026  27.657   4.373  1.00  0.00     0.016 C 
HETATM   29  C   UNL     1      26.180  26.504   4.909  1.00  0.00     0.012 C 
HETATM   30  C   UNL     1      27.055  27.636   2.846  1.00  0.00     0.012 C 
ENDBRANCH  16  28
BRANCH  14  31
HETATM   31  C   UNL     1      28.274  31.411   7.036  1.00  0.00     0.014 C 
HETATM   32  C   UNL     1      28.187  30.960   8.496  1.00  0.00     0.012 C 
BRANCH  31  33
HETATM   33  C   UNL     1      28.246  32.947   6.962  1.00  0.00     0.002 C 
HETATM   34  C   UNL     1      27.057  33.570   7.680  1.00  0.00     0.005 C 
ENDBRANCH  31  33
ENDBRANCH  14  31
BRANCH  13  35
HETATM   35  C   UNL     1      30.187  22.979   5.996  1.00  0.00     0.014 C 
HETATM   36  C   UNL     1      30.921  22.233   7.115  1.00  0.00     0.012 C 
BRANCH  35  37
HETATM   37  C   UNL     1      28.943  22.181   5.569  1.00  0.00     0.002 C 
HETATM   38  C   UNL     1      29.138  21.395   4.279  1.00  0.00     0.005 C 
ENDBRANCH  35  37
ENDBRANCH  13  35
BRANCH  18  39
HETATM   39  C   UNL     1      33.881  30.057   5.620  1.00  0.00     0.016 C 
HETATM   40  C   UNL     1      34.479  28.750   6.136  1.00  0.00     0.012 C 
HETATM   41  C   UNL     1      34.004  30.140   4.100  1.00  0.00     0.012 C 
ENDBRANCH  18  39
BRANCH  17  42
HETATM   42  C   UNL     1      32.332  25.100  10.384  1.00  0.00     0.016 C 
HETATM   43  C   UNL     1      33.019  23.741  10.255  1.00  0.00     0.012 C 
HETATM   44  C   UNL     1      30.982  24.952  11.083  1.00  0.00     0.012 C 
ENDBRANCH  17  42
BRANCH  15  45
HETATM   45  C   UNL     1      33.113  30.185  10.932  1.00  0.00     0.014 C 
HETATM   46  C   UNL     1      32.345  31.422  11.412  1.00  0.00     0.012 C 
BRANCH  45  47
HETATM   47  C   UNL     1      33.287  29.198  12.103  1.00  0.00     0.002 C 
HETATM   48  C   UNL     1      34.507  29.488  12.964  1.00  0.00     0.005 C 
ENDBRANCH  45  47
ENDBRANCH  15  45
TORSDOF 9
ENDMDL
MODEL 7
REMARK VINA RESULT:    -6.125      2.357      6.139
REMARK INTER + INTRA:          -8.378
REMARK INTER:                  -8.841
REMARK INTRA:                   0.462
REMARK UNBOUND:                 0.970
REMARK  9 active torsions:
REMARK  status: ('A' for Active; 'I' for Inactive)
REMARK    1  A    between atoms: C_13  and  C_16 
REMARK    2  A    between atoms: C_14  and  C_17 
REMARK    3  A    between atoms: C_15  and  C_18 
REMARK    4  A    between atoms: C_16  and  C_22 
REMARK    5  A    between atoms: C_17  and  C_23 
REMARK    6  A    between atoms: C_18  and  C_24 
REMARK    7  A    between atoms: C_19  and  C_25 
REMARK    8  A    between atoms: C_20  and  C_26 
REMARK    9  A    between atoms: C_21  and  C_27 
ROOT
HETATM    1  O   UNL     1      30.951  28.154   7.947  1.00  0.00    -0.304 OA
HETATM    2  O   UNL     1      30.028  31.601   4.337  1.00  0.00    -0.304 OA
HETATM    3  O   UNL     1      29.465  26.791   4.429  1.00  0.00    -0.304 OA
HETATM    4  O   UNL     1      30.516  30.700   7.723  1.00  0.00    -0.270 OA
HETATM    5  O   UNL     1      30.249  23.496   5.074  1.00  0.00    -0.270 OA
HETATM    6  O   UNL     1      28.493  29.691   5.305  1.00  0.00    -0.270 OA
HETATM    7  O   UNL     1      32.142  26.181   8.048  1.00  0.00    -0.263 OA
HETATM    8  O   UNL     1      31.851  30.230   3.980  1.00  0.00    -0.263 OA
HETATM    9  O   UNL     1      27.815  25.211   4.155  1.00  0.00    -0.263 OA
HETATM   10  N   UNL     1      32.531  30.969   6.603  1.00  0.00    -0.340 N 
HETATM   11  N   UNL     1      29.964  24.858   6.929  1.00  0.00    -0.340 N 
HETATM   12  N   UNL     1      28.014  28.684   3.270  1.00  0.00    -0.340 N 
HETATM   13  C   UNL     1      31.929  31.963   5.691  1.00  0.00     0.190 C 
HETATM   14  C   UNL     1      29.753  26.189   7.534  1.00  0.00     0.190 C 
HETATM   15  C   UNL     1      27.281  27.573   3.922  1.00  0.00     0.190 C 
HETATM   16  C   UNL     1      32.135  28.974   8.057  1.00  0.00     0.227 C 
HETATM   17  C   UNL     1      29.247  30.875   3.366  1.00  0.00     0.227 C 
HETATM   18  C   UNL     1      30.518  25.852   4.672  1.00  0.00     0.227 C 
HETATM   19  C   UNL     1      31.660  30.300   7.475  1.00  0.00     0.250 C 
HETATM   20  C   UNL     1      30.216  24.630   5.566  1.00  0.00     0.250 C 
HETATM   21  C   UNL     1      28.558  29.701   4.070  1.00  0.00     0.250 C 
HETATM   22  C   UNL     1      31.102  26.800   7.877  1.00  0.00     0.283 C 
HETATM   23  C   UNL     1      31.298  31.151   4.568  1.00  0.00     0.283 C 
HETATM   24  C   UNL     1      28.203  26.372   4.136  1.00  0.00     0.283 C 
HETATM   25  C   UNL     1      33.949  30.635   6.453  1.00  0.00     0.153 C 
HETATM   26  C   UNL     1      29.908  23.695   7.815  1.00  0.00     0.153 C 
HETATM   27  C   UNL     1      28.180  28.592   1.816  1.00  0.00     0.153 C 
ENDROOT
BRANCH  16  28
HETATM   28  C   UNL     1      32.529  29.136   9.514  1.00  0.00     0.016 C 
HETATM   29  C   UNL     1      32.435  30.601   9.937  1.00  0.00     0.012 C 
HETATM   30  C   UNL     1      33.938  28.599   9.754  1.00  0.00     0.012 C 
ENDBRANCH  16  28
BRANCH  14  31
HETATM   31  C   UNL     1      28.844  26.205   8.761  1.00  0.00     0.014 C 
HETATM   32  C   UNL     1      29.664  26.549  10.007  1.00  0.00     0.012 C 
BRANCH  31  33
HETATM   33  C   UNL     1      27.677  27.197   8.614  1.00  0.00     0.002 C 
HETATM   34  C   UNL     1      26.662  26.790   7.555  1.00  0.00     0.005 C 
ENDBRANCH  31  33
ENDBRANCH  14  31
BRANCH  13  35
HETATM   35  C   UNL     1      32.871  33.007   5.107  1.00  0.00     0.014 C 
HETATM   36  C   UNL     1      33.330  32.568   3.713  1.00  0.00     0.012 C 
BRANCH  35  37
HETATM   37  C   UNL     1      32.226  34.402   5.026  1.00  0.00     0.002 C 
HETATM   38  C   UNL     1      31.756  34.775   3.627  1.00  0.00     0.005 C 
ENDBRANCH  35  37
ENDBRANCH  13  35
BRANCH  18  39
HETATM   39  C   UNL     1      31.078  25.426   3.314  1.00  0.00     0.016 C 
HETATM   40  C   UNL     1      31.077  26.602   2.340  1.00  0.00     0.012 C 
HETATM   41  C   UNL     1      32.488  24.860   3.470  1.00  0.00     0.012 C 
ENDBRANCH  18  39
BRANCH  17  42
HETATM   42  C   UNL     1      28.206  31.842   2.819  1.00  0.00     0.016 C 
HETATM   43  C   UNL     1      28.598  32.328   1.425  1.00  0.00     0.012 C 
HETATM   44  C   UNL     1      28.020  33.028   3.765  1.00  0.00     0.012 C 
ENDBRANCH  17  42
BRANCH  15  45
HETATM   45  C   UNL     1      26.004  27.175   3.186  1.00  0.00     0.014 C 
HETATM   46  C   UNL     1      24.879  26.910   4.193  1.00  0.00     0.012 C 
BRANCH  45  47
HETATM   47  C   UNL     1      25.549  28.241   2.170  1.00  0.00     0.002 C 
HETATM   48  C   UNL     1      24.040  28.432   2.127  1.00  0.00     0.005 C 
ENDBRANCH  45  47
ENDBRANCH  15  45
TORSDOF 9
ENDMDL
MODEL 8
REMARK VINA RESULT:    -5.997      2.488      5.092
REMARK INTER + INTRA:          -8.182
REMARK INTER:                  -8.752
REMARK INTRA:                   0.570
REMARK UNBOUND:                 0.970
REMARK  9 active torsions:
REMARK  status: ('A' for Active; 'I' for Inactive)
REMARK    1  A    between atoms: C_13  and  C_16 
REMARK    2  A    between atoms: C_14  and  C_17 
REMARK    3  A    between atoms: C_15  and  C_18 
REMARK    4  A    between atoms: C_16  and  C_22 
REMARK    5  A    between atoms: C_17  and  C_23 
REMARK    6  A    between atoms: C_18  and  C_24 
REMARK    7  A    between atoms: C_19  and  C_25 
REMARK    8  A    between atoms: C_20  and  C_26 
REMARK    9  A    between atoms: C_21  and  C_27 
ROOT
HETATM    1  O   UNL     1      28.356  27.703   4.311  1.00  0.00    -0.304 OA
HETATM    2  O   UNL     1      30.668  28.422   8.773  1.00  0.00    -0.304 OA
HETATM    3  O   UNL     1      32.184  29.038   4.214  1.00  0.00    -0.304 OA
HETATM    4  O   UNL     1      27.749  28.101   6.800  1.00  0.00    -0.270 OA
HETATM    5  O   UNL     1      32.627  28.319   0.871  1.00  0.00    -0.270 OA
HETATM    6  O   UNL     1      30.444  30.020   6.690  1.00  0.00    -0.270 OA
HETATM    7  O   UNL     1      28.861  26.539   2.385  1.00  0.00    -0.263 OA
HETATM    8  O   UNL     1      31.380  26.599   7.550  1.00  0.00    -0.263 OA
HETATM    9  O   UNL     1      33.029  30.690   2.854  1.00  0.00    -0.263 OA
HETATM   10  N   UNL     1      28.635  26.034   7.371  1.00  0.00    -0.340 N 
HETATM   11  N   UNL     1      30.440  28.676   1.557  1.00  0.00    -0.340 N 
HETATM   12  N   UNL     1      32.714  30.414   6.418  1.00  0.00    -0.340 N 
HETATM   13  C   UNL     1      29.193  26.582   8.623  1.00  0.00     0.190 C 
HETATM   14  C   UNL     1      29.440  28.901   2.621  1.00  0.00     0.190 C 
HETATM   15  C   UNL     1      32.494  31.188   5.174  1.00  0.00     0.190 C 
HETATM   16  C   UNL     1      27.935  26.518   5.020  1.00  0.00     0.227 C 
HETATM   17  C   UNL     1      31.854  29.165   8.426  1.00  0.00     0.227 C 
HETATM   18  C   UNL     1      32.220  28.008   3.222  1.00  0.00     0.227 C 
HETATM   19  C   UNL     1      28.067  26.951   6.474  1.00  0.00     0.250 C 
HETATM   20  C   UNL     1      31.791  28.364   1.782  1.00  0.00     0.250 C 
HETATM   21  C   UNL     1      31.603  29.897   7.103  1.00  0.00     0.250 C 
HETATM   22  C   UNL     1      28.861  27.563   3.052  1.00  0.00     0.283 C 
HETATM   23  C   UNL     1      30.545  27.169   8.240  1.00  0.00     0.283 C 
HETATM   24  C   UNL     1      32.650  30.290   3.947  1.00  0.00     0.283 C 
HETATM   25  C   UNL     1      28.829  24.615   7.069  1.00  0.00     0.153 C 
HETATM   26  C   UNL     1      29.988  28.785   0.169  1.00  0.00     0.153 C 
HETATM   27  C   UNL     1      34.110  30.182   6.804  1.00  0.00     0.153 C 
ENDROOT
BRANCH  16  28
HETATM   28  C   UNL     1      26.491  26.191   4.686  1.00  0.00     0.016 C 
HETATM   29  C   UNL     1      25.634  26.182   5.950  1.00  0.00     0.012 C 
HETATM   30  C   UNL     1      26.396  24.847   3.965  1.00  0.00     0.012 C 
ENDBRANCH  16  28
BRANCH  14  31
HETATM   31  C   UNL     1      28.314  29.866   2.256  1.00  0.00     0.014 C 
HETATM   32  C   UNL     1      26.982  29.113   2.211  1.00  0.00     0.012 C 
BRANCH  31  33
HETATM   33  C   UNL     1      28.213  31.047   3.238  1.00  0.00     0.002 C 
HETATM   34  C   UNL     1      27.753  32.343   2.586  1.00  0.00     0.005 C 
ENDBRANCH  31  33
ENDBRANCH  14  31
BRANCH  13  35
HETATM   35  C   UNL     1      29.363  25.604   9.777  1.00  0.00     0.014 C 
HETATM   36  C   UNL     1      30.629  25.949  10.567  1.00  0.00     0.012 C 
BRANCH  35  37
HETATM   37  C   UNL     1      28.149  25.591  10.722  1.00  0.00     0.002 C 
HETATM   38  C   UNL     1      27.000  24.723  10.223  1.00  0.00     0.005 C 
ENDBRANCH  35  37
ENDBRANCH  13  35
BRANCH  18  39
HETATM   39  C   UNL     1      33.619  27.389   3.251  1.00  0.00     0.016 C 
HETATM   40  C   UNL     1      34.320  27.709   4.569  1.00  0.00     0.012 C 
HETATM   41  C   UNL     1      33.542  25.878   3.037  1.00  0.00     0.012 C 
ENDBRANCH  18  39
BRANCH  17  42
HETATM   42  C   UNL     1      32.094  30.170   9.544  1.00  0.00     0.016 C 
HETATM   43  C   UNL     1      33.220  29.696  10.463  1.00  0.00     0.012 C 
HETATM   44  C   UNL     1      30.813  30.403  10.344  1.00  0.00     0.012 C 
ENDBRANCH  17  42
BRANCH  15  45
HETATM   45  C   UNL     1      33.371  32.434   5.071  1.00  0.00     0.014 C 
HETATM   46  C   UNL     1      34.491  32.203   4.049  1.00  0.00     0.012 C 
BRANCH  45  47
HETATM   47  C   UNL     1      32.570  33.692   4.686  1.00  0.00     0.002 C 
HETATM   48  C   UNL     1      31.063  33.494   4.749  1.00  0.00     0.005 C 
ENDBRANCH  45  47
ENDBRANCH  15  45
TORSDOF 9
ENDMDL
MODEL 9
REMARK VINA RESULT:    -5.989      1.983      4.452
REMARK INTER + INTRA:          -8.171
REMARK INTER:                  -8.746
REMARK INTRA:                   0.576
REMARK UNBOUND:                 0.970
REMARK  9 active torsions:
REMARK  status: ('A' for Active; 'I' for Inactive)
REMARK    1  A    between atoms: C_13  and  C_16 
REMARK    2  A    between atoms: C_14  and  C_17 
REMARK    3  A    between atoms: C_15  and  C_18 
REMARK    4  A    between atoms: C_16  and  C_22 
REMARK    5  A    between atoms: C_17  and  C_23 
REMARK    6  A    between atoms: C_18  and  C_24 
REMARK    7  A    between atoms: C_19  and  C_25 
REMARK    8  A    between atoms: C_20  and  C_26 
REMARK    9  A    between atoms: C_21  and  C_27 
ROOT
HETATM    1  O   UNL     1      31.259  25.742   8.978  1.00  0.00    -0.304 OA
HETATM    2  O   UNL     1      30.981  30.379   6.932  1.00  0.00    -0.304 OA
HETATM    3  O   UNL     1      29.822  26.008   5.195  1.00  0.00    -0.304 OA
HETATM    4  O   UNL     1      31.157  28.221   9.729  1.00  0.00    -0.270 OA
HETATM    5  O   UNL     1      30.153  22.637   4.552  1.00  0.00    -0.270 OA
HETATM    6  O   UNL     1      29.168  28.474   7.096  1.00  0.00    -0.270 OA
HETATM    7  O   UNL     1      32.188  23.731   8.333  1.00  0.00    -0.263 OA
HETATM    8  O   UNL     1      32.638  29.005   6.096  1.00  0.00    -0.263 OA
HETATM    9  O   UNL     1      28.007  24.887   4.333  1.00  0.00    -0.263 OA
HETATM   10  N   UNL     1      33.250  28.610   8.808  1.00  0.00    -0.340 N 
HETATM   11  N   UNL     1      29.931  23.233   6.783  1.00  0.00    -0.340 N 
HETATM   12  N   UNL     1      28.687  28.376   4.828  1.00  0.00    -0.340 N 
HETATM   13  C   UNL     1      32.831  29.945   8.336  1.00  0.00     0.190 C 
HETATM   14  C   UNL     1      29.852  24.258   7.844  1.00  0.00     0.190 C 
HETATM   15  C   UNL     1      27.785  27.214   5.007  1.00  0.00     0.190 C 
HETATM   16  C   UNL     1      32.526  26.291   9.398  1.00  0.00     0.227 C 
HETATM   17  C   UNL     1      30.174  30.183   5.753  1.00  0.00     0.227 C 
HETATM   18  C   UNL     1      30.734  24.912   5.073  1.00  0.00     0.227 C 
HETATM   19  C   UNL     1      32.254  27.789   9.357  1.00  0.00     0.250 C 
HETATM   20  C   UNL     1      30.231  23.498   5.437  1.00  0.00     0.250 C 
HETATM   21  C   UNL     1      29.305  28.936   5.957  1.00  0.00     0.250 C 
HETATM   22  C   UNL     1      31.245  24.505   8.402  1.00  0.00     0.283 C 
HETATM   23  C   UNL     1      32.170  29.706   6.985  1.00  0.00     0.283 C 
HETATM   24  C   UNL     1      28.536  25.906   4.757  1.00  0.00     0.283 C 
HETATM   25  C   UNL     1      34.622  28.166   8.553  1.00  0.00     0.153 C 
HETATM   26  C   UNL     1      29.680  21.843   7.163  1.00  0.00     0.153 C 
HETATM   27  C   UNL     1      28.924  28.812   3.448  1.00  0.00     0.153 C 
ENDROOT
BRANCH  16  28
HETATM   28  C   UNL     1      32.852  25.842  10.811  1.00  0.00     0.016 C 
HETATM   29  C   UNL     1      32.969  27.045  11.745  1.00  0.00     0.012 C 
HETATM   30  C   UNL     1      34.140  25.021  10.832  1.00  0.00     0.012 C 
ENDBRANCH  16  28
BRANCH  14  31
HETATM   31  C   UNL     1      28.882  23.937   8.981  1.00  0.00     0.014 C 
HETATM   32  C   UNL     1      29.651  23.821  10.299  1.00  0.00     0.012 C 
BRANCH  31  33
HETATM   33  C   UNL     1      27.770  24.992   9.116  1.00  0.00     0.002 C 
HETATM   34  C   UNL     1      26.678  24.602  10.101  1.00  0.00     0.005 C 
ENDBRANCH  31  33
ENDBRANCH  14  31
BRANCH  13  35
HETATM   35  C   UNL     1      33.927  30.993   8.196  1.00  0.00     0.014 C 
HETATM   36  C   UNL     1      33.632  31.894   6.994  1.00  0.00     0.012 C 
BRANCH  35  37
HETATM   37  C   UNL     1      34.086  31.851   9.463  1.00  0.00     0.002 C 
HETATM   38  C   UNL     1      35.338  31.524  10.266  1.00  0.00     0.005 C 
ENDBRANCH  35  37
ENDBRANCH  13  35
BRANCH  18  39
HETATM   39  C   UNL     1      31.315  24.952   3.658  1.00  0.00     0.016 C 
HETATM   40  C   UNL     1      31.501  26.395   3.195  1.00  0.00     0.012 C 
HETATM   41  C   UNL     1      32.641  24.195   3.602  1.00  0.00     0.012 C 
ENDBRANCH  18  39
BRANCH  17  42
HETATM   42  C   UNL     1      29.294  31.416   5.606  1.00  0.00     0.016 C 
HETATM   43  C   UNL     1      30.030  32.517   4.842  1.00  0.00     0.012 C 
HETATM   44  C   UNL     1      28.843  31.925   6.974  1.00  0.00     0.012 C 
ENDBRANCH  17  42
BRANCH  15  45
HETATM   45  C   UNL     1      26.513  27.298   4.166  1.00  0.00     0.014 C 
HETATM   46  C   UNL     1      26.659  26.437   2.906  1.00  0.00     0.012 C 
BRANCH  45  47
HETATM   47  C   UNL     1      25.257  26.865   4.946  1.00  0.00     0.002 C 
HETATM   48  C   UNL     1      25.563  26.326   6.336  1.00  0.00     0.005 C 
ENDBRANCH  45  47
ENDBRANCH  15  45
TORSDOF 9
ENDMDL
MODEL 10
REMARK VINA RESULT:    -5.973      2.252      7.367
REMARK INTER + INTRA:          -8.145
REMARK INTER:                  -9.585
REMARK INTRA:                   1.440
REMARK UNBOUND:                 0.970
REMARK  9 active torsions:
REMARK  status: ('A' for Active; 'I' for Inactive)
REMARK    1  A    between atoms: C_13  and  C_16 
REMARK    2  A    between atoms: C_14  and  C_17 
REMARK    3  A    between atoms: C_15  and  C_18 
REMARK    4  A    between atoms: C_16  and  C_22 
REMARK    5  A    between atoms: C_17  and  C_23 
REMARK    6  A    between atoms: C_18  and  C_24 
REMARK    7  A    between atoms: C_19  and  C_25 
REMARK    8  A    between atoms: C_20  and  C_26 
REMARK    9  A    between atoms: C_21  and  C_27 
ROOT
HETATM    1  O   UNL     1      30.002  27.010   7.978  1.00  0.00    -0.304 OA
HETATM    2  O   UNL     1      29.964  25.047   3.297  1.00  0.00    -0.304 OA
HETATM    3  O   UNL     1      32.037  29.031   5.111  1.00  0.00    -0.304 OA
HETATM    4  O   UNL     1      29.607  24.733   6.802  1.00  0.00    -0.270 OA
HETATM    5  O   UNL     1      32.320  31.916   6.977  1.00  0.00    -0.270 OA
HETATM    6  O   UNL     1      31.976  25.866   4.788  1.00  0.00    -0.270 OA
HETATM    7  O   UNL     1      29.505  29.073   8.882  1.00  0.00    -0.263 OA
HETATM    8  O   UNL     1      28.701  26.955   3.601  1.00  0.00    -0.263 OA
HETATM    9  O   UNL     1      34.120  29.986   5.320  1.00  0.00    -0.263 OA
HETATM   10  N   UNL     1      27.678  25.555   5.809  1.00  0.00    -0.340 N 
HETATM   11  N   UNL     1      32.051  29.949   8.176  1.00  0.00    -0.340 N 
HETATM   12  N   UNL     1      32.864  27.347   3.237  1.00  0.00    -0.340 N 
HETATM   13  C   UNL     1      27.976  24.833   4.556  1.00  0.00     0.190 C 
HETATM   14  C   UNL     1      31.790  28.496   8.231  1.00  0.00     0.190 C 
HETATM   15  C   UNL     1      33.878  27.841   4.197  1.00  0.00     0.190 C 
HETATM   16  C   UNL     1      28.614  26.630   7.863  1.00  0.00     0.227 C 
HETATM   17  C   UNL     1      30.989  25.791   2.607  1.00  0.00     0.227 C 
HETATM   18  C   UNL     1      31.331  30.094   5.757  1.00  0.00     0.227 C 
HETATM   19  C   UNL     1      28.668  25.538   6.802  1.00  0.00     0.250 C 
HETATM   20  C   UNL     1      31.961  30.733   7.014  1.00  0.00     0.250 C 
HETATM   21  C   UNL     1      31.979  26.336   3.643  1.00  0.00     0.250 C 
HETATM   22  C   UNL     1      30.299  28.265   8.421  1.00  0.00     0.283 C 
HETATM   23  C   UNL     1      28.895  25.758   3.768  1.00  0.00     0.283 C 
HETATM   24  C   UNL     1      33.382  29.103   4.903  1.00  0.00     0.283 C 
HETATM   25  C   UNL     1      26.453  26.352   5.895  1.00  0.00     0.153 C 
HETATM   26  C   UNL     1      32.430  30.617   9.421  1.00  0.00     0.153 C 
HETATM   27  C   UNL     1      32.816  28.019   1.935  1.00  0.00     0.153 C 
ENDROOT
BRANCH  16  28
HETATM   28  C   UNL     1      28.110  26.073   9.182  1.00  0.00     0.016 C 
HETATM   29  C   UNL     1      28.786  24.740   9.498  1.00  0.00     0.012 C 
HETATM   30  C   UNL     1      26.592  25.910   9.153  1.00  0.00     0.012 C 
ENDBRANCH  16  28
BRANCH  14  31
HETATM   31  C   UNL     1      32.577  27.738   9.299  1.00  0.00     0.014 C 
HETATM   32  C   UNL     1      32.238  26.247   9.231  1.00  0.00     0.012 C 
BRANCH  31  33
HETATM   33  C   UNL     1      34.096  27.935   9.156  1.00  0.00     0.002 C 
HETATM   34  C   UNL     1      34.841  27.909  10.483  1.00  0.00     0.005 C 
ENDBRANCH  31  33
ENDBRANCH  14  31
BRANCH  13  35
HETATM   35  C   UNL     1      26.783  24.439   3.697  1.00  0.00     0.014 C 
HETATM   36  C   UNL     1      26.869  25.138   2.337  1.00  0.00     0.012 C 
BRANCH  35  37
HETATM   37  C   UNL     1      26.681  22.917   3.494  1.00  0.00     0.002 C 
HETATM   38  C   UNL     1      27.951  22.167   3.872  1.00  0.00     0.005 C 
ENDBRANCH  35  37
ENDBRANCH  13  35
BRANCH  18  39
HETATM   39  C   UNL     1      31.012  31.148   4.695  1.00  0.00     0.016 C 
HETATM   40  C   UNL     1      30.727  30.484   3.350  1.00  0.00     0.012 C 
HETATM   41  C   UNL     1      29.828  32.008   5.131  1.00  0.00     0.012 C 
ENDBRANCH  18  39
BRANCH  17  42
HETATM   42  C   UNL     1      31.692  24.819   1.671  1.00  0.00     0.016 C 
HETATM   43  C   UNL     1      31.215  25.014   0.232  1.00  0.00     0.012 C 
HETATM   44  C   UNL     1      31.464  23.376   2.119  1.00  0.00     0.012 C 
ENDBRANCH  17  42
BRANCH  15  45
HETATM   45  C   UNL     1      35.254  28.055   3.570  1.00  0.00     0.014 C 
HETATM   46  C   UNL     1      35.674  26.805   2.789  1.00  0.00     0.012 C 
BRANCH  45  47
HETATM   47  C   UNL     1      35.296  29.284   2.641  1.00  0.00     0.002 C 
HETATM   48  C   UNL     1      36.682  29.576   2.085  1.00  0.00     0.005 C 
ENDBRANCH  45  47
ENDBRANCH  15  45
TORSDOF 9
ENDMDL
MODEL 11
REMARK VINA RESULT:    -5.935      2.558      4.220
REMARK INTER + INTRA:          -8.087
REMARK INTER:                  -8.560
REMARK INTRA:                   0.472
REMARK UNBOUND:                 0.970
REMARK  9 active torsions:
REMARK  status: ('A' for Active; 'I' for Inactive)
REMARK    1  A    between atoms: C_13  and  C_16 
REMARK    2  A    between atoms: C_14  and  C_17 
REMARK    3  A    between atoms: C_15  and  C_18 
REMARK    4  A    between atoms: C_16  and  C_22 
REMARK    5  A    between atoms: C_17  and  C_23 
REMARK    6  A    between atoms: C_18  and  C_24 
REMARK    7  A    between atoms: C_19  and  C_25 
REMARK    8  A    between atoms: C_20  and  C_26 
REMARK    9  A    between atoms: C_21  and  C_27 
ROOT
HETATM    1  O   UNL     1      28.501  26.490   6.913  1.00  0.00    -0.304 OA
HETATM    2  O   UNL     1      31.256  30.730   6.459  1.00  0.00    -0.304 OA
HETATM    3  O   UNL     1      30.201  27.211   3.303  1.00  0.00    -0.304 OA
HETATM    4  O   UNL     1      28.758  28.802   8.059  1.00  0.00    -0.270 OA
HETATM    5  O   UNL     1      29.721  23.999   2.143  1.00  0.00    -0.270 OA
HETATM    6  O   UNL     1      29.315  29.786   4.948  1.00  0.00    -0.270 OA
HETATM    7  O   UNL     1      28.872  24.255   6.485  1.00  0.00    -0.263 OA
HETATM    8  O   UNL     1      32.447  28.753   6.512  1.00  0.00    -0.263 OA
HETATM    9  O   UNL     1      29.215  26.940   1.241  1.00  0.00    -0.263 OA
HETATM   10  N   UNL     1      30.886  28.230   8.786  1.00  0.00    -0.340 N 
HETATM   11  N   UNL     1      28.269  24.710   3.806  1.00  0.00    -0.340 N 
HETATM   12  N   UNL     1      30.497  29.822   2.952  1.00  0.00    -0.340 N 
HETATM   13  C   UNL     1      31.377  29.599   8.530  1.00  0.00     0.190 C 
HETATM   14  C   UNL     1      27.844  25.708   4.810  1.00  0.00     0.190 C 
HETATM   15  C   UNL     1      29.395  29.162   2.215  1.00  0.00     0.190 C 
HETATM   16  C   UNL     1      29.234  26.463   8.157  1.00  0.00     0.227 C 
HETATM   17  C   UNL     1      31.456  30.855   5.037  1.00  0.00     0.227 C 
HETATM   18  C   UNL     1      30.515  25.827   3.490  1.00  0.00     0.227 C 
HETATM   19  C   UNL     1      29.586  27.931   8.354  1.00  0.00     0.250 C 
HETATM   20  C   UNL     1      29.464  24.776   3.071  1.00  0.00     0.250 C 
HETATM   21  C   UNL     1      30.329  30.105   4.316  1.00  0.00     0.250 C 
HETATM   22  C   UNL     1      28.465  25.359   6.153  1.00  0.00     0.283 C 
HETATM   23  C   UNL     1      31.775  29.617   7.060  1.00  0.00     0.283 C 
HETATM   24  C   UNL     1      29.618  27.651   2.153  1.00  0.00     0.283 C 
HETATM   25  C   UNL     1      31.810  27.236   9.335  1.00  0.00     0.153 C 
HETATM   26  C   UNL     1      27.381  23.574   3.562  1.00  0.00     0.153 C 
HETATM   27  C   UNL     1      31.731  30.067   2.198  1.00  0.00     0.153 C 
ENDROOT
BRANCH  16  28
HETATM   28  C   UNL     1      28.343  25.967   9.281  1.00  0.00     0.016 C 
HETATM   29  C   UNL     1      27.224  26.968   9.563  1.00  0.00     0.012 C 
HETATM   30  C   UNL     1      29.162  25.711  10.545  1.00  0.00     0.012 C 
ENDBRANCH  16  28
BRANCH  14  31
HETATM   31  C   UNL     1      26.333  25.871   4.959  1.00  0.00     0.014 C 
HETATM   32  C   UNL     1      25.959  25.901   6.443  1.00  0.00     0.012 C 
BRANCH  31  33
HETATM   33  C   UNL     1      25.810  27.140   4.263  1.00  0.00     0.002 C 
HETATM   34  C   UNL     1      25.801  27.042   2.744  1.00  0.00     0.005 C 
ENDBRANCH  31  33
ENDBRANCH  14  31
BRANCH  13  35
HETATM   35  C   UNL     1      32.543  30.075   9.386  1.00  0.00     0.014 C 
HETATM   36  C   UNL     1      33.401  31.063   8.591  1.00  0.00     0.012 C 
BRANCH  35  37
HETATM   37  C   UNL     1      32.081  30.727  10.701  1.00  0.00     0.002 C 
HETATM   38  C   UNL     1      32.992  31.851  11.175  1.00  0.00     0.005 C 
ENDBRANCH  35  37
ENDBRANCH  13  35
BRANCH  18  39
HETATM   39  C   UNL     1      31.865  25.566   2.820  1.00  0.00     0.016 C 
HETATM   40  C   UNL     1      32.789  26.770   2.987  1.00  0.00     0.012 C 
HETATM   41  C   UNL     1      32.514  24.308   3.394  1.00  0.00     0.012 C 
ENDBRANCH  18  39
BRANCH  17  42
HETATM   42  C   UNL     1      31.391  32.340   4.707  1.00  0.00     0.016 C 
HETATM   43  C   UNL     1      32.638  33.061   5.217  1.00  0.00     0.012 C 
HETATM   44  C   UNL     1      30.130  32.970   5.296  1.00  0.00     0.012 C 
ENDBRANCH  17  42
BRANCH  15  45
HETATM   45  C   UNL     1      29.155  29.750   0.826  1.00  0.00     0.014 C 
HETATM   46  C   UNL     1      27.809  29.265   0.276  1.00  0.00     0.012 C 
BRANCH  45  47
HETATM   47  C   UNL     1      29.192  31.290   0.821  1.00  0.00     0.002 C 
HETATM   48  C   UNL     1      28.023  31.927   1.557  1.00  0.00     0.005 C 
ENDBRANCH  45  47
ENDBRANCH  15  45
TORSDOF 9
ENDMDL
MODEL 12
REMARK VINA RESULT:    -5.712      3.006      6.960
REMARK INTER + INTRA:          -7.747
REMARK INTER:                  -8.077
REMARK INTRA:                   0.330
REMARK UNBOUND:                 0.970
REMARK  9 active torsions:
REMARK  status: ('A' for Active; 'I' for Inactive)
REMARK    1  A    between atoms: C_13  and  C_16 
REMARK    2  A    between atoms: C_14  and  C_17 
REMARK    3  A    between atoms: C_15  and  C_18 
REMARK    4  A    between atoms: C_16  and  C_22 
REMARK    5  A    between atoms: C_17  and  C_23 
REMARK    6  A    between atoms: C_18  and  C_24 
REMARK    7  A    between atoms: C_19  and  C_25 
REMARK    8  A    between atoms: C_20  and  C_26 
REMARK    9  A    between atoms: C_21  and  C_27 
ROOT
HETATM    1  O   UNL     1      31.408  28.344   6.727  1.00  0.00    -0.304 OA
HETATM    2  O   UNL     1      30.675  30.247   2.079  1.00  0.00    -0.304 OA
HETATM    3  O   UNL     1      29.142  26.157   4.172  1.00  0.00    -0.304 OA
HETATM    4  O   UNL     1      31.485  30.627   5.501  1.00  0.00    -0.270 OA
HETATM    5  O   UNL     1      29.311  23.283   6.068  1.00  0.00    -0.270 OA
HETATM    6  O   UNL     1      28.945  29.315   3.833  1.00  0.00    -0.270 OA
HETATM    7  O   UNL     1      32.161  26.330   7.561  1.00  0.00    -0.263 OA
HETATM    8  O   UNL     1      32.094  28.431   2.213  1.00  0.00    -0.263 OA
HETATM    9  O   UNL     1      27.176  25.069   4.667  1.00  0.00    -0.263 OA
HETATM   10  N   UNL     1      33.312  29.924   4.256  1.00  0.00    -0.340 N 
HETATM   11  N   UNL     1      29.608  25.278   7.213  1.00  0.00    -0.340 N 
HETATM   12  N   UNL     1      27.956  27.759   2.423  1.00  0.00    -0.340 N 
HETATM   13  C   UNL     1      32.797  30.608   3.053  1.00  0.00     0.190 C 
HETATM   14  C   UNL     1      29.776  26.746   7.227  1.00  0.00     0.190 C 
HETATM   15  C   UNL     1      27.118  27.211   3.515  1.00  0.00     0.190 C 
HETATM   16  C   UNL     1      32.739  28.814   6.422  1.00  0.00     0.227 C 
HETATM   17  C   UNL     1      29.619  29.428   1.538  1.00  0.00     0.227 C 
HETATM   18  C   UNL     1      30.000  25.151   4.719  1.00  0.00     0.227 C 
HETATM   19  C   UNL     1      32.467  29.887   5.375  1.00  0.00     0.250 C 
HETATM   20  C   UNL     1      29.592  24.487   6.052  1.00  0.00     0.250 C 
HETATM   21  C   UNL     1      28.818  28.832   2.702  1.00  0.00     0.250 C 
HETATM   22  C   UNL     1      31.260  27.078   7.211  1.00  0.00     0.283 C 
HETATM   23  C   UNL     1      31.844  29.615   2.401  1.00  0.00     0.283 C 
HETATM   24  C   UNL     1      27.790  25.994   4.150  1.00  0.00     0.283 C 
HETATM   25  C   UNL     1      34.588  29.210   4.176  1.00  0.00     0.153 C 
HETATM   26  C   UNL     1      29.449  24.602   8.500  1.00  0.00     0.153 C 
HETATM   27  C   UNL     1      27.871  27.076   1.129  1.00  0.00     0.153 C 
ENDROOT
BRANCH  16  28
HETATM   28  C   UNL     1      33.379  29.419   7.658  1.00  0.00     0.016 C 
HETATM   29  C   UNL     1      33.408  30.943   7.559  1.00  0.00     0.012 C 
HETATM   30  C   UNL     1      34.790  28.868   7.858  1.00  0.00     0.012 C 
ENDBRANCH  16  28
BRANCH  14  31
HETATM   31  C   UNL     1      29.093  27.463   8.390  1.00  0.00     0.014 C 
HETATM   32  C   UNL     1      29.998  28.582   8.912  1.00  0.00     0.012 C 
BRANCH  31  33
HETATM   33  C   UNL     1      27.722  28.041   7.997  1.00  0.00     0.002 C 
HETATM   34  C   UNL     1      26.703  26.980   7.606  1.00  0.00     0.005 C 
ENDBRANCH  31  33
ENDBRANCH  14  31
BRANCH  13  35
HETATM   35  C   UNL     1      33.833  31.070   2.038  1.00  0.00     0.014 C 
HETATM   36  C   UNL     1      33.169  31.269   0.673  1.00  0.00     0.012 C 
BRANCH  35  37
HETATM   37  C   UNL     1      34.540  32.368   2.467  1.00  0.00     0.002 C 
HETATM   38  C   UNL     1      36.058  32.252   2.501  1.00  0.00     0.005 C 
ENDBRANCH  35  37
ENDBRANCH  13  35
BRANCH  18  39
HETATM   39  C   UNL     1      30.241  24.108   3.626  1.00  0.00     0.016 C 
HETATM   40  C   UNL     1      30.322  24.776   2.255  1.00  0.00     0.012 C 
HETATM   41  C   UNL     1      31.515  23.315   3.913  1.00  0.00     0.012 C 
ENDBRANCH  18  39
BRANCH  17  42
HETATM   42  C   UNL     1      28.730  30.340   0.704  1.00  0.00     0.016 C 
HETATM   43  C   UNL     1      29.145  30.300  -0.767  1.00  0.00     0.012 C 
HETATM   44  C   UNL     1      28.777  31.773   1.233  1.00  0.00     0.012 C 
ENDBRANCH  17  42
BRANCH  15  45
HETATM   45  C   UNL     1      25.687  26.898   3.082  1.00  0.00     0.014 C 
HETATM   46  C   UNL     1      24.732  27.068   4.269  1.00  0.00     0.012 C 
BRANCH  45  47
HETATM   47  C   UNL     1      25.217  27.780   1.909  1.00  0.00     0.002 C 
HETATM   48  C   UNL     1      23.879  28.460   2.160  1.00  0.00     0.005 C 
ENDBRANCH  45  47
ENDBRANCH  15  45
TORSDOF 9
ENDMDL
MODEL 13
REMARK VINA RESULT:    -5.697      2.082      3.807
REMARK INTER + INTRA:          -7.725
REMARK INTER:                  -9.077
REMARK INTRA:                   1.352
REMARK UNBOUND:                 0.970
REMARK  9 active torsions:
REMARK  status: ('A' for Active; 'I' for Inactive)
REMARK    1  A    between atoms: C_13  and  C_16 
REMARK    2  A    between atoms: C_14  and  C_17 
REMARK    3  A    between atoms: C_15  and  C_18 
REMARK    4  A    between atoms: C_16  and  C_22 
REMARK    5  A    between atoms: C_17  and  C_23 
REMARK    6  A    between atoms: C_18  and  C_24 
REMARK    7  A    between atoms: C_19  and  C_25 
REMARK    8  A    between atoms: C_20  and  C_26 
REMARK    9  A    between atoms: C_21  and  C_27 
ROOT
HETATM    1  O   UNL     1      30.571  26.586   8.383  1.00  0.00    -0.304 OA
HETATM    2  O   UNL     1      31.501  31.328   6.830  1.00  0.00    -0.304 OA
HETATM    3  O   UNL     1      30.581  27.251   4.383  1.00  0.00    -0.304 OA
HETATM    4  O   UNL     1      30.467  29.011   9.294  1.00  0.00    -0.270 OA
HETATM    5  O   UNL     1      30.769  23.907   3.563  1.00  0.00    -0.270 OA
HETATM    6  O   UNL     1      29.560  29.669   6.180  1.00  0.00    -0.270 OA
HETATM    7  O   UNL     1      31.456  24.512   7.899  1.00  0.00    -0.263 OA
HETATM    8  O   UNL     1      33.195  29.800   6.477  1.00  0.00    -0.263 OA
HETATM    9  O   UNL     1      29.077  26.426   2.849  1.00  0.00    -0.263 OA
HETATM   10  N   UNL     1      32.778  29.176   9.182  1.00  0.00    -0.340 N 
HETATM   11  N   UNL     1      29.844  24.399   5.632  1.00  0.00    -0.340 N 
HETATM   12  N   UNL     1      29.894  29.763   3.886  1.00  0.00    -0.340 N 
HETATM   13  C   UNL     1      32.689  30.579   8.730  1.00  0.00     0.190 C 
HETATM   14  C   UNL     1      29.504  25.364   6.699  1.00  0.00     0.190 C 
HETATM   15  C   UNL     1      28.873  28.720   3.632  1.00  0.00     0.190 C 
HETATM   16  C   UNL     1      31.661  26.942   9.260  1.00  0.00     0.227 C 
HETATM   17  C   UNL     1      31.140  31.306   5.434  1.00  0.00     0.227 C 
HETATM   18  C   UNL     1      31.361  26.054   4.471  1.00  0.00     0.227 C 
HETATM   19  C   UNL     1      31.575  28.462   9.277  1.00  0.00     0.250 C 
HETATM   20  C   UNL     1      30.621  24.699   4.501  1.00  0.00     0.250 C 
HETATM   21  C   UNL     1      30.133  30.173   5.206  1.00  0.00     0.250 C 
HETATM   22  C   UNL     1      30.632  25.396   7.718  1.00  0.00     0.283 C 
HETATM   23  C   UNL     1      32.521  30.504   7.218  1.00  0.00     0.283 C 
HETATM   24  C   UNL     1      29.526  27.342   3.526  1.00  0.00     0.283 C 
HETATM   25  C   UNL     1      34.100  28.573   9.367  1.00  0.00     0.153 C 
HETATM   26  C   UNL     1      29.335  23.034   5.766  1.00  0.00     0.153 C 
HETATM   27  C   UNL     1      30.641  30.242   2.719  1.00  0.00     0.153 C 
ENDROOT
BRANCH  16  28
HETATM   28  C   UNL     1      31.425  26.374  10.648  1.00  0.00     0.016 C 
HETATM   29  C   UNL     1      31.624  27.453  11.712  1.00  0.00     0.012 C 
HETATM   30  C   UNL     1      32.350  25.187  10.910  1.00  0.00     0.012 C 
ENDBRANCH  16  28
BRANCH  14  31
HETATM   31  C   UNL     1      28.172  25.108   7.401  1.00  0.00     0.014 C 
HETATM   32  C   UNL     1      28.420  24.754   8.869  1.00  0.00     0.012 C 
BRANCH  31  33
HETATM   33  C   UNL     1      27.221  26.315   7.308  1.00  0.00     0.002 C 
HETATM   34  C   UNL     1      26.709  26.580   5.900  1.00  0.00     0.005 C 
ENDBRANCH  31  33
ENDBRANCH  14  31
BRANCH  13  35
HETATM   35  C   UNL     1      33.866  31.481   9.074  1.00  0.00     0.014 C 
HETATM   36  C   UNL     1      33.794  31.888  10.548  1.00  0.00     0.012 C 
BRANCH  35  37
HETATM   37  C   UNL     1      35.222  30.816   8.782  1.00  0.00     0.002 C 
HETATM   38  C   UNL     1      36.391  31.476   9.503  1.00  0.00     0.005 C 
ENDBRANCH  35  37
ENDBRANCH  13  35
BRANCH  18  39
HETATM   39  C   UNL     1      32.400  26.098   3.349  1.00  0.00     0.016 C 
HETATM   40  C   UNL     1      32.975  27.506   3.205  1.00  0.00     0.012 C 
HETATM   41  C   UNL     1      33.515  25.088   3.611  1.00  0.00     0.012 C 
ENDBRANCH  18  39
BRANCH  17  42
HETATM   42  C   UNL     1      30.498  32.649   5.118  1.00  0.00     0.016 C 
HETATM   43  C   UNL     1      31.552  33.756   5.080  1.00  0.00     0.012 C 
HETATM   44  C   UNL     1      29.411  32.982   6.138  1.00  0.00     0.012 C 
ENDBRANCH  17  42
BRANCH  15  45
HETATM   45  C   UNL     1      27.990  29.016   2.421  1.00  0.00     0.014 C 
HETATM   46  C   UNL     1      26.668  28.249   2.537  1.00  0.00     0.012 C 
BRANCH  45  47
HETATM   47  C   UNL     1      27.703  30.520   2.252  1.00  0.00     0.002 C 
HETATM   48  C   UNL     1      26.497  30.812   1.371  1.00  0.00     0.005 C 
ENDBRANCH  45  47
ENDBRANCH  15  45
TORSDOF 9
ENDMDL
MODEL 14
REMARK VINA RESULT:    -5.660      1.695      6.423
REMARK INTER + INTRA:          -7.668
REMARK INTER:                  -8.859
REMARK INTRA:                   1.191
REMARK UNBOUND:                 0.970
REMARK  9 active torsions:
REMARK  status: ('A' for Active; 'I' for Inactive)
REMARK    1  A    between atoms: C_13  and  C_16 
REMARK    2  A    between atoms: C_14  and  C_17 
REMARK    3  A    between atoms: C_15  and  C_18 
REMARK    4  A    between atoms: C_16  and  C_22 
REMARK    5  A    between atoms: C_17  and  C_23 
REMARK    6  A    between atoms: C_18  and  C_24 
REMARK    7  A    between atoms: C_19  and  C_25 
REMARK    8  A    between atoms: C_20  and  C_26 
REMARK    9  A    between atoms: C_21  and  C_27 
ROOT
HETATM    1  O   UNL     1      32.239  28.662   5.669  1.00  0.00    -0.304 OA
HETATM    2  O   UNL     1      33.848  27.528  10.349  1.00  0.00    -0.304 OA
HETATM    3  O   UNL     1      29.961  26.099   7.836  1.00  0.00    -0.304 OA
HETATM    4  O   UNL     1      34.430  28.678   7.055  1.00  0.00    -0.270 OA
HETATM    5  O   UNL     1      27.217  26.377   5.767  1.00  0.00    -0.270 OA
HETATM    6  O   UNL     1      33.093  25.954   8.375  1.00  0.00    -0.270 OA
HETATM    7  O   UNL     1      30.261  29.440   4.772  1.00  0.00    -0.263 OA
HETATM    8  O   UNL     1      31.999  28.905  10.223  1.00  0.00    -0.263 OA
HETATM    9  O   UNL     1      28.974  24.163   7.080  1.00  0.00    -0.263 OA
HETATM   10  N   UNL     1      33.584  30.355   8.416  1.00  0.00    -0.340 N 
HETATM   11  N   UNL     1      29.273  26.838   4.800  1.00  0.00    -0.340 N 
HETATM   12  N   UNL     1      31.480  24.791   9.571  1.00  0.00    -0.340 N 
HETATM   13  C   UNL     1      34.202  29.744   9.610  1.00  0.00     0.190 C 
HETATM   14  C   UNL     1      30.733  27.045   4.904  1.00  0.00     0.190 C 
HETATM   15  C   UNL     1      31.035  24.049   8.369  1.00  0.00     0.190 C 
HETATM   16  C   UNL     1      32.643  29.968   6.133  1.00  0.00     0.227 C 
HETATM   17  C   UNL     1      33.030  26.402  10.726  1.00  0.00     0.227 C 
HETATM   18  C   UNL     1      28.966  26.980   7.304  1.00  0.00     0.227 C 
HETATM   19  C   UNL     1      33.651  29.624   7.222  1.00  0.00     0.250 C 
HETATM   20  C   UNL     1      28.408  26.687   5.895  1.00  0.00     0.250 C 
HETATM   21  C   UNL     1      32.540  25.704   9.453  1.00  0.00     0.250 C 
HETATM   22  C   UNL     1      31.013  28.528   5.086  1.00  0.00     0.283 C 
HETATM   23  C   UNL     1      33.200  28.705  10.096  1.00  0.00     0.283 C 
HETATM   24  C   UNL     1      29.841  24.748   7.717  1.00  0.00     0.283 C 
HETATM   25  C   UNL     1      32.825  31.598   8.568  1.00  0.00     0.153 C 
HETATM   26  C   UNL     1      28.691  26.787   3.458  1.00  0.00     0.153 C 
HETATM   27  C   UNL     1      30.714  24.562  10.800  1.00  0.00     0.153 C 
ENDROOT
BRANCH  16  28
HETATM   28  C   UNL     1      33.308  30.742   5.010  1.00  0.00     0.016 C 
HETATM   29  C   UNL     1      32.452  31.939   4.600  1.00  0.00     0.012 C 
HETATM   30  C   UNL     1      33.567  29.834   3.809  1.00  0.00     0.012 C 
ENDBRANCH  16  28
BRANCH  14  31
HETATM   31  C   UNL     1      31.549  26.498   3.734  1.00  0.00     0.014 C 
HETATM   32  C   UNL     1      33.038  26.518   4.088  1.00  0.00     0.012 C 
BRANCH  31  33
HETATM   33  C   UNL     1      31.125  25.072   3.342  1.00  0.00     0.002 C 
HETATM   34  C   UNL     1      31.516  24.016   4.366  1.00  0.00     0.005 C 
ENDBRANCH  31  33
ENDBRANCH  14  31
BRANCH  13  35
HETATM   35  C   UNL     1      34.560  30.688  10.750  1.00  0.00     0.014 C 
HETATM   36  C   UNL     1      34.235  30.027  12.092  1.00  0.00     0.012 C 
BRANCH  35  37
HETATM   37  C   UNL     1      36.040  31.108  10.722  1.00  0.00     0.002 C 
HETATM   38  C   UNL     1      36.541  31.484   9.334  1.00  0.00     0.005 C 
ENDBRANCH  35  37
ENDBRANCH  13  35
BRANCH  18  39
HETATM   39  C   UNL     1      27.844  27.085   8.339  1.00  0.00     0.016 C 
HETATM   40  C   UNL     1      28.195  26.289   9.594  1.00  0.00     0.012 C 
HETATM   41  C   UNL     1      27.574  28.547   8.690  1.00  0.00     0.012 C 
ENDBRANCH  18  39
BRANCH  17  42
HETATM   42  C   UNL     1      33.912  25.461  11.534  1.00  0.00     0.016 C 
HETATM   43  C   UNL     1      33.960  25.890  13.000  1.00  0.00     0.012 C 
HETATM   44  C   UNL     1      35.322  25.405  10.947  1.00  0.00     0.012 C 
ENDBRANCH  17  42
BRANCH  15  45
HETATM   45  C   UNL     1      30.741  22.575   8.639  1.00  0.00     0.014 C 
HETATM   46  C   UNL     1      30.916  21.761   7.352  1.00  0.00     0.012 C 
BRANCH  45  47
HETATM   47  C   UNL     1      31.635  21.987   9.748  1.00  0.00     0.002 C 
HETATM   48  C   UNL     1      31.536  20.474   9.868  1.00  0.00     0.005 C 
ENDBRANCH  45  47
ENDBRANCH  15  45
TORSDOF 9
ENDMDL
MODEL 15
REMARK VINA RESULT:    -5.375      4.178      9.252
REMARK INTER + INTRA:          -7.233
REMARK INTER:                  -8.068
REMARK INTRA:                   0.835
REMARK UNBOUND:                 0.970
REMARK  9 active torsions:
REMARK  status: ('A' for Active; 'I' for Inactive)
REMARK    1  A    between atoms: C_13  and  C_16 
REMARK    2  A    between atoms: C_14  and  C_17 
REMARK    3  A    between atoms: C_15  and  C_18 
REMARK    4  A    between atoms: C_16  and  C_22 
REMARK    5  A    between atoms: C_17  and  C_23 
REMARK    6  A    between atoms: C_18  and  C_24 
REMARK    7  A    between atoms: C_19  and  C_25 
REMARK    8  A    between atoms: C_20  and  C_26 
REMARK    9  A    between atoms: C_21  and  C_27 
ROOT
HETATM    1  O   UNL     1      29.181  27.761   0.813  1.00  0.00    -0.304 OA
HETATM    2  O   UNL     1      30.326  23.066   2.366  1.00  0.00    -0.304 OA
HETATM    3  O   UNL     1      29.886  27.246   4.774  1.00  0.00    -0.304 OA
HETATM    4  O   UNL     1      28.897  25.306   0.031  1.00  0.00    -0.270 OA
HETATM    5  O   UNL     1      30.245  30.614   5.415  1.00  0.00    -0.270 OA
HETATM    6  O   UNL     1      28.544  24.778   3.279  1.00  0.00    -0.270 OA
HETATM    7  O   UNL     1      30.156  29.838   1.053  1.00  0.00    -0.263 OA
HETATM    8  O   UNL     1      32.070  24.579   2.357  1.00  0.00    -0.263 OA
HETATM    9  O   UNL     1      28.682  28.151   6.513  1.00  0.00    -0.263 OA
HETATM   10  N   UNL     1      31.191  25.108  -0.257  1.00  0.00    -0.340 N 
HETATM   11  N   UNL     1      28.968  30.060   3.560  1.00  0.00    -0.340 N 
HETATM   12  N   UNL     1      29.274  24.765   5.482  1.00  0.00    -0.340 N 
HETATM   13  C   UNL     1      31.169  23.725   0.260  1.00  0.00     0.190 C 
HETATM   14  C   UNL     1      28.438  29.062   2.609  1.00  0.00     0.190 C 
HETATM   15  C   UNL     1      28.323  25.833   5.868  1.00  0.00     0.190 C 
HETATM   16  C   UNL     1      30.097  27.356  -0.226  1.00  0.00     0.227 C 
HETATM   17  C   UNL     1      30.216  23.146   3.802  1.00  0.00     0.227 C 
HETATM   18  C   UNL     1      30.650  28.426   4.503  1.00  0.00     0.227 C 
HETATM   19  C   UNL     1      29.996  25.837  -0.168  1.00  0.00     0.250 C 
HETATM   20  C   UNL     1      29.928  29.790   4.549  1.00  0.00     0.250 C 
HETATM   21  C   UNL     1      29.274  24.302   4.157  1.00  0.00     0.250 C 
HETATM   22  C   UNL     1      29.369  28.973   1.410  1.00  0.00     0.283 C 
HETATM   23  C   UNL     1      31.270  23.858   1.774  1.00  0.00     0.283 C 
HETATM   24  C   UNL     1      28.997  27.204   5.805  1.00  0.00     0.283 C 
HETATM   25  C   UNL     1      32.465  25.683  -0.693  1.00  0.00     0.153 C 
HETATM   26  C   UNL     1      28.455  31.427   3.464  1.00  0.00     0.153 C 
HETATM   27  C   UNL     1      30.210  24.318   6.518  1.00  0.00     0.153 C 
ENDROOT
BRANCH  16  28
HETATM   28  C   UNL     1      29.627  27.874  -1.573  1.00  0.00     0.016 C 
HETATM   29  C   UNL     1      28.142  27.578  -1.776  1.00  0.00     0.012 C 
HETATM   30  C   UNL     1      30.454  27.265  -2.704  1.00  0.00     0.012 C 
ENDBRANCH  16  28
BRANCH  14  31
HETATM   31  C   UNL     1      27.005  29.312   2.141  1.00  0.00     0.014 C 
HETATM   32  C   UNL     1      27.018  29.915   0.734  1.00  0.00     0.012 C 
BRANCH  31  33
HETATM   33  C   UNL     1      26.154  28.030   2.152  1.00  0.00     0.002 C 
HETATM   34  C   UNL     1      24.655  28.295   2.195  1.00  0.00     0.005 C 
ENDBRANCH  31  33
ENDBRANCH  14  31
BRANCH  13  35
HETATM   35  C   UNL     1      32.260  22.792  -0.249  1.00  0.00     0.014 C 
HETATM   36  C   UNL     1      32.496  21.669   0.765  1.00  0.00     0.012 C 
BRANCH  35  37
HETATM   37  C   UNL     1      31.924  22.189  -1.624  1.00  0.00     0.002 C 
HETATM   38  C   UNL     1      33.044  22.340  -2.644  1.00  0.00     0.005 C 
ENDBRANCH  35  37
ENDBRANCH  13  35
BRANCH  18  39
HETATM   39  C   UNL     1      31.869  28.407   5.427  1.00  0.00     0.016 C 
HETATM   40  C   UNL     1      32.358  26.977   5.641  1.00  0.00     0.012 C 
HETATM   41  C   UNL     1      32.987  29.277   4.856  1.00  0.00     0.012 C 
ENDBRANCH  18  39
BRANCH  17  42
HETATM   42  C   UNL     1      29.627  21.825   4.278  1.00  0.00     0.016 C 
HETATM   43  C   UNL     1      30.331  20.647   3.607  1.00  0.00     0.012 C 
HETATM   44  C   UNL     1      28.124  21.775   4.007  1.00  0.00     0.012 C 
ENDBRANCH  17  42
BRANCH  15  45
HETATM   45  C   UNL     1      27.663  25.596   7.226  1.00  0.00     0.014 C 
HETATM   46  C   UNL     1      28.542  26.171   8.343  1.00  0.00     0.012 C 
BRANCH  45  47
HETATM   47  C   UNL     1      26.251  26.206   7.312  1.00  0.00     0.002 C 
HETATM   48  C   UNL     1      25.506  26.199   5.986  1.00  0.00     0.005 C 
ENDBRANCH  45  47
ENDBRANCH  15  45
TORSDOF 9
ENDMDL
MODEL 16
REMARK VINA RESULT:    -5.247      2.773      7.229
REMARK INTER + INTRA:          -7.038
REMARK INTER:                  -7.784
REMARK INTRA:                   0.746
REMARK UNBOUND:                 0.970
REMARK  9 active torsions:
REMARK  status: ('A' for Active; 'I' for Inactive)
REMARK    1  A    between atoms: C_13  and  C_16 
REMARK    2  A    between atoms: C_14  and  C_17 
REMARK    3  A    between atoms: C_15  and  C_18 
REMARK    4  A    between atoms: C_16  and  C_22 
REMARK    5  A    between atoms: C_17  and  C_23 
REMARK    6  A    between atoms: C_18  and  C_24 
REMARK    7  A    between atoms: C_19  and  C_25 
REMARK    8  A    between atoms: C_20  and  C_26 
REMARK    9  A    between atoms: C_21  and  C_27 
ROOT
HETATM    1  O   UNL     1      33.200  28.389   3.371  1.00  0.00    -0.304 OA
HETATM    2  O   UNL     1      31.715  27.654   8.169  1.00  0.00    -0.304 OA
HETATM    3  O   UNL     1      29.700  26.422   3.941  1.00  0.00    -0.304 OA
HETATM    4  O   UNL     1      34.217  28.303   5.754  1.00  0.00    -0.270 OA
HETATM    5  O   UNL     1      28.663  26.782   0.672  1.00  0.00    -0.270 OA
HETATM    6  O   UNL     1      31.923  25.954   6.168  1.00  0.00    -0.270 OA
HETATM    7  O   UNL     1      32.224  29.291   1.486  1.00  0.00    -0.263 OA
HETATM    8  O   UNL     1      30.520  29.225   6.973  1.00  0.00    -0.263 OA
HETATM    9  O   UNL     1      28.980  24.546   2.820  1.00  0.00    -0.263 OA
HETATM   10  N   UNL     1      33.064  30.229   6.341  1.00  0.00    -0.340 N 
HETATM   11  N   UNL     1      30.953  26.857   1.030  1.00  0.00    -0.340 N 
HETATM   12  N   UNL     1      29.745  25.160   6.272  1.00  0.00    -0.340 N 
HETATM   13  C   UNL     1      32.799  29.699   7.693  1.00  0.00     0.190 C 
HETATM   14  C   UNL     1      32.119  26.891   1.938  1.00  0.00     0.190 C 
HETATM   15  C   UNL     1      29.921  24.336   5.054  1.00  0.00     0.190 C 
HETATM   16  C   UNL     1      33.498  29.682   3.940  1.00  0.00     0.227 C 
HETATM   17  C   UNL     1      30.645  26.695   8.051  1.00  0.00     0.227 C 
HETATM   18  C   UNL     1      29.338  27.347   2.911  1.00  0.00     0.227 C 
HETATM   19  C   UNL     1      33.654  29.352   5.419  1.00  0.00     0.250 C 
HETATM   20  C   UNL     1      29.615  26.953   1.443  1.00  0.00     0.250 C 
HETATM   21  C   UNL     1      30.831  25.911   6.747  1.00  0.00     0.250 C 
HETATM   22  C   UNL     1      32.503  28.339   2.200  1.00  0.00     0.283 C 
HETATM   23  C   UNL     1      31.533  28.862   7.556  1.00  0.00     0.283 C 
HETATM   24  C   UNL     1      29.434  25.092   3.817  1.00  0.00     0.283 C 
HETATM   25  C   UNL     1      32.578  31.567   5.995  1.00  0.00     0.153 C 
HETATM   26  C   UNL     1      31.215  26.714  -0.403  1.00  0.00     0.153 C 
HETATM   27  C   UNL     1      28.400  25.183   6.856  1.00  0.00     0.153 C 
ENDROOT
BRANCH  16  28
HETATM   28  C   UNL     1      34.797  30.221   3.369  1.00  0.00     0.016 C 
HETATM   29  C   UNL     1      34.528  31.403   2.441  1.00  0.00     0.012 C 
HETATM   30  C   UNL     1      35.558  29.122   2.630  1.00  0.00     0.012 C 
ENDBRANCH  16  28
BRANCH  14  31
HETATM   31  C   UNL     1      33.337  26.105   1.456  1.00  0.00     0.014 C 
HETATM   32  C   UNL     1      32.937  24.655   1.172  1.00  0.00     0.012 C 
BRANCH  31  33
HETATM   33  C   UNL     1      33.976  26.726   0.202  1.00  0.00     0.002 C 
HETATM   34  C   UNL     1      34.898  25.774  -0.547  1.00  0.00     0.005 C 
ENDBRANCH  31  33
ENDBRANCH  14  31
BRANCH  13  35
HETATM   35  C   UNL     1      32.622  30.724   8.804  1.00  0.00     0.014 C 
HETATM   36  C   UNL     1      31.725  30.148   9.903  1.00  0.00     0.012 C 
BRANCH  35  37
HETATM   37  C   UNL     1      33.963  31.174   9.409  1.00  0.00     0.002 C 
HETATM   38  C   UNL     1      35.047  30.107   9.345  1.00  0.00     0.005 C 
ENDBRANCH  35  37
ENDBRANCH  13  35
BRANCH  18  39
HETATM   39  C   UNL     1      27.869  27.720   3.122  1.00  0.00     0.016 C 
HETATM   40  C   UNL     1      27.529  27.740   4.610  1.00  0.00     0.012 C 
HETATM   41  C   UNL     1      27.563  29.074   2.483  1.00  0.00     0.012 C 
ENDBRANCH  18  39
BRANCH  17  42
HETATM   42  C   UNL     1      30.751  25.759   9.246  1.00  0.00     0.016 C 
HETATM   43  C   UNL     1      30.829  26.552  10.550  1.00  0.00     0.012 C 
HETATM   44  C   UNL     1      31.964  24.840   9.107  1.00  0.00     0.012 C 
ENDBRANCH  17  42
BRANCH  15  45
HETATM   45  C   UNL     1      29.276  22.955   5.156  1.00  0.00     0.014 C 
HETATM   46  C   UNL     1      29.632  22.118   3.922  1.00  0.00     0.012 C 
BRANCH  45  47
HETATM   47  C   UNL     1      29.694  22.200   6.432  1.00  0.00     0.002 C 
HETATM   48  C   UNL     1      31.201  22.106   6.615  1.00  0.00     0.005 C 
ENDBRANCH  45  47
ENDBRANCH  15  45
TORSDOF 9
ENDMDL
MODEL 17
REMARK VINA RESULT:    -5.235      2.936      7.257
REMARK INTER + INTRA:          -7.020
REMARK INTER:                  -8.059
REMARK INTRA:                   1.040
REMARK UNBOUND:                 0.970
REMARK  9 active torsions:
REMARK  status: ('A' for Active; 'I' for Inactive)
REMARK    1  A    between atoms: C_13  and  C_16 
REMARK    2  A    between atoms: C_14  and  C_17 
REMARK    3  A    between atoms: C_15  and  C_18 
REMARK    4  A    between atoms: C_16  and  C_22 
REMARK    5  A    between atoms: C_17  and  C_23 
REMARK    6  A    between atoms: C_18  and  C_24 
REMARK    7  A    between atoms: C_19  and  C_25 
REMARK    8  A    between atoms: C_20  and  C_26 
REMARK    9  A    between atoms: C_21  and  C_27 
ROOT
HETATM    1  O   UNL     1      30.915  28.552   6.591  1.00  0.00    -0.304 OA
HETATM    2  O   UNL     1      31.980  24.339   3.966  1.00  0.00    -0.304 OA
HETATM    3  O   UNL     1      32.344  29.033   2.826  1.00  0.00    -0.304 OA
HETATM    4  O   UNL     1      31.455  26.052   7.016  1.00  0.00    -0.270 OA
HETATM    5  O   UNL     1      31.425  32.350   2.620  1.00  0.00    -0.270 OA
HETATM    6  O   UNL     1      33.434  26.492   4.401  1.00  0.00    -0.270 OA
HETATM    7  O   UNL     1      29.644  30.436   6.198  1.00  0.00    -0.263 OA
HETATM    8  O   UNL     1      30.102  25.501   3.292  1.00  0.00    -0.263 OA
HETATM    9  O   UNL     1      33.928  30.555   2.142  1.00  0.00    -0.263 OA
HETATM   10  N   UNL     1      29.453  25.427   6.023  1.00  0.00    -0.340 N 
HETATM   11  N   UNL     1      31.766  31.517   4.757  1.00  0.00    -0.340 N 
HETATM   12  N   UNL     1      33.872  26.967   2.172  1.00  0.00    -0.340 N 
HETATM   13  C   UNL     1      30.095  24.258   5.388  1.00  0.00     0.190 C 
HETATM   14  C   UNL     1      32.032  30.392   5.679  1.00  0.00     0.190 C 
HETATM   15  C   UNL     1      34.558  28.234   2.512  1.00  0.00     0.190 C 
HETATM   16  C   UNL     1      29.767  27.740   6.918  1.00  0.00     0.227 C 
HETATM   17  C   UNL     1      32.730  24.824   2.834  1.00  0.00     0.227 C 
HETATM   18  C   UNL     1      31.254  29.960   2.833  1.00  0.00     0.227 C 
HETATM   19  C   UNL     1      30.295  26.330   6.687  1.00  0.00     0.250 C 
HETATM   20  C   UNL     1      31.506  31.380   3.384  1.00  0.00     0.250 C 
HETATM   21  C   UNL     1      33.370  26.166   3.209  1.00  0.00     0.250 C 
HETATM   22  C   UNL     1      30.709  29.836   6.180  1.00  0.00     0.283 C 
HETATM   23  C   UNL     1      30.692  24.782   4.088  1.00  0.00     0.283 C 
HETATM   24  C   UNL     1      33.588  29.413   2.423  1.00  0.00     0.283 C 
HETATM   25  C   UNL     1      28.023  25.655   5.808  1.00  0.00     0.153 C 
HETATM   26  C   UNL     1      31.775  32.868   5.318  1.00  0.00     0.153 C 
HETATM   27  C   UNL     1      33.702  26.679   0.744  1.00  0.00     0.153 C 
ENDROOT
BRANCH  16  28
HETATM   28  C   UNL     1      29.380  27.938   8.372  1.00  0.00     0.016 C 
HETATM   29  C   UNL     1      29.503  26.627   9.146  1.00  0.00     0.012 C 
HETATM   30  C   UNL     1      27.961  28.493   8.481  1.00  0.00     0.012 C 
ENDBRANCH  16  28
BRANCH  14  31
HETATM   31  C   UNL     1      32.941  30.726   6.860  1.00  0.00     0.014 C 
HETATM   32  C   UNL     1      32.132  30.695   8.160  1.00  0.00     0.012 C 
BRANCH  31  33
HETATM   33  C   UNL     1      34.138  29.765   6.968  1.00  0.00     0.002 C 
HETATM   34  C   UNL     1      34.619  29.549   8.395  1.00  0.00     0.005 C 
ENDBRANCH  31  33
ENDBRANCH  14  31
BRANCH  13  35
HETATM   35  C   UNL     1      29.197  23.063   5.098  1.00  0.00     0.014 C 
HETATM   36  C   UNL     1      29.250  22.725   3.605  1.00  0.00     0.012 C 
BRANCH  35  37
HETATM   37  C   UNL     1      29.581  21.824   5.925  1.00  0.00     0.002 C 
HETATM   38  C   UNL     1      30.681  22.090   6.944  1.00  0.00     0.005 C 
ENDBRANCH  35  37
ENDBRANCH  13  35
BRANCH  18  39
HETATM   39  C   UNL     1      30.676  30.003   1.417  1.00  0.00     0.016 C 
HETATM   40  C   UNL     1      30.735  28.621   0.771  1.00  0.00     0.012 C 
HETATM   41  C   UNL     1      29.241  30.525   1.440  1.00  0.00     0.012 C 
ENDBRANCH  18  39
BRANCH  17  42
HETATM   42  C   UNL     1      33.811  23.792   2.541  1.00  0.00     0.016 C 
HETATM   43  C   UNL     1      35.189  24.330   2.923  1.00  0.00     0.012 C 
HETATM   44  C   UNL     1      33.785  23.387   1.067  1.00  0.00     0.012 C 
ENDBRANCH  17  42
BRANCH  15  45
HETATM   45  C   UNL     1      35.819  28.483   1.685  1.00  0.00     0.014 C 
HETATM   46  C   UNL     1      36.515  29.762   2.163  1.00  0.00     0.012 C 
BRANCH  45  47
HETATM   47  C   UNL     1      36.807  27.303   1.744  1.00  0.00     0.002 C 
HETATM   48  C   UNL     1      37.381  26.925   0.387  1.00  0.00     0.005 C 
ENDBRANCH  45  47
ENDBRANCH  15  45
TORSDOF 9
ENDMDL
MODEL 18
REMARK VINA RESULT:    -5.200      2.964      7.772
REMARK INTER + INTRA:          -6.966
REMARK INTER:                  -7.667
REMARK INTRA:                   0.701
REMARK UNBOUND:                 0.970
REMARK  9 active torsions:
REMARK  status: ('A' for Active; 'I' for Inactive)
REMARK    1  A    between atoms: C_13  and  C_16 
REMARK    2  A    between atoms: C_14  and  C_17 
REMARK    3  A    between atoms: C_15  and  C_18 
REMARK    4  A    between atoms: C_16  and  C_22 
REMARK    5  A    between atoms: C_17  and  C_23 
REMARK    6  A    between atoms: C_18  and  C_24 
REMARK    7  A    between atoms: C_19  and  C_25 
REMARK    8  A    between atoms: C_20  and  C_26 
REMARK    9  A    between atoms: C_21  and  C_27 
ROOT
HETATM    1  O   UNL     1      30.200  27.361   6.881  1.00  0.00    -0.304 OA
HETATM    2  O   UNL     1      29.145  25.965   2.115  1.00  0.00    -0.304 OA
HETATM    3  O   UNL     1      31.003  30.045   3.949  1.00  0.00    -0.304 OA
HETATM    4  O   UNL     1      29.846  25.197   5.497  1.00  0.00    -0.270 OA
HETATM    5  O   UNL     1      31.352  32.703   6.116  1.00  0.00    -0.270 OA
HETATM    6  O   UNL     1      31.344  26.984   3.148  1.00  0.00    -0.270 OA
HETATM    7  O   UNL     1      29.665  29.175   8.201  1.00  0.00    -0.263 OA
HETATM    8  O   UNL     1      27.739  27.547   3.038  1.00  0.00    -0.263 OA
HETATM    9  O   UNL     1      32.887  31.354   3.763  1.00  0.00    -0.263 OA
HETATM   10  N   UNL     1      27.612  25.738   5.181  1.00  0.00    -0.340 N 
HETATM   11  N   UNL     1      31.740  30.599   7.012  1.00  0.00    -0.340 N 
HETATM   12  N   UNL     1      31.517  28.773   1.679  1.00  0.00    -0.340 N 
HETATM   13  C   UNL     1      27.652  25.232   3.794  1.00  0.00     0.190 C 
HETATM   14  C   UNL     1      31.733  29.126   6.899  1.00  0.00     0.190 C 
HETATM   15  C   UNL     1      32.672  29.342   2.412  1.00  0.00     0.190 C 
HETATM   16  C   UNL     1      28.912  26.736   7.068  1.00  0.00     0.227 C 
HETATM   17  C   UNL     1      29.805  26.965   1.314  1.00  0.00     0.227 C 
HETATM   18  C   UNL     1      30.353  30.873   4.917  1.00  0.00     0.227 C 
HETATM   19  C   UNL     1      28.832  25.801   5.868  1.00  0.00     0.250 C 
HETATM   20  C   UNL     1      31.205  31.476   6.055  1.00  0.00     0.250 C 
HETATM   21  C   UNL     1      30.950  27.571   2.133  1.00  0.00     0.250 C 
HETATM   22  C   UNL     1      30.411  28.592   7.428  1.00  0.00     0.283 C 
HETATM   23  C   UNL     1      28.156  26.399   2.954  1.00  0.00     0.283 C 
HETATM   24  C   UNL     1      32.206  30.398   3.415  1.00  0.00     0.283 C 
HETATM   25  C   UNL     1      26.353  26.269   5.706  1.00  0.00     0.153 C 
HETATM   26  C   UNL     1      32.347  31.184   8.208  1.00  0.00     0.153 C 
HETATM   27  C   UNL     1      31.000  29.565   0.559  1.00  0.00     0.153 C 
ENDROOT
BRANCH  16  28
HETATM   28  C   UNL     1      28.893  25.949   8.366  1.00  0.00     0.016 C 
HETATM   29  C   UNL     1      28.868  24.448   8.085  1.00  0.00     0.012 C 
HETATM   30  C   UNL     1      27.697  26.353   9.225  1.00  0.00     0.012 C 
ENDBRANCH  16  28
BRANCH  14  31
HETATM   31  C   UNL     1      32.897  28.419   7.592  1.00  0.00     0.014 C 
HETATM   32  C   UNL     1      32.533  26.956   7.852  1.00  0.00     0.012 C 
BRANCH  31  33
HETATM   33  C   UNL     1      34.198  28.495   6.773  1.00  0.00     0.002 C 
HETATM   34  C   UNL     1      34.030  28.072   5.321  1.00  0.00     0.005 C 
ENDBRANCH  31  33
ENDBRANCH  14  31
BRANCH  13  35
HETATM   35  C   UNL     1      26.340  24.714   3.220  1.00  0.00     0.014 C 
HETATM   36  C   UNL     1      26.242  25.080   1.736  1.00  0.00     0.012 C 
BRANCH  35  37
HETATM   37  C   UNL     1      26.182  23.193   3.393  1.00  0.00     0.002 C 
HETATM   38  C   UNL     1      27.478  22.486   3.768  1.00  0.00     0.005 C 
ENDBRANCH  35  37
ENDBRANCH  13  35
BRANCH  18  39
HETATM   39  C   UNL     1      29.588  31.958   4.156  1.00  0.00     0.016 C 
HETATM   40  C   UNL     1      28.976  31.387   2.879  1.00  0.00     0.012 C 
HETATM   41  C   UNL     1      28.506  32.572   5.042  1.00  0.00     0.012 C 
ENDBRANCH  18  39
BRANCH  17  42
HETATM   42  C   UNL     1      30.356  26.258   0.084  1.00  0.00     0.016 C 
HETATM   43  C   UNL     1      29.485  26.542  -1.139  1.00  0.00     0.012 C 
HETATM   44  C   UNL     1      30.461  24.753   0.327  1.00  0.00     0.012 C 
ENDBRANCH  17  42
BRANCH  15  45
HETATM   45  C   UNL     1      33.764  29.887   1.493  1.00  0.00     0.014 C 
HETATM   46  C   UNL     1      33.596  31.400   1.318  1.00  0.00     0.012 C 
BRANCH  45  47
HETATM   47  C   UNL     1      35.182  29.581   2.013  1.00  0.00     0.002 C 
HETATM   48  C   UNL     1      36.143  30.752   1.877  1.00  0.00     0.005 C 
ENDBRANCH  45  47
ENDBRANCH  15  45
TORSDOF 9
ENDMDL
MODEL 19
REMARK VINA RESULT:    -5.181      2.055      6.566
REMARK INTER + INTRA:          -6.937
REMARK INTER:                  -7.456
REMARK INTRA:                   0.519
REMARK UNBOUND:                 0.970
REMARK  9 active torsions:
REMARK  status: ('A' for Active; 'I' for Inactive)
REMARK    1  A    between atoms: C_13  and  C_16 
REMARK    2  A    between atoms: C_14  and  C_17 
REMARK    3  A    between atoms: C_15  and  C_18 
REMARK    4  A    between atoms: C_16  and  C_22 
REMARK    5  A    between atoms: C_17  and  C_23 
REMARK    6  A    between atoms: C_18  and  C_24 
REMARK    7  A    between atoms: C_19  and  C_25 
REMARK    8  A    between atoms: C_20  and  C_26 
REMARK    9  A    between atoms: C_21  and  C_27 
ROOT
HETATM    1  O   UNL     1      31.560  25.882   9.008  1.00  0.00    -0.304 OA
HETATM    2  O   UNL     1      30.305  26.434   4.121  1.00  0.00    -0.304 OA
HETATM    3  O   UNL     1      31.028  29.667   7.654  1.00  0.00    -0.304 OA
HETATM    4  O   UNL     1      31.707  24.567   6.778  1.00  0.00    -0.270 OA
HETATM    5  O   UNL     1      30.836  31.048  10.807  1.00  0.00    -0.270 OA
HETATM    6  O   UNL     1      32.196  27.597   5.539  1.00  0.00    -0.270 OA
HETATM    7  O   UNL     1      30.682  26.624  11.008  1.00  0.00    -0.263 OA
HETATM    8  O   UNL     1      28.625  26.853   5.648  1.00  0.00    -0.263 OA
HETATM    9  O   UNL     1      32.351  31.491   8.120  1.00  0.00    -0.263 OA
HETATM   10  N   UNL     1      29.396  24.373   6.714  1.00  0.00    -0.340 N 
HETATM   11  N   UNL     1      31.999  29.048  10.639  1.00  0.00    -0.340 N 
HETATM   12  N   UNL     1      31.574  29.781   5.062  1.00  0.00    -0.340 N 
HETATM   13  C   UNL     1      29.387  24.573   5.251  1.00  0.00     0.190 C 
HETATM   14  C   UNL     1      32.442  27.873   9.860  1.00  0.00     0.190 C 
HETATM   15  C   UNL     1      32.585  30.337   5.991  1.00  0.00     0.190 C 
HETATM   16  C   UNL     1      30.579  24.832   8.868  1.00  0.00     0.227 C 
HETATM   17  C   UNL     1      30.487  27.843   3.880  1.00  0.00     0.227 C 
HETATM   18  C   UNL     1      30.301  29.704   8.885  1.00  0.00     0.227 C 
HETATM   19  C   UNL     1      30.622  24.552   7.372  1.00  0.00     0.250 C 
HETATM   20  C   UNL     1      31.078  30.006  10.185  1.00  0.00     0.250 C 
HETATM   21  C   UNL     1      31.491  28.389   4.902  1.00  0.00     0.250 C 
HETATM   22  C   UNL     1      31.450  26.738  10.064  1.00  0.00     0.283 C 
HETATM   23  C   UNL     1      29.366  26.083   5.051  1.00  0.00     0.283 C 
HETATM   24  C   UNL     1      31.964  30.612   7.360  1.00  0.00     0.283 C 
HETATM   25  C   UNL     1      28.127  24.145   7.407  1.00  0.00     0.153 C 
HETATM   26  C   UNL     1      32.560  29.223  11.979  1.00  0.00     0.153 C 
HETATM   27  C   UNL     1      30.672  30.746   4.424  1.00  0.00     0.153 C 
ENDROOT
BRANCH  16  28
HETATM   28  C   UNL     1      31.004  23.607   9.657  1.00  0.00     0.016 C 
HETATM   29  C   UNL     1      31.180  22.404   8.731  1.00  0.00     0.012 C 
HETATM   30  C   UNL     1      29.989  23.293  10.754  1.00  0.00     0.012 C 
ENDBRANCH  16  28
BRANCH  14  31
HETATM   31  C   UNL     1      33.859  27.392  10.166  1.00  0.00     0.014 C 
HETATM   32  C   UNL     1      33.861  25.872  10.346  1.00  0.00     0.012 C 
BRANCH  31  33
HETATM   33  C   UNL     1      34.861  27.789   9.069  1.00  0.00     0.002 C 
HETATM   34  C   UNL     1      35.163  29.280   9.030  1.00  0.00     0.005 C 
ENDBRANCH  31  33
ENDBRANCH  14  31
BRANCH  13  35
HETATM   35  C   UNL     1      28.237  23.935   4.484  1.00  0.00     0.014 C 
HETATM   36  C   UNL     1      27.786  24.867   3.356  1.00  0.00     0.012 C 
BRANCH  35  37
HETATM   37  C   UNL     1      28.607  22.558   3.905  1.00  0.00     0.002 C 
HETATM   38  C   UNL     1      29.088  21.566   4.956  1.00  0.00     0.005 C 
ENDBRANCH  35  37
ENDBRANCH  13  35
BRANCH  18  39
HETATM   39  C   UNL     1      29.128  30.668   8.699  1.00  0.00     0.016 C 
HETATM   40  C   UNL     1      28.977  31.051   7.229  1.00  0.00     0.012 C 
HETATM   41  C   UNL     1      27.835  30.049   9.228  1.00  0.00     0.012 C 
ENDBRANCH  18  39
BRANCH  17  42
HETATM   42  C   UNL     1      31.045  27.986   2.470  1.00  0.00     0.016 C 
HETATM   43  C   UNL     1      29.948  28.416   1.496  1.00  0.00     0.012 C 
HETATM   44  C   UNL     1      31.688  26.679   2.009  1.00  0.00     0.012 C 
ENDBRANCH  17  42
BRANCH  15  45
HETATM   45  C   UNL     1      33.300  31.571   5.442  1.00  0.00     0.014 C 
HETATM   46  C   UNL     1      34.514  31.905   6.316  1.00  0.00     0.012 C 
BRANCH  45  47
HETATM   47  C   UNL     1      33.748  31.393   3.979  1.00  0.00     0.002 C 
HETATM   48  C   UNL     1      34.027  32.708   3.267  1.00  0.00     0.005 C 
ENDBRANCH  45  47
ENDBRANCH  15  45
TORSDOF 9
ENDMDL
MODEL 20
REMARK VINA RESULT:    -5.029      3.772      8.179
REMARK INTER + INTRA:          -6.705
REMARK INTER:                  -7.084
REMARK INTRA:                   0.379
REMARK UNBOUND:                 0.970
REMARK  9 active torsions:
REMARK  status: ('A' for Active; 'I' for Inactive)
REMARK    1  A    between atoms: C_13  and  C_16 
REMARK    2  A    between atoms: C_14  and  C_17 
REMARK    3  A    between atoms: C_15  and  C_18 
REMARK    4  A    between atoms: C_16  and  C_22 
REMARK    5  A    between atoms: C_17  and  C_23 
REMARK    6  A    between atoms: C_18  and  C_24 
REMARK    7  A    between atoms: C_19  and  C_25 
REMARK    8  A    between atoms: C_20  and  C_26 
REMARK    9  A    between atoms: C_21  and  C_27 
ROOT
HETATM    1  O   UNL     1      28.104  29.058   1.672  1.00  0.00    -0.304 OA
HETATM    2  O   UNL     1      32.194  29.665   4.617  1.00  0.00    -0.304 OA
HETATM    3  O   UNL     1      28.940  26.091   4.308  1.00  0.00    -0.304 OA
HETATM    4  O   UNL     1      30.323  30.398   1.705  1.00  0.00    -0.270 OA
HETATM    5  O   UNL     1      25.838  24.613   4.028  1.00  0.00    -0.270 OA
HETATM    6  O   UNL     1      31.458  27.628   3.117  1.00  0.00    -0.270 OA
HETATM    7  O   UNL     1      25.880  28.580   2.054  1.00  0.00    -0.263 OA
HETATM    8  O   UNL     1      30.151  29.886   5.669  1.00  0.00    -0.263 OA
HETATM    9  O   UNL     1      28.851  23.828   3.902  1.00  0.00    -0.263 OA
HETATM   10  N   UNL     1      29.585  31.620   3.535  1.00  0.00    -0.340 N 
HETATM   11  N   UNL     1      26.531  25.879   2.213  1.00  0.00    -0.340 N 
HETATM   12  N   UNL     1      31.546  26.026   4.793  1.00  0.00    -0.340 N 
HETATM   13  C   UNL     1      30.936  31.605   4.131  1.00  0.00     0.190 C 
HETATM   14  C   UNL     1      27.489  26.804   1.574  1.00  0.00     0.190 C 
HETATM   15  C   UNL     1      30.997  24.976   3.903  1.00  0.00     0.190 C 
HETATM   16  C   UNL     1      27.958  30.446   2.043  1.00  0.00     0.227 C 
HETATM   17  C   UNL     1      32.393  28.360   5.196  1.00  0.00     0.227 C 
HETATM   18  C   UNL     1      27.531  26.253   4.504  1.00  0.00     0.227 C 
HETATM   19  C   UNL     1      29.389  30.837   2.387  1.00  0.00     0.250 C 
HETATM   20  C   UNL     1      26.570  25.494   3.563  1.00  0.00     0.250 C 
HETATM   21  C   UNL     1      31.755  27.313   4.276  1.00  0.00     0.250 C 
HETATM   22  C   UNL     1      27.024  28.235   1.797  1.00  0.00     0.283 C 
HETATM   23  C   UNL     1      31.019  30.299   4.910  1.00  0.00     0.283 C 
HETATM   24  C   UNL     1      29.481  24.864   4.074  1.00  0.00     0.283 C 
HETATM   25  C   UNL     1      28.507  32.319   4.236  1.00  0.00     0.153 C 
HETATM   26  C   UNL     1      25.465  25.325   1.377  1.00  0.00     0.153 C 
HETATM   27  C   UNL     1      31.763  25.646   6.192  1.00  0.00     0.153 C 
ENDROOT
BRANCH  16  28
HETATM   28  C   UNL     1      27.449  31.254   0.863  1.00  0.00     0.016 C 
HETATM   29  C   UNL     1      28.464  32.325   0.466  1.00  0.00     0.012 C 
HETATM   30  C   UNL     1      26.099  31.891   1.189  1.00  0.00     0.012 C 
ENDBRANCH  16  28
BRANCH  14  31
HETATM   31  C   UNL     1      27.732  26.559   0.086  1.00  0.00     0.014 C 
HETATM   32  C   UNL     1      27.265  27.772  -0.721  1.00  0.00     0.012 C 
BRANCH  31  33
HETATM   33  C   UNL     1      29.209  26.261  -0.225  1.00  0.00     0.002 C 
HETATM   34  C   UNL     1      29.421  24.962  -0.989  1.00  0.00     0.005 C 
ENDBRANCH  31  33
ENDBRANCH  14  31
BRANCH  13  35
HETATM   35  C   UNL     1      31.290  32.772   5.043  1.00  0.00     0.014 C 
HETATM   36  C   UNL     1      32.513  32.415   5.891  1.00  0.00     0.012 C 
BRANCH  35  37
HETATM   37  C   UNL     1      31.560  34.069   4.260  1.00  0.00     0.002 C 
HETATM   38  C   UNL     1      30.808  35.276   4.805  1.00  0.00     0.005 C 
ENDBRANCH  35  37
ENDBRANCH  13  35
BRANCH  18  39
HETATM   39  C   UNL     1      27.233  25.948   5.973  1.00  0.00     0.016 C 
HETATM   40  C   UNL     1      28.309  26.547   6.875  1.00  0.00     0.012 C 
HETATM   41  C   UNL     1      25.853  26.476   6.360  1.00  0.00     0.012 C 
ENDBRANCH  18  39
BRANCH  17  42
HETATM   42  C   UNL     1      33.896  28.135   5.283  1.00  0.00     0.016 C 
HETATM   43  C   UNL     1      34.463  28.755   6.560  1.00  0.00     0.012 C 
HETATM   44  C   UNL     1      34.600  28.708   4.053  1.00  0.00     0.012 C 
ENDBRANCH  17  42
BRANCH  15  45
HETATM   45  C   UNL     1      31.680  23.620   4.069  1.00  0.00     0.014 C 
HETATM   46  C   UNL     1      30.859  22.731   5.010  1.00  0.00     0.012 C 
BRANCH  45  47
HETATM   47  C   UNL     1      31.893  22.896   2.726  1.00  0.00     0.002 C 
HETATM   48  C   UNL     1      31.975  23.839   1.535  1.00  0.00     0.005 C 
ENDBRANCH  45  47
ENDBRANCH  15  45
TORSDOF 9
ENDMDL
