MODEL 1
REMARK VINA RESULT:    -4.973      0.000      0.000
REMARK INTER + INTRA:          -7.106
REMARK INTER:                  -7.589
REMARK INTRA:                   0.483
REMARK UNBOUND:                 0.483
REMARK  9 active torsions:
REMARK  status: ('A' for Active; 'I' for Inactive)
REMARK    1  A    between atoms: C_13  and  C_16 
REMARK    2  A    between atoms: C_14  and  C_17 
REMARK    3  A    between atoms: C_15  and  C_18 
REMARK    4  A    between atoms: C_16  and  C_22 
REMARK    5  A    between atoms: C_17  and  C_23 
REMARK    6  A    between atoms: C_18  and  C_24 
REMARK    7  A    between atoms: C_19  and  C_25 
REMARK    8  A    between atoms: C_20  and  C_26 
REMARK    9  A    between atoms: C_21  and  C_27 
ROOT
HETATM    1  O   UNL     1      45.328  33.998   3.506  1.00  0.00    -0.304 OA
HETATM    2  O   UNL     1      49.933  36.048   2.903  1.00  0.00    -0.304 OA
HETATM    3  O   UNL     1      45.984  36.098   0.099  1.00  0.00    -0.304 OA
HETATM    4  O   UNL     1      47.363  34.722   4.941  1.00  0.00    -0.270 OA
HETATM    5  O   UNL     1      43.192  34.868  -1.507  1.00  0.00    -0.270 OA
HETATM    6  O   UNL     1      47.541  37.128   2.675  1.00  0.00    -0.270 OA
HETATM    7  O   UNL     1      43.978  32.627   2.235  1.00  0.00    -0.263 OA
HETATM    8  O   UNL     1      49.457  34.226   1.567  1.00  0.00    -0.263 OA
HETATM    9  O   UNL     1      44.548  37.604  -0.884  1.00  0.00    -0.263 OA
HETATM   10  N   UNL     1      48.658  33.049   3.988  1.00  0.00    -0.340 N 
HETATM   11  N   UNL     1      43.121  34.860   0.811  1.00  0.00    -0.340 N 
HETATM   12  N   UNL     1      47.830  37.952   0.526  1.00  0.00    -0.340 N 
HETATM   13  C   UNL     1      49.839  33.935   3.957  1.00  0.00     0.190 C 
HETATM   14  C   UNL     1      43.769  35.060   2.124  1.00  0.00     0.190 C 
HETATM   15  C   UNL     1      46.423  38.406   0.444  1.00  0.00     0.190 C 
HETATM   16  C   UNL     1      46.163  32.908   3.952  1.00  0.00     0.227 C 
HETATM   17  C   UNL     1      49.760  36.953   1.794  1.00  0.00     0.227 C 
HETATM   18  C   UNL     1      45.332  34.931  -0.411  1.00  0.00     0.227 C 
HETATM   19  C   UNL     1      47.439  33.629   4.365  1.00  0.00     0.250 C 
HETATM   20  C   UNL     1      43.788  34.901  -0.424  1.00  0.00     0.250 C 
HETATM   21  C   UNL     1      48.280  37.345   1.708  1.00  0.00     0.250 C 
HETATM   22  C   UNL     1      44.339  33.734   2.604  1.00  0.00     0.283 C 
HETATM   23  C   UNL     1      49.718  34.720   2.657  1.00  0.00     0.283 C 
HETATM   24  C   UNL     1      45.554  37.347  -0.235  1.00  0.00     0.283 C 
HETATM   25  C   UNL     1      48.788  31.675   3.497  1.00  0.00     0.153 C 
HETATM   26  C   UNL     1      41.681  34.600   0.799  1.00  0.00     0.153 C 
HETATM   27  C   UNL     1      48.639  38.111  -0.687  1.00  0.00     0.153 C 
ENDROOT
BRANCH  16  28
HETATM   28  C   UNL     1      45.528  32.213   5.143  1.00  0.00     0.016 C 
HETATM   29  C   UNL     1      46.469  32.239   6.346  1.00  0.00     0.012 C 
HETATM   30  C   UNL     1      45.150  30.776   4.790  1.00  0.00     0.012 C 
ENDBRANCH  16  28
BRANCH  14  31
HETATM   31  C   UNL     1      42.872  35.665   3.202  1.00  0.00     0.014 C 
HETATM   32  C   UNL     1      42.466  34.582   4.205  1.00  0.00     0.012 C 
BRANCH  31  33
HETATM   33  C   UNL     1      43.550  36.832   3.940  1.00  0.00     0.002 C 
HETATM   34  C   UNL     1      43.770  38.059   3.067  1.00  0.00     0.005 C 
ENDBRANCH  31  33
ENDBRANCH  14  31
BRANCH  13  35
HETATM   35  C   UNL     1      51.200  33.258   4.025  1.00  0.00     0.014 C 
HETATM   36  C   UNL     1      52.308  34.315   4.007  1.00  0.00     0.012 C 
BRANCH  35  37
HETATM   37  C   UNL     1      51.352  32.367   5.271  1.00  0.00     0.002 C 
HETATM   38  C   UNL     1      50.652  32.921   6.504  1.00  0.00     0.005 C 
ENDBRANCH  35  37
ENDBRANCH  13  35
BRANCH  18  39
HETATM   39  C   UNL     1      45.908  34.652  -1.801  1.00  0.00     0.016 C 
HETATM   40  C   UNL     1      47.395  34.994  -1.844  1.00  0.00     0.012 C 
HETATM   41  C   UNL     1      45.681  33.193  -2.193  1.00  0.00     0.012 C 
ENDBRANCH  18  39
BRANCH  17  42
HETATM   42  C   UNL     1      50.612  38.181   2.083  1.00  0.00     0.016 C 
HETATM   43  C   UNL     1      51.915  37.783   2.776  1.00  0.00     0.012 C 
HETATM   44  C   UNL     1      49.839  39.186   2.935  1.00  0.00     0.012 C 
ENDBRANCH  17  42
BRANCH  15  45
HETATM   45  C   UNL     1      46.263  39.771  -0.223  1.00  0.00     0.014 C 
HETATM   46  C   UNL     1      44.990  40.457   0.286  1.00  0.00     0.012 C 
BRANCH  45  47
HETATM   47  C   UNL     1      47.476  40.691   0.013  1.00  0.00     0.002 C 
HETATM   48  C   UNL     1      47.520  41.889  -0.923  1.00  0.00     0.005 C 
ENDBRANCH  45  47
ENDBRANCH  15  45
TORSDOF 9
ENDMDL
MODEL 2
REMARK VINA RESULT:    -4.741      1.708      2.301
REMARK INTER + INTRA:          -6.752
REMARK INTER:                  -7.221
REMARK INTRA:                   0.469
REMARK UNBOUND:                 0.483
REMARK  9 active torsions:
REMARK  status: ('A' for Active; 'I' for Inactive)
REMARK    1  A    between atoms: C_13  and  C_16 
REMARK    2  A    between atoms: C_14  and  C_17 
REMARK    3  A    between atoms: C_15  and  C_18 
REMARK    4  A    between atoms: C_16  and  C_22 
REMARK    5  A    between atoms: C_17  and  C_23 
REMARK    6  A    between atoms: C_18  and  C_24 
REMARK    7  A    between atoms: C_19  and  C_25 
REMARK    8  A    between atoms: C_20  and  C_26 
REMARK    9  A    between atoms: C_21  and  C_27 
ROOT
HETATM    1  O   UNL     1      44.670  36.089   2.286  1.00  0.00    -0.304 OA
HETATM    2  O   UNL     1      49.693  36.404   2.948  1.00  0.00    -0.304 OA
HETATM    3  O   UNL     1      46.851  37.559  -0.801  1.00  0.00    -0.304 OA
HETATM    4  O   UNL     1      46.397  36.195   4.216  1.00  0.00    -0.270 OA
HETATM    5  O   UNL     1      44.308  37.220  -3.103  1.00  0.00    -0.270 OA
HETATM    6  O   UNL     1      47.965  38.208   2.108  1.00  0.00    -0.270 OA
HETATM    7  O   UNL     1      43.295  35.157   0.686  1.00  0.00    -0.263 OA
HETATM    8  O   UNL     1      48.966  34.749   1.512  1.00  0.00    -0.263 OA
HETATM    9  O   UNL     1      46.327  39.377  -2.111  1.00  0.00    -0.263 OA
HETATM   10  N   UNL     1      47.225  34.112   3.621  1.00  0.00    -0.340 N 
HETATM   11  N   UNL     1      43.656  37.424  -0.887  1.00  0.00    -0.340 N 
HETATM   12  N   UNL     1      49.056  38.708   0.122  1.00  0.00    -0.340 N 
HETATM   13  C   UNL     1      48.608  34.541   3.914  1.00  0.00     0.190 C 
HETATM   14  C   UNL     1      43.979  37.499   0.553  1.00  0.00     0.190 C 
HETATM   15  C   UNL     1      47.963  39.603  -0.325  1.00  0.00     0.190 C 
HETATM   16  C   UNL     1      44.932  34.821   2.924  1.00  0.00     0.227 C 
HETATM   17  C   UNL     1      50.131  37.221   1.844  1.00  0.00     0.227 C 
HETATM   18  C   UNL     1      45.986  36.644  -1.479  1.00  0.00     0.227 C 
HETATM   19  C   UNL     1      46.230  35.099   3.669  1.00  0.00     0.250 C 
HETATM   20  C   UNL     1      44.585  37.137  -1.901  1.00  0.00     0.250 C 
HETATM   21  C   UNL     1      48.953  38.082   1.374  1.00  0.00     0.250 C 
HETATM   22  C   UNL     1      43.913  36.103   1.151  1.00  0.00     0.283 C 
HETATM   23  C   UNL     1      49.100  35.212   2.638  1.00  0.00     0.283 C 
HETATM   24  C   UNL     1      46.982  38.848  -1.221  1.00  0.00     0.283 C 
HETATM   25  C   UNL     1      46.989  32.740   3.166  1.00  0.00     0.153 C 
HETATM   26  C   UNL     1      42.269  37.667  -1.283  1.00  0.00     0.153 C 
HETATM   27  C   UNL     1      50.147  38.485  -0.832  1.00  0.00     0.153 C 
ENDROOT
BRANCH  16  28
HETATM   28  C   UNL     1      43.817  34.481   3.895  1.00  0.00     0.016 C 
HETATM   29  C   UNL     1      43.672  35.573   4.953  1.00  0.00     0.012 C 
HETATM   30  C   UNL     1      44.071  33.127   4.556  1.00  0.00     0.012 C 
ENDBRANCH  16  28
BRANCH  14  31
HETATM   31  C   UNL     1      43.108  38.458   1.362  1.00  0.00     0.014 C 
HETATM   32  C   UNL     1      42.193  37.661   2.297  1.00  0.00     0.012 C 
BRANCH  31  33
HETATM   33  C   UNL     1      43.942  39.461   2.178  1.00  0.00     0.002 C 
HETATM   34  C   UNL     1      43.937  39.182   3.674  1.00  0.00     0.005 C 
ENDBRANCH  31  33
ENDBRANCH  14  31
BRANCH  13  35
HETATM   35  C   UNL     1      49.584  33.451   4.332  1.00  0.00     0.014 C 
HETATM   36  C   UNL     1      51.021  33.968   4.213  1.00  0.00     0.012 C 
BRANCH  35  37
HETATM   37  C   UNL     1      49.329  32.950   5.764  1.00  0.00     0.002 C 
HETATM   38  C   UNL     1      50.601  32.772   6.583  1.00  0.00     0.005 C 
ENDBRANCH  35  37
ENDBRANCH  13  35
BRANCH  18  39
HETATM   39  C   UNL     1      46.760  36.075  -2.670  1.00  0.00     0.016 C 
HETATM   40  C   UNL     1      48.233  35.892  -2.314  1.00  0.00     0.012 C 
HETATM   41  C   UNL     1      46.148  34.750  -3.123  1.00  0.00     0.012 C 
ENDBRANCH  18  39
BRANCH  17  42
HETATM   42  C   UNL     1      51.254  38.107   2.363  1.00  0.00     0.016 C 
HETATM   43  C   UNL     1      52.246  37.293   3.192  1.00  0.00     0.012 C 
HETATM   44  C   UNL     1      50.692  39.264   3.188  1.00  0.00     0.012 C 
ENDBRANCH  17  42
BRANCH  15  45
HETATM   45  C   UNL     1      48.462  40.883  -0.993  1.00  0.00     0.014 C 
HETATM   46  C   UNL     1      47.319  41.900  -1.095  1.00  0.00     0.012 C 
BRANCH  45  47
HETATM   47  C   UNL     1      49.653  41.515  -0.247  1.00  0.00     0.002 C 
HETATM   48  C   UNL     1      50.218  42.745  -0.941  1.00  0.00     0.005 C 
ENDBRANCH  45  47
ENDBRANCH  15  45
TORSDOF 9
ENDMDL
MODEL 3
REMARK VINA RESULT:    -4.593      2.295      8.401
REMARK INTER + INTRA:          -6.527
REMARK INTER:                  -7.315
REMARK INTRA:                   0.788
REMARK UNBOUND:                 0.483
REMARK  9 active torsions:
REMARK  status: ('A' for Active; 'I' for Inactive)
REMARK    1  A    between atoms: C_13  and  C_16 
REMARK    2  A    between atoms: C_14  and  C_17 
REMARK    3  A    between atoms: C_15  and  C_18 
REMARK    4  A    between atoms: C_16  and  C_22 
REMARK    5  A    between atoms: C_17  and  C_23 
REMARK    6  A    between atoms: C_18  and  C_24 
REMARK    7  A    between atoms: C_19  and  C_25 
REMARK    8  A    between atoms: C_20  and  C_26 
REMARK    9  A    between atoms: C_21  and  C_27 
ROOT
HETATM    1  O   UNL     1      49.971  37.995   1.994  1.00  0.00    -0.304 OA
HETATM    2  O   UNL     1      45.365  36.232   3.194  1.00  0.00    -0.304 OA
HETATM    3  O   UNL     1      49.619  33.998   2.587  1.00  0.00    -0.304 OA
HETATM    4  O   UNL     1      47.737  38.849   2.993  1.00  0.00    -0.270 OA
HETATM    5  O   UNL     1      52.654  33.250   1.132  1.00  0.00    -0.270 OA
HETATM    6  O   UNL     1      47.700  35.828   4.345  1.00  0.00    -0.270 OA
HETATM    7  O   UNL     1      51.545  37.476   0.389  1.00  0.00    -0.263 OA
HETATM    8  O   UNL     1      46.106  35.747   1.063  1.00  0.00    -0.263 OA
HETATM    9  O   UNL     1      51.075  32.649   3.751  1.00  0.00    -0.263 OA
HETATM   10  N   UNL     1      46.668  38.497   0.964  1.00  0.00    -0.340 N 
HETATM   11  N   UNL     1      52.440  35.390   2.000  1.00  0.00    -0.340 N 
HETATM   12  N   UNL     1      47.630  33.510   4.270  1.00  0.00    -0.340 N 
HETATM   13  C   UNL     1      45.451  38.019   1.651  1.00  0.00     0.190 C 
HETATM   14  C   UNL     1      51.624  36.461   2.611  1.00  0.00     0.190 C 
HETATM   15  C   UNL     1      49.008  33.389   4.799  1.00  0.00     0.190 C 
HETATM   16  C   UNL     1      49.153  38.746   1.072  1.00  0.00     0.227 C 
HETATM   17  C   UNL     1      45.620  34.882   3.630  1.00  0.00     0.227 C 
HETATM   18  C   UNL     1      50.395  34.037   1.385  1.00  0.00     0.227 C 
HETATM   19  C   UNL     1      47.796  38.732   1.763  1.00  0.00     0.250 C 
HETATM   20  C   UNL     1      51.928  34.178   1.508  1.00  0.00     0.250 C 
HETATM   21  C   UNL     1      47.073  34.788   4.108  1.00  0.00     0.250 C 
HETATM   22  C   UNL     1      51.077  37.358   1.512  1.00  0.00     0.283 C 
HETATM   23  C   UNL     1      45.684  36.535   1.900  1.00  0.00     0.283 C 
HETATM   24  C   UNL     1      50.014  33.252   3.656  1.00  0.00     0.283 C 
HETATM   25  C   UNL     1      46.679  38.560  -0.498  1.00  0.00     0.153 C 
HETATM   26  C   UNL     1      53.882  35.611   1.900  1.00  0.00     0.153 C 
HETATM   27  C   UNL     1      46.969  32.260   3.881  1.00  0.00     0.153 C 
ENDROOT
BRANCH  16  28
HETATM   28  C   UNL     1      49.675  40.165   0.941  1.00  0.00     0.016 C 
HETATM   29  C   UNL     1      50.353  40.368  -0.412  1.00  0.00     0.012 C 
HETATM   30  C   UNL     1      50.643  40.490   2.078  1.00  0.00     0.012 C 
ENDBRANCH  16  28
BRANCH  14  31
HETATM   31  C   UNL     1      52.345  37.302   3.663  1.00  0.00     0.014 C 
HETATM   32  C   UNL     1      53.022  36.384   4.683  1.00  0.00     0.012 C 
BRANCH  31  33
HETATM   33  C   UNL     1      53.386  38.249   3.041  1.00  0.00     0.002 C 
HETATM   34  C   UNL     1      53.751  39.424   3.937  1.00  0.00     0.005 C 
ENDBRANCH  31  33
ENDBRANCH  14  31
BRANCH  13  35
HETATM   35  C   UNL     1      44.133  38.217   0.915  1.00  0.00     0.014 C 
HETATM   36  C   UNL     1      43.121  37.162   1.370  1.00  0.00     0.012 C 
BRANCH  35  37
HETATM   37  C   UNL     1      43.546  39.624   1.127  1.00  0.00     0.002 C 
HETATM   38  C   UNL     1      43.518  40.468  -0.141  1.00  0.00     0.005 C 
ENDBRANCH  35  37
ENDBRANCH  13  35
BRANCH  18  39
HETATM   39  C   UNL     1      50.012  32.814   0.550  1.00  0.00     0.016 C 
HETATM   40  C   UNL     1      48.526  32.501   0.707  1.00  0.00     0.012 C 
HETATM   41  C   UNL     1      50.361  33.038  -0.920  1.00  0.00     0.012 C 
ENDBRANCH  18  39
BRANCH  17  42
HETATM   42  C   UNL     1      44.669  34.599   4.784  1.00  0.00     0.016 C 
HETATM   43  C   UNL     1      43.696  33.477   4.421  1.00  0.00     0.012 C 
HETATM   44  C   UNL     1      43.905  35.862   5.178  1.00  0.00     0.012 C 
ENDBRANCH  17  42
BRANCH  15  45
HETATM   45  C   UNL     1      49.169  32.268   5.824  1.00  0.00     0.014 C 
HETATM   46  C   UNL     1      50.451  32.481   6.637  1.00  0.00     0.012 C 
BRANCH  45  47
HETATM   47  C   UNL     1      47.963  32.160   6.777  1.00  0.00     0.002 C 
HETATM   48  C   UNL     1      48.134  31.096   7.852  1.00  0.00     0.005 C 
ENDBRANCH  45  47
ENDBRANCH  15  45
TORSDOF 9
ENDMDL
MODEL 4
REMARK VINA RESULT:    -4.536      2.772      7.226
REMARK INTER + INTRA:          -6.439
REMARK INTER:                  -6.276
REMARK INTRA:                  -0.164
REMARK UNBOUND:                 0.483
REMARK  9 active torsions:
REMARK  status: ('A' for Active; 'I' for Inactive)
REMARK    1  A    between atoms: C_13  and  C_16 
REMARK    2  A    between atoms: C_14  and  C_17 
REMARK    3  A    between atoms: C_15  and  C_18 
REMARK    4  A    between atoms: C_16  and  C_22 
REMARK    5  A    between atoms: C_17  and  C_23 
REMARK    6  A    between atoms: C_18  and  C_24 
REMARK    7  A    between atoms: C_19  and  C_25 
REMARK    8  A    between atoms: C_20  and  C_26 
REMARK    9  A    between atoms: C_21  and  C_27 
ROOT
HETATM    1  O   UNL     1      42.754  36.486  -1.724  1.00  0.00    -0.304 OA
HETATM    2  O   UNL     1      47.438  37.564  -0.091  1.00  0.00    -0.304 OA
HETATM    3  O   UNL     1      43.271  36.875   2.280  1.00  0.00    -0.304 OA
HETATM    4  O   UNL     1      45.211  36.299  -2.531  1.00  0.00    -0.270 OA
HETATM    5  O   UNL     1      39.900  37.135   2.954  1.00  0.00    -0.270 OA
HETATM    6  O   UNL     1      45.752  35.691   0.677  1.00  0.00    -0.270 OA
HETATM    7  O   UNL     1      40.666  37.410  -1.402  1.00  0.00    -0.263 OA
HETATM    8  O   UNL     1      45.903  39.282   0.044  1.00  0.00    -0.263 OA
HETATM    9  O   UNL     1      42.387  35.521   3.917  1.00  0.00    -0.263 OA
HETATM   10  N   UNL     1      45.378  38.611  -2.632  1.00  0.00    -0.340 N 
HETATM   11  N   UNL     1      40.466  36.020   1.001  1.00  0.00    -0.340 N 
HETATM   12  N   UNL     1      45.762  36.240   2.932  1.00  0.00    -0.340 N 
HETATM   13  C   UNL     1      46.763  38.566  -2.121  1.00  0.00     0.190 C 
HETATM   14  C   UNL     1      41.469  35.582   0.007  1.00  0.00     0.190 C 
HETATM   15  C   UNL     1      44.708  35.247   3.242  1.00  0.00     0.190 C 
HETATM   16  C   UNL     1      43.145  37.488  -2.686  1.00  0.00     0.227 C 
HETATM   17  C   UNL     1      47.364  37.337   1.331  1.00  0.00     0.227 C 
HETATM   18  C   UNL     1      42.081  37.641   2.074  1.00  0.00     0.227 C 
HETATM   19  C   UNL     1      44.665  37.403  -2.639  1.00  0.00     0.250 C 
HETATM   20  C   UNL     1      40.726  36.900   2.063  1.00  0.00     0.250 C 
HETATM   21  C   UNL     1      46.221  36.354   1.611  1.00  0.00     0.250 C 
HETATM   22  C   UNL     1      41.542  36.608  -1.112  1.00  0.00     0.283 C 
HETATM   23  C   UNL     1      46.632  38.542  -0.604  1.00  0.00     0.283 C 
HETATM   24  C   UNL     1      43.328  35.906   3.235  1.00  0.00     0.283 C 
HETATM   25  C   UNL     1      44.785  39.908  -2.963  1.00  0.00     0.153 C 
HETATM   26  C   UNL     1      39.106  35.499   0.865  1.00  0.00     0.153 C 
HETATM   27  C   UNL     1      46.199  37.095   4.040  1.00  0.00     0.153 C 
ENDROOT
BRANCH  16  28
HETATM   28  C   UNL     1      42.629  37.122  -4.066  1.00  0.00     0.016 C 
HETATM   29  C   UNL     1      43.789  36.914  -5.037  1.00  0.00     0.012 C 
HETATM   30  C   UNL     1      41.679  38.197  -4.590  1.00  0.00     0.012 C 
ENDBRANCH  16  28
BRANCH  14  31
HETATM   31  C   UNL     1      41.236  34.189  -0.574  1.00  0.00     0.014 C 
HETATM   32  C   UNL     1      40.935  34.297  -2.071  1.00  0.00     0.012 C 
BRANCH  31  33
HETATM   33  C   UNL     1      42.437  33.253  -0.349  1.00  0.00     0.002 C 
HETATM   34  C   UNL     1      42.663  32.893   1.112  1.00  0.00     0.005 C 
ENDBRANCH  31  33
ENDBRANCH  14  31
BRANCH  13  35
HETATM   35  C   UNL     1      47.680  39.707  -2.541  1.00  0.00     0.014 C 
HETATM   36  C   UNL     1      48.839  39.832  -1.548  1.00  0.00     0.012 C 
BRANCH  35  37
HETATM   37  C   UNL     1      48.232  39.523  -3.965  1.00  0.00     0.002 C 
HETATM   38  C   UNL     1      48.485  38.068  -4.337  1.00  0.00     0.005 C 
ENDBRANCH  35  37
ENDBRANCH  13  35
BRANCH  18  39
HETATM   39  C   UNL     1      42.086  38.782   3.093  1.00  0.00     0.016 C 
HETATM   40  C   UNL     1      43.509  39.282   3.332  1.00  0.00     0.012 C 
HETATM   41  C   UNL     1      41.187  39.925   2.624  1.00  0.00     0.012 C 
ENDBRANCH  18  39
BRANCH  17  42
HETATM   42  C   UNL     1      48.693  36.729   1.756  1.00  0.00     0.016 C 
HETATM   43  C   UNL     1      49.616  37.801   2.336  1.00  0.00     0.012 C 
HETATM   44  C   UNL     1      49.367  36.025   0.578  1.00  0.00     0.012 C 
ENDBRANCH  17  42
BRANCH  15  45
HETATM   45  C   UNL     1      44.957  34.483   4.541  1.00  0.00     0.014 C 
HETATM   46  C   UNL     1      44.097  33.215   4.576  1.00  0.00     0.012 C 
BRANCH  45  47
HETATM   47  C   UNL     1      46.439  34.108   4.732  1.00  0.00     0.002 C 
HETATM   48  C   UNL     1      46.865  34.047   6.191  1.00  0.00     0.005 C 
ENDBRANCH  45  47
ENDBRANCH  15  45
TORSDOF 9
ENDMDL
MODEL 5
REMARK VINA RESULT:    -4.428      1.992      4.089
REMARK INTER + INTRA:          -6.276
REMARK INTER:                  -6.334
REMARK INTRA:                   0.058
REMARK UNBOUND:                 0.483
REMARK  9 active torsions:
REMARK  status: ('A' for Active; 'I' for Inactive)
REMARK    1  A    between atoms: C_13  and  C_16 
REMARK    2  A    between atoms: C_14  and  C_17 
REMARK    3  A    between atoms: C_15  and  C_18 
REMARK    4  A    between atoms: C_16  and  C_22 
REMARK    5  A    between atoms: C_17  and  C_23 
REMARK    6  A    between atoms: C_18  and  C_24 
REMARK    7  A    between atoms: C_19  and  C_25 
REMARK    8  A    between atoms: C_20  and  C_26 
REMARK    9  A    between atoms: C_21  and  C_27 
ROOT
HETATM    1  O   UNL     1      48.855  32.878   4.080  1.00  0.00    -0.304 OA
HETATM    2  O   UNL     1      49.961  36.895   1.180  1.00  0.00    -0.304 OA
HETATM    3  O   UNL     1      45.937  34.234   1.612  1.00  0.00    -0.304 OA
HETATM    4  O   UNL     1      50.525  34.860   4.018  1.00  0.00    -0.270 OA
HETATM    5  O   UNL     1      44.002  31.396   1.911  1.00  0.00    -0.270 OA
HETATM    6  O   UNL     1      47.906  36.450   2.767  1.00  0.00    -0.270 OA
HETATM    7  O   UNL     1      48.015  30.767   3.683  1.00  0.00    -0.263 OA
HETATM    8  O   UNL     1      49.807  34.870   0.082  1.00  0.00    -0.263 OA
HETATM    9  O   UNL     1      43.710  34.491   2.129  1.00  0.00    -0.263 OA
HETATM   10  N   UNL     1      51.528  33.986   2.117  1.00  0.00    -0.340 N 
HETATM   11  N   UNL     1      45.445  31.836   3.672  1.00  0.00    -0.340 N 
HETATM   12  N   UNL     1      46.260  36.829   1.176  1.00  0.00    -0.340 N 
HETATM   13  C   UNL     1      51.699  35.337   1.546  1.00  0.00     0.190 C 
HETATM   14  C   UNL     1      46.540  32.622   4.280  1.00  0.00     0.190 C 
HETATM   15  C   UNL     1      45.180  36.430   2.108  1.00  0.00     0.190 C 
HETATM   16  C   UNL     1      50.184  32.526   3.637  1.00  0.00     0.227 C 
HETATM   17  C   UNL     1      48.678  37.311   0.670  1.00  0.00     0.227 C 
HETATM   18  C   UNL     1      45.865  32.823   1.383  1.00  0.00     0.227 C 
HETATM   19  C   UNL     1      50.779  33.887   3.298  1.00  0.00     0.250 C 
HETATM   20  C   UNL     1      45.009  31.969   2.344  1.00  0.00     0.250 C 
HETATM   21  C   UNL     1      47.587  36.821   1.631  1.00  0.00     0.250 C 
HETATM   22  C   UNL     1      47.867  31.944   3.978  1.00  0.00     0.283 C 
HETATM   23  C   UNL     1      50.387  35.643   0.835  1.00  0.00     0.283 C 
HETATM   24  C   UNL     1      44.822  34.955   1.916  1.00  0.00     0.283 C 
HETATM   25  C   UNL     1      52.015  32.830   1.362  1.00  0.00     0.153 C 
HETATM   26  C   UNL     1      44.770  30.850   4.516  1.00  0.00     0.153 C 
HETATM   27  C   UNL     1      45.855  37.138  -0.199  1.00  0.00     0.153 C 
ENDROOT
BRANCH  16  28
HETATM   28  C   UNL     1      50.956  31.867   4.765  1.00  0.00     0.016 C 
HETATM   29  C   UNL     1      50.755  32.630   6.074  1.00  0.00     0.012 C 
HETATM   30  C   UNL     1      52.442  31.777   4.421  1.00  0.00     0.012 C 
ENDBRANCH  16  28
BRANCH  14  31
HETATM   31  C   UNL     1      46.405  32.862   5.783  1.00  0.00     0.014 C 
HETATM   32  C   UNL     1      47.264  31.852   6.547  1.00  0.00     0.012 C 
BRANCH  31  33
HETATM   33  C   UNL     1      46.802  34.294   6.184  1.00  0.00     0.002 C 
HETATM   34  C   UNL     1      45.958  35.369   5.515  1.00  0.00     0.005 C 
ENDBRANCH  31  33
ENDBRANCH  14  31
BRANCH  13  35
HETATM   35  C   UNL     1      52.863  35.526   0.583  1.00  0.00     0.014 C 
HETATM   36  C   UNL     1      52.557  36.676  -0.381  1.00  0.00     0.012 C 
BRANCH  35  37
HETATM   37  C   UNL     1      54.191  35.798   1.311  1.00  0.00     0.002 C 
HETATM   38  C   UNL     1      54.014  36.456   2.673  1.00  0.00     0.005 C 
ENDBRANCH  35  37
ENDBRANCH  13  35
BRANCH  18  39
HETATM   39  C   UNL     1      45.448  32.613  -0.074  1.00  0.00     0.016 C 
HETATM   40  C   UNL     1      46.072  33.680  -0.969  1.00  0.00     0.012 C 
HETATM   41  C   UNL     1      45.844  31.216  -0.548  1.00  0.00     0.012 C 
ENDBRANCH  18  39
BRANCH  17  42
HETATM   42  C   UNL     1      48.688  38.832   0.621  1.00  0.00     0.016 C 
HETATM   43  C   UNL     1      49.147  39.325  -0.750  1.00  0.00     0.012 C 
HETATM   44  C   UNL     1      49.584  39.402   1.721  1.00  0.00     0.012 C 
ENDBRANCH  17  42
BRANCH  15  45
HETATM   45  C   UNL     1      43.943  37.321   2.021  1.00  0.00     0.014 C 
HETATM   46  C   UNL     1      42.961  36.965   3.143  1.00  0.00     0.012 C 
BRANCH  45  47
HETATM   47  C   UNL     1      44.288  38.821   2.092  1.00  0.00     0.002 C 
HETATM   48  C   UNL     1      44.172  39.404   3.492  1.00  0.00     0.005 C 
ENDBRANCH  45  47
ENDBRANCH  15  45
TORSDOF 9
ENDMDL
MODEL 6
REMARK VINA RESULT:    -4.419      2.201      7.291
REMARK INTER + INTRA:          -6.261
REMARK INTER:                  -6.524
REMARK INTRA:                   0.262
REMARK UNBOUND:                 0.483
REMARK  9 active torsions:
REMARK  status: ('A' for Active; 'I' for Inactive)
REMARK    1  A    between atoms: C_13  and  C_16 
REMARK    2  A    between atoms: C_14  and  C_17 
REMARK    3  A    between atoms: C_15  and  C_18 
REMARK    4  A    between atoms: C_16  and  C_22 
REMARK    5  A    between atoms: C_17  and  C_23 
REMARK    6  A    between atoms: C_18  and  C_24 
REMARK    7  A    between atoms: C_19  and  C_25 
REMARK    8  A    between atoms: C_20  and  C_26 
REMARK    9  A    between atoms: C_21  and  C_27 
ROOT
HETATM    1  O   UNL     1      48.033  37.436   1.706  1.00  0.00    -0.304 OA
HETATM    2  O   UNL     1      47.414  33.135   4.330  1.00  0.00    -0.304 OA
HETATM    3  O   UNL     1      50.617  34.409   0.928  1.00  0.00    -0.304 OA
HETATM    4  O   UNL     1      46.954  36.618   3.916  1.00  0.00    -0.270 OA
HETATM    5  O   UNL     1      51.777  35.802  -2.005  1.00  0.00    -0.270 OA
HETATM    6  O   UNL     1      49.571  34.592   3.927  1.00  0.00    -0.270 OA
HETATM    7  O   UNL     1      48.201  37.966  -0.532  1.00  0.00    -0.263 OA
HETATM    8  O   UNL     1      46.809  33.054   2.103  1.00  0.00    -0.263 OA
HETATM    9  O   UNL     1      52.893  34.585   0.638  1.00  0.00    -0.263 OA
HETATM   10  N   UNL     1      45.385  35.393   2.724  1.00  0.00    -0.340 N 
HETATM   11  N   UNL     1      50.897  37.282  -0.451  1.00  0.00    -0.340 N 
HETATM   12  N   UNL     1      50.888  32.880   3.078  1.00  0.00    -0.340 N 
HETATM   13  C   UNL     1      45.451  34.291   3.705  1.00  0.00     0.190 C 
HETATM   14  C   UNL     1      50.194  37.554   0.820  1.00  0.00     0.190 C 
HETATM   15  C   UNL     1      51.999  33.808   2.763  1.00  0.00     0.190 C 
HETATM   16  C   UNL     1      46.597  37.300   1.655  1.00  0.00     0.227 C 
HETATM   17  C   UNL     1      48.624  32.397   4.066  1.00  0.00     0.227 C 
HETATM   18  C   UNL     1      50.275  34.833  -0.395  1.00  0.00     0.227 C 
HETATM   19  C   UNL     1      46.313  36.433   2.874  1.00  0.00     0.250 C 
HETATM   20  C   UNL     1      51.065  36.007  -1.014  1.00  0.00     0.250 C 
HETATM   21  C   UNL     1      49.729  33.390   3.683  1.00  0.00     0.250 C 
HETATM   22  C   UNL     1      48.705  37.689   0.546  1.00  0.00     0.283 C 
HETATM   23  C   UNL     1      46.618  33.421   3.256  1.00  0.00     0.283 C 
HETATM   24  C   UNL     1      51.918  34.272   1.309  1.00  0.00     0.283 C 
HETATM   25  C   UNL     1      44.470  35.277   1.586  1.00  0.00     0.153 C 
HETATM   26  C   UNL     1      51.458  38.425  -1.172  1.00  0.00     0.153 C 
HETATM   27  C   UNL     1      51.061  31.487   2.656  1.00  0.00     0.153 C 
ENDROOT
BRANCH  16  28
HETATM   28  C   UNL     1      45.935  38.659   1.796  1.00  0.00     0.016 C 
HETATM   29  C   UNL     1      45.034  38.694   3.029  1.00  0.00     0.012 C 
HETATM   30  C   UNL     1      45.137  39.003   0.539  1.00  0.00     0.012 C 
ENDBRANCH  16  28
BRANCH  14  31
HETATM   31  C   UNL     1      50.698  38.774   1.590  1.00  0.00     0.014 C 
HETATM   32  C   UNL     1      49.612  39.852   1.617  1.00  0.00     0.012 C 
BRANCH  31  33
HETATM   33  C   UNL     1      51.123  38.425   3.027  1.00  0.00     0.002 C 
HETATM   34  C   UNL     1      52.344  37.519   3.097  1.00  0.00     0.005 C 
ENDBRANCH  31  33
ENDBRANCH  14  31
BRANCH  13  35
HETATM   35  C   UNL     1      44.199  33.437   3.854  1.00  0.00     0.014 C 
HETATM   36  C   UNL     1      44.529  32.167   4.643  1.00  0.00     0.012 C 
BRANCH  35  37
HETATM   37  C   UNL     1      43.049  34.193   4.541  1.00  0.00     0.002 C 
HETATM   38  C   UNL     1      43.489  35.485   5.217  1.00  0.00     0.005 C 
ENDBRANCH  35  37
ENDBRANCH  13  35
BRANCH  18  39
HETATM   39  C   UNL     1      50.309  33.598  -1.298  1.00  0.00     0.016 C 
HETATM   40  C   UNL     1      49.811  32.368  -0.544  1.00  0.00     0.012 C 
HETATM   41  C   UNL     1      49.474  33.831  -2.556  1.00  0.00     0.012 C 
ENDBRANCH  18  39
BRANCH  17  42
HETATM   42  C   UNL     1      48.994  31.672   5.352  1.00  0.00     0.016 C 
HETATM   43  C   UNL     1      47.840  30.790   5.826  1.00  0.00     0.012 C 
HETATM   44  C   UNL     1      49.387  32.669   6.441  1.00  0.00     0.012 C 
ENDBRANCH  17  42
BRANCH  15  45
HETATM   45  C   UNL     1      53.377  33.237   3.093  1.00  0.00     0.014 C 
HETATM   46  C   UNL     1      54.348  34.374   3.433  1.00  0.00     0.012 C 
BRANCH  45  47
HETATM   47  C   UNL     1      53.337  32.226   4.254  1.00  0.00     0.002 C 
HETATM   48  C   UNL     1      54.504  31.250   4.249  1.00  0.00     0.005 C 
ENDBRANCH  45  47
ENDBRANCH  15  45
TORSDOF 9
ENDMDL
MODEL 7
REMARK VINA RESULT:    -4.384      2.932      8.718
REMARK INTER + INTRA:          -6.208
REMARK INTER:                  -6.539
REMARK INTRA:                   0.331
REMARK UNBOUND:                 0.483
REMARK  9 active torsions:
REMARK  status: ('A' for Active; 'I' for Inactive)
REMARK    1  A    between atoms: C_13  and  C_16 
REMARK    2  A    between atoms: C_14  and  C_17 
REMARK    3  A    between atoms: C_15  and  C_18 
REMARK    4  A    between atoms: C_16  and  C_22 
REMARK    5  A    between atoms: C_17  and  C_23 
REMARK    6  A    between atoms: C_18  and  C_24 
REMARK    7  A    between atoms: C_19  and  C_25 
REMARK    8  A    between atoms: C_20  and  C_26 
REMARK    9  A    between atoms: C_21  and  C_27 
ROOT
HETATM    1  O   UNL     1      50.445  40.111   0.844  1.00  0.00    -0.304 OA
HETATM    2  O   UNL     1      45.666  39.772  -0.834  1.00  0.00    -0.304 OA
HETATM    3  O   UNL     1      48.560  36.556   1.344  1.00  0.00    -0.304 OA
HETATM    4  O   UNL     1      48.449  41.660   0.264  1.00  0.00    -0.270 OA
HETATM    5  O   UNL     1      51.458  34.818   2.030  1.00  0.00    -0.270 OA
HETATM    6  O   UNL     1      46.704  39.135   1.503  1.00  0.00    -0.270 OA
HETATM    7  O   UNL     1      52.373  38.884   0.526  1.00  0.00    -0.263 OA
HETATM    8  O   UNL     1      47.253  38.640  -2.072  1.00  0.00    -0.263 OA
HETATM    9  O   UNL     1      48.608  35.228   3.223  1.00  0.00    -0.263 OA
HETATM   10  N   UNL     1      48.626  41.087  -1.978  1.00  0.00    -0.340 N 
HETATM   11  N   UNL     1      51.505  37.094   2.472  1.00  0.00    -0.340 N 
HETATM   12  N   UNL     1      45.944  36.943   1.537  1.00  0.00    -0.340 N 
HETATM   13  C   UNL     1      47.156  41.074  -2.124  1.00  0.00     0.190 C 
HETATM   14  C   UNL     1      50.886  38.435   2.413  1.00  0.00     0.190 C 
HETATM   15  C   UNL     1      46.677  36.644   2.789  1.00  0.00     0.190 C 
HETATM   16  C   UNL     1      50.563  40.787  -0.427  1.00  0.00     0.227 C 
HETATM   17  C   UNL     1      45.188  38.542  -0.253  1.00  0.00     0.227 C 
HETATM   18  C   UNL     1      49.830  36.132   0.841  1.00  0.00     0.227 C 
HETATM   19  C   UNL     1      49.133  41.245  -0.680  1.00  0.00     0.250 C 
HETATM   20  C   UNL     1      50.990  35.948   1.845  1.00  0.00     0.250 C 
HETATM   21  C   UNL     1      46.016  38.238   1.001  1.00  0.00     0.250 C 
HETATM   22  C   UNL     1      51.357  39.145   1.154  1.00  0.00     0.283 C 
HETATM   23  C   UNL     1      46.721  39.678  -1.699  1.00  0.00     0.283 C 
HETATM   24  C   UNL     1      48.036  36.015   2.480  1.00  0.00     0.283 C 
HETATM   25  C   UNL     1      49.458  40.798  -3.147  1.00  0.00     0.153 C 
HETATM   26  C   UNL     1      52.743  36.953   3.238  1.00  0.00     0.153 C 
HETATM   27  C   UNL     1      45.245  35.820   0.905  1.00  0.00     0.153 C 
ENDROOT
BRANCH  16  28
HETATM   28  C   UNL     1      51.495  41.979  -0.303  1.00  0.00     0.016 C 
HETATM   29  C   UNL     1      51.253  42.719   1.011  1.00  0.00     0.012 C 
HETATM   30  C   UNL     1      51.321  42.925  -1.490  1.00  0.00     0.012 C 
ENDBRANCH  16  28
BRANCH  14  31
HETATM   31  C   UNL     1      51.135  39.316   3.635  1.00  0.00     0.014 C 
HETATM   32  C   UNL     1      52.370  40.189   3.401  1.00  0.00     0.012 C 
BRANCH  31  33
HETATM   33  C   UNL     1      49.925  40.204   3.973  1.00  0.00     0.002 C 
HETATM   34  C   UNL     1      50.306  41.595   4.457  1.00  0.00     0.005 C 
ENDBRANCH  31  33
ENDBRANCH  14  31
BRANCH  13  35
HETATM   35  C   UNL     1      46.608  41.385  -3.510  1.00  0.00     0.014 C 
HETATM   36  C   UNL     1      45.184  40.838  -3.639  1.00  0.00     0.012 C 
BRANCH  35  37
HETATM   37  C   UNL     1      46.618  42.891  -3.823  1.00  0.00     0.002 C 
HETATM   38  C   UNL     1      45.252  43.440  -4.216  1.00  0.00     0.005 C 
ENDBRANCH  35  37
ENDBRANCH  13  35
BRANCH  18  39
HETATM   39  C   UNL     1      49.600  34.865   0.016  1.00  0.00     0.016 C 
HETATM   40  C   UNL     1      48.269  34.944  -0.729  1.00  0.00     0.012 C 
HETATM   41  C   UNL     1      50.751  34.646  -0.964  1.00  0.00     0.012 C 
ENDBRANCH  18  39
BRANCH  17  42
HETATM   42  C   UNL     1      43.730  38.763   0.122  1.00  0.00     0.016 C 
HETATM   43  C   UNL     1      42.805  38.278  -0.994  1.00  0.00     0.012 C 
HETATM   44  C   UNL     1      43.469  40.237   0.430  1.00  0.00     0.012 C 
ENDBRANCH  17  42
BRANCH  15  45
HETATM   45  C   UNL     1      45.877  35.791   3.772  1.00  0.00     0.014 C 
HETATM   46  C   UNL     1      46.591  35.744   5.127  1.00  0.00     0.012 C 
BRANCH  45  47
HETATM   47  C   UNL     1      44.437  36.303   3.964  1.00  0.00     0.002 C 
HETATM   48  C   UNL     1      43.688  35.602   5.087  1.00  0.00     0.005 C 
ENDBRANCH  45  47
ENDBRANCH  15  45
TORSDOF 9
ENDMDL
MODEL 8
REMARK VINA RESULT:    -4.374      1.561      2.469
REMARK INTER + INTRA:          -6.193
REMARK INTER:                  -6.597
REMARK INTRA:                   0.404
REMARK UNBOUND:                 0.483
REMARK  9 active torsions:
REMARK  status: ('A' for Active; 'I' for Inactive)
REMARK    1  A    between atoms: C_13  and  C_16 
REMARK    2  A    between atoms: C_14  and  C_17 
REMARK    3  A    between atoms: C_15  and  C_18 
REMARK    4  A    between atoms: C_16  and  C_22 
REMARK    5  A    between atoms: C_17  and  C_23 
REMARK    6  A    between atoms: C_18  and  C_24 
REMARK    7  A    between atoms: C_19  and  C_25 
REMARK    8  A    between atoms: C_20  and  C_26 
REMARK    9  A    between atoms: C_21  and  C_27 
ROOT
HETATM    1  O   UNL     1      47.032  33.116   3.348  1.00  0.00    -0.304 OA
HETATM    2  O   UNL     1      49.906  37.251   2.711  1.00  0.00    -0.304 OA
HETATM    3  O   UNL     1      45.868  35.752   0.495  1.00  0.00    -0.304 OA
HETATM    4  O   UNL     1      48.765  34.529   4.661  1.00  0.00    -0.270 OA
HETATM    5  O   UNL     1      43.682  33.555  -1.014  1.00  0.00    -0.270 OA
HETATM    6  O   UNL     1      47.302  37.016   3.039  1.00  0.00    -0.270 OA
HETATM    7  O   UNL     1      46.223  31.465   1.954  1.00  0.00    -0.263 OA
HETATM    8  O   UNL     1      50.041  35.662   1.042  1.00  0.00    -0.263 OA
HETATM    9  O   UNL     1      43.722  36.472   0.083  1.00  0.00    -0.263 OA
HETATM   10  N   UNL     1      50.437  33.891   3.185  1.00  0.00    -0.340 N 
HETATM   11  N   UNL     1      44.140  33.161   1.225  1.00  0.00    -0.340 N 
HETATM   12  N   UNL     1      46.692  38.190   1.132  1.00  0.00    -0.340 N 
HETATM   13  C   UNL     1      51.035  35.241   3.227  1.00  0.00     0.190 C 
HETATM   14  C   UNL     1      44.896  33.454   2.460  1.00  0.00     0.190 C 
HETATM   15  C   UNL     1      45.256  37.889   1.331  1.00  0.00     0.190 C 
HETATM   16  C   UNL     1      48.352  32.533   3.415  1.00  0.00     0.227 C 
HETATM   17  C   UNL     1      49.093  38.106   1.882  1.00  0.00     0.227 C 
HETATM   18  C   UNL     1      45.734  34.509  -0.200  1.00  0.00     0.227 C 
HETATM   19  C   UNL     1      49.206  33.722   3.834  1.00  0.00     0.250 C 
HETATM   20  C   UNL     1      44.419  33.716  -0.034  1.00  0.00     0.250 C 
HETATM   21  C   UNL     1      47.622  37.717   2.071  1.00  0.00     0.250 C 
HETATM   22  C   UNL     1      46.105  32.535   2.534  1.00  0.00     0.283 C 
HETATM   23  C   UNL     1      50.280  36.049   2.179  1.00  0.00     0.283 C 
HETATM   24  C   UNL     1      44.848  36.655   0.526  1.00  0.00     0.283 C 
HETATM   25  C   UNL     1      51.074  32.859   2.365  1.00  0.00     0.153 C 
HETATM   26  C   UNL     1      43.021  32.223   1.323  1.00  0.00     0.153 C 
HETATM   27  C   UNL     1      47.044  38.913  -0.094  1.00  0.00     0.153 C 
ENDROOT
BRANCH  16  28
HETATM   28  C   UNL     1      48.392  31.443   4.470  1.00  0.00     0.016 C 
HETATM   29  C   UNL     1      49.368  31.809   5.586  1.00  0.00     0.012 C 
HETATM   30  C   UNL     1      48.772  30.101   3.845  1.00  0.00     0.012 C 
ENDBRANCH  16  28
BRANCH  14  31
HETATM   31  C   UNL     1      44.086  33.360   3.752  1.00  0.00     0.014 C 
HETATM   32  C   UNL     1      44.630  32.224   4.621  1.00  0.00     0.012 C 
BRANCH  31  33
HETATM   33  C   UNL     1      44.097  34.678   4.547  1.00  0.00     0.002 C 
HETATM   34  C   UNL     1      43.367  35.816   3.849  1.00  0.00     0.005 C 
ENDBRANCH  31  33
ENDBRANCH  14  31
BRANCH  13  35
HETATM   35  C   UNL     1      52.532  35.331   2.967  1.00  0.00     0.014 C 
HETATM   36  C   UNL     1      52.848  36.614   2.194  1.00  0.00     0.012 C 
BRANCH  35  37
HETATM   37  C   UNL     1      53.359  35.288   4.264  1.00  0.00     0.002 C 
HETATM   38  C   UNL     1      53.446  36.632   4.974  1.00  0.00     0.005 C 
ENDBRANCH  35  37
ENDBRANCH  13  35
BRANCH  18  39
HETATM   39  C   UNL     1      46.049  34.769  -1.674  1.00  0.00     0.016 C 
HETATM   40  C   UNL     1      47.140  35.827  -1.812  1.00  0.00     0.012 C 
HETATM   41  C   UNL     1      46.464  33.474  -2.370  1.00  0.00     0.012 C 
ENDBRANCH  18  39
BRANCH  17  42
HETATM   42  C   UNL     1      49.322  39.535   2.354  1.00  0.00     0.016 C 
HETATM   43  C   UNL     1      49.845  40.405   1.212  1.00  0.00     0.012 C 
HETATM   44  C   UNL     1      50.291  39.564   3.536  1.00  0.00     0.012 C 
ENDBRANCH  17  42
BRANCH  15  45
HETATM   45  C   UNL     1      44.340  39.076   1.038  1.00  0.00     0.014 C 
HETATM   46  C   UNL     1      43.682  38.903  -0.336  1.00  0.00     0.012 C 
BRANCH  45  47
HETATM   47  C   UNL     1      43.252  39.264   2.113  1.00  0.00     0.002 C 
HETATM   48  C   UNL     1      43.806  39.350   3.527  1.00  0.00     0.005 C 
ENDBRANCH  45  47
ENDBRANCH  15  45
TORSDOF 9
ENDMDL
MODEL 9
REMARK VINA RESULT:    -4.348      2.518      7.134
REMARK INTER + INTRA:          -6.153
REMARK INTER:                  -6.358
REMARK INTRA:                   0.204
REMARK UNBOUND:                 0.483
REMARK  9 active torsions:
REMARK  status: ('A' for Active; 'I' for Inactive)
REMARK    1  A    between atoms: C_13  and  C_16 
REMARK    2  A    between atoms: C_14  and  C_17 
REMARK    3  A    between atoms: C_15  and  C_18 
REMARK    4  A    between atoms: C_16  and  C_22 
REMARK    5  A    between atoms: C_17  and  C_23 
REMARK    6  A    between atoms: C_18  and  C_24 
REMARK    7  A    between atoms: C_19  and  C_25 
REMARK    8  A    between atoms: C_20  and  C_26 
REMARK    9  A    between atoms: C_21  and  C_27 
ROOT
HETATM    1  O   UNL     1      49.339  32.506   4.335  1.00  0.00    -0.304 OA
HETATM    2  O   UNL     1      46.345  35.580   1.624  1.00  0.00    -0.304 OA
HETATM    3  O   UNL     1      51.165  35.201   1.916  1.00  0.00    -0.304 OA
HETATM    4  O   UNL     1      46.906  32.600   3.444  1.00  0.00    -0.270 OA
HETATM    5  O   UNL     1      54.255  34.832   3.401  1.00  0.00    -0.270 OA
HETATM    6  O   UNL     1      48.376  34.079   0.874  1.00  0.00    -0.270 OA
HETATM    7  O   UNL     1      51.107  32.818   5.783  1.00  0.00    -0.263 OA
HETATM    8  O   UNL     1      47.463  36.561   3.389  1.00  0.00    -0.263 OA
HETATM    9  O   UNL     1      52.981  34.817   0.556  1.00  0.00    -0.263 OA
HETATM   10  N   UNL     1      46.438  34.390   4.844  1.00  0.00    -0.340 N 
HETATM   11  N   UNL     1      52.810  33.028   3.592  1.00  0.00    -0.340 N 
HETATM   12  N   UNL     1      49.593  35.774  -0.141  1.00  0.00    -0.340 N 
HETATM   13  C   UNL     1      45.612  35.031   3.802  1.00  0.00     0.190 C 
HETATM   14  C   UNL     1      51.481  32.412   3.402  1.00  0.00     0.190 C 
HETATM   15  C   UNL     1      50.744  34.878  -0.399  1.00  0.00     0.190 C 
HETATM   16  C   UNL     1      48.352  32.856   5.329  1.00  0.00     0.227 C 
HETATM   17  C   UNL     1      47.246  36.181   0.672  1.00  0.00     0.227 C 
HETATM   18  C   UNL     1      51.922  35.347   3.122  1.00  0.00     0.227 C 
HETATM   19  C   UNL     1      47.156  33.245   4.469  1.00  0.00     0.250 C 
HETATM   20  C   UNL     1      53.103  34.383   3.365  1.00  0.00     0.250 C 
HETATM   21  C   UNL     1      48.451  35.251   0.484  1.00  0.00     0.250 C 
HETATM   22  C   UNL     1      50.658  32.603   4.667  1.00  0.00     0.283 C 
HETATM   23  C   UNL     1      46.589  35.827   2.946  1.00  0.00     0.283 C 
HETATM   24  C   UNL     1      51.781  34.998   0.718  1.00  0.00     0.283 C 
HETATM   25  C   UNL     1      46.575  35.047   6.145  1.00  0.00     0.153 C 
HETATM   26  C   UNL     1      53.898  32.163   4.048  1.00  0.00     0.153 C 
HETATM   27  C   UNL     1      49.770  37.184  -0.501  1.00  0.00     0.153 C 
ENDROOT
BRANCH  16  28
HETATM   28  C   UNL     1      48.024  31.652   6.192  1.00  0.00     0.016 C 
HETATM   29  C   UNL     1      46.532  31.335   6.131  1.00  0.00     0.012 C 
HETATM   30  C   UNL     1      48.463  31.888   7.637  1.00  0.00     0.012 C 
ENDBRANCH  16  28
BRANCH  14  31
HETATM   31  C   UNL     1      51.502  30.936   3.010  1.00  0.00     0.014 C 
HETATM   32  C   UNL     1      50.971  30.086   4.167  1.00  0.00     0.012 C 
BRANCH  31  33
HETATM   33  C   UNL     1      50.684  30.656   1.737  1.00  0.00     0.002 C 
HETATM   34  C   UNL     1      51.257  31.310   0.489  1.00  0.00     0.005 C 
ENDBRANCH  31  33
ENDBRANCH  14  31
BRANCH  13  35
HETATM   35  C   UNL     1      44.491  35.942   4.286  1.00  0.00     0.014 C 
HETATM   36  C   UNL     1      44.175  36.989   3.215  1.00  0.00     0.012 C 
BRANCH  35  37
HETATM   37  C   UNL     1      43.214  35.163   4.645  1.00  0.00     0.002 C 
HETATM   38  C   UNL     1      42.893  34.038   3.669  1.00  0.00     0.005 C 
ENDBRANCH  35  37
ENDBRANCH  13  35
BRANCH  18  39
HETATM   39  C   UNL     1      52.365  36.808   3.213  1.00  0.00     0.016 C 
HETATM   40  C   UNL     1      51.211  37.742   2.856  1.00  0.00     0.012 C 
HETATM   41  C   UNL     1      52.896  37.121   4.610  1.00  0.00     0.012 C 
ENDBRANCH  18  39
BRANCH  17  42
HETATM   42  C   UNL     1      46.483  36.320  -0.638  1.00  0.00     0.016 C 
HETATM   43  C   UNL     1      46.039  37.767  -0.853  1.00  0.00     0.012 C 
HETATM   44  C   UNL     1      45.277  35.382  -0.663  1.00  0.00     0.012 C 
ENDBRANCH  17  42
BRANCH  15  45
HETATM   45  C   UNL     1      51.376  35.082  -1.774  1.00  0.00     0.014 C 
HETATM   46  C   UNL     1      52.555  36.056  -1.669  1.00  0.00     0.012 C 
BRANCH  45  47
HETATM   47  C   UNL     1      51.850  33.761  -2.409  1.00  0.00     0.002 C 
HETATM   48  C   UNL     1      50.711  32.882  -2.901  1.00  0.00     0.005 C 
ENDBRANCH  45  47
ENDBRANCH  15  45
TORSDOF 9
ENDMDL
MODEL 10
REMARK VINA RESULT:    -4.315      5.124      8.617
REMARK INTER + INTRA:          -6.103
REMARK INTER:                  -6.509
REMARK INTRA:                   0.406
REMARK UNBOUND:                 0.483
REMARK  9 active torsions:
REMARK  status: ('A' for Active; 'I' for Inactive)
REMARK    1  A    between atoms: C_13  and  C_16 
REMARK    2  A    between atoms: C_14  and  C_17 
REMARK    3  A    between atoms: C_15  and  C_18 
REMARK    4  A    between atoms: C_16  and  C_22 
REMARK    5  A    between atoms: C_17  and  C_23 
REMARK    6  A    between atoms: C_18  and  C_24 
REMARK    7  A    between atoms: C_19  and  C_25 
REMARK    8  A    between atoms: C_20  and  C_26 
REMARK    9  A    between atoms: C_21  and  C_27 
ROOT
HETATM    1  O   UNL     1      49.667  39.716  -2.074  1.00  0.00    -0.304 OA
HETATM    2  O   UNL     1      51.450  40.571   2.602  1.00  0.00    -0.304 OA
HETATM    3  O   UNL     1      51.791  43.122  -1.501  1.00  0.00    -0.304 OA
HETATM    4  O   UNL     1      49.194  39.002   0.374  1.00  0.00    -0.270 OA
HETATM    5  O   UNL     1      52.254  43.711  -4.866  1.00  0.00    -0.270 OA
HETATM    6  O   UNL     1      50.073  42.133   0.988  1.00  0.00    -0.270 OA
HETATM    7  O   UNL     1      50.596  39.658  -4.184  1.00  0.00    -0.263 OA
HETATM    8  O   UNL     1      53.020  39.980   1.016  1.00  0.00    -0.263 OA
HETATM    9  O   UNL     1      51.280  45.213  -2.315  1.00  0.00    -0.263 OA
HETATM   10  N   UNL     1      51.228  37.889   0.467  1.00  0.00    -0.340 N 
HETATM   11  N   UNL     1      50.404  42.432  -4.300  1.00  0.00    -0.340 N 
HETATM   12  N   UNL     1      51.560  43.915   1.019  1.00  0.00    -0.340 N 
HETATM   13  C   UNL     1      51.441  38.327   1.861  1.00  0.00     0.190 C 
HETATM   14  C   UNL     1      49.593  41.704  -3.301  1.00  0.00     0.190 C 
HETATM   15  C   UNL     1      50.784  44.661   0.002  1.00  0.00     0.190 C 
HETATM   16  C   UNL     1      50.151  38.399  -1.731  1.00  0.00     0.227 C 
HETATM   17  C   UNL     1      51.871  41.949   2.559  1.00  0.00     0.227 C 
HETATM   18  C   UNL     1      52.365  42.635  -2.718  1.00  0.00     0.227 C 
HETATM   19  C   UNL     1      50.127  38.435  -0.209  1.00  0.00     0.250 C 
HETATM   20  C   UNL     1      51.667  42.991  -4.049  1.00  0.00     0.250 C 
HETATM   21  C   UNL     1      51.089  42.665   1.452  1.00  0.00     0.250 C 
HETATM   22  C   UNL     1      50.022  40.246  -3.279  1.00  0.00     0.283 C 
HETATM   23  C   UNL     1      52.085  39.703   1.757  1.00  0.00     0.283 C 
HETATM   24  C   UNL     1      51.344  44.405  -1.397  1.00  0.00     0.283 C 
HETATM   25  C   UNL     1      52.234  37.039  -0.172  1.00  0.00     0.153 C 
HETATM   26  C   UNL     1      49.848  42.579  -5.645  1.00  0.00     0.153 C 
HETATM   27  C   UNL     1      52.825  44.520   1.449  1.00  0.00     0.153 C 
ENDROOT
BRANCH  16  28
HETATM   28  C   UNL     1      49.203  37.337  -2.259  1.00  0.00     0.016 C 
HETATM   29  C   UNL     1      48.607  36.528  -1.109  1.00  0.00     0.012 C 
HETATM   30  C   UNL     1      49.920  36.418  -3.246  1.00  0.00     0.012 C 
ENDBRANCH  16  28
BRANCH  14  31
HETATM   31  C   UNL     1      48.082  41.802  -3.500  1.00  0.00     0.014 C 
HETATM   32  C   UNL     1      47.544  40.475  -4.040  1.00  0.00     0.012 C 
BRANCH  31  33
HETATM   33  C   UNL     1      47.344  42.175  -2.202  1.00  0.00     0.002 C 
HETATM   34  C   UNL     1      47.883  43.432  -1.534  1.00  0.00     0.005 C 
ENDBRANCH  31  33
ENDBRANCH  14  31
BRANCH  13  35
HETATM   35  C   UNL     1      52.298  37.422   2.735  1.00  0.00     0.014 C 
HETATM   36  C   UNL     1      52.765  38.189   3.975  1.00  0.00     0.012 C 
BRANCH  35  37
HETATM   37  C   UNL     1      51.556  36.143   3.162  1.00  0.00     0.002 C 
HETATM   38  C   UNL     1      52.455  35.116   3.839  1.00  0.00     0.005 C 
ENDBRANCH  35  37
ENDBRANCH  13  35
BRANCH  18  39
HETATM   39  C   UNL     1      53.838  43.048  -2.731  1.00  0.00     0.016 C 
HETATM   40  C   UNL     1      54.422  42.997  -1.321  1.00  0.00     0.012 C 
HETATM   41  C   UNL     1      54.637  42.152  -3.675  1.00  0.00     0.012 C 
ENDBRANCH  18  39
BRANCH  17  42
HETATM   42  C   UNL     1      51.540  42.559   3.914  1.00  0.00     0.016 C 
HETATM   43  C   UNL     1      52.762  42.530   4.832  1.00  0.00     0.012 C 
HETATM   44  C   UNL     1      50.366  41.827   4.563  1.00  0.00     0.012 C 
ENDBRANCH  17  42
BRANCH  15  45
HETATM   45  C   UNL     1      50.676  46.156   0.297  1.00  0.00     0.014 C 
HETATM   46  C   UNL     1      51.819  46.909  -0.391  1.00  0.00     0.012 C 
BRANCH  45  47
HETATM   47  C   UNL     1      49.324  46.750  -0.145  1.00  0.00     0.002 C 
HETATM   48  C   UNL     1      49.321  48.270  -0.203  1.00  0.00     0.005 C 
ENDBRANCH  45  47
ENDBRANCH  15  45
TORSDOF 9
ENDMDL
MODEL 11
REMARK VINA RESULT:    -4.257      1.835      6.866
REMARK INTER + INTRA:          -6.014
REMARK INTER:                  -6.410
REMARK INTRA:                   0.396
REMARK UNBOUND:                 0.483
REMARK  9 active torsions:
REMARK  status: ('A' for Active; 'I' for Inactive)
REMARK    1  A    between atoms: C_13  and  C_16 
REMARK    2  A    between atoms: C_14  and  C_17 
REMARK    3  A    between atoms: C_15  and  C_18 
REMARK    4  A    between atoms: C_16  and  C_22 
REMARK    5  A    between atoms: C_17  and  C_23 
REMARK    6  A    between atoms: C_18  and  C_24 
REMARK    7  A    between atoms: C_19  and  C_25 
REMARK    8  A    between atoms: C_20  and  C_26 
REMARK    9  A    between atoms: C_21  and  C_27 
ROOT
HETATM    1  O   UNL     1      50.327  35.275   2.403  1.00  0.00    -0.304 OA
HETATM    2  O   UNL     1      46.590  38.569   1.424  1.00  0.00    -0.304 OA
HETATM    3  O   UNL     1      46.700  33.726   1.457  1.00  0.00    -0.304 OA
HETATM    4  O   UNL     1      49.707  37.747   2.880  1.00  0.00    -0.270 OA
HETATM    5  O   UNL     1      47.918  30.556   0.862  1.00  0.00    -0.270 OA
HETATM    6  O   UNL     1      46.651  36.487   3.038  1.00  0.00    -0.270 OA
HETATM    7  O   UNL     1      51.232  33.465   1.296  1.00  0.00    -0.263 OA
HETATM    8  O   UNL     1      47.437  37.433  -0.399  1.00  0.00    -0.263 OA
HETATM    9  O   UNL     1      45.653  31.954   2.484  1.00  0.00    -0.263 OA
HETATM   10  N   UNL     1      49.917  38.259   0.627  1.00  0.00    -0.340 N 
HETATM   11  N   UNL     1      49.174  31.879   2.294  1.00  0.00    -0.340 N 
HETATM   12  N   UNL     1      44.786  35.421   2.160  1.00  0.00    -0.340 N 
HETATM   13  C   UNL     1      48.755  39.168   0.692  1.00  0.00     0.190 C 
HETATM   14  C   UNL     1      49.451  33.176   2.945  1.00  0.00     0.190 C 
HETATM   15  C   UNL     1      44.985  34.231   3.019  1.00  0.00     0.190 C 
HETATM   16  C   UNL     1      51.029  36.236   1.585  1.00  0.00     0.227 C 
HETATM   17  C   UNL     1      45.404  37.749   1.430  1.00  0.00     0.227 C 
HETATM   18  C   UNL     1      47.568  32.926   0.648  1.00  0.00     0.227 C 
HETATM   19  C   UNL     1      50.186  37.491   1.769  1.00  0.00     0.250 C 
HETATM   20  C   UNL     1      48.218  31.679   1.285  1.00  0.00     0.250 C 
HETATM   21  C   UNL     1      45.676  36.501   2.277  1.00  0.00     0.250 C 
HETATM   22  C   UNL     1      50.455  33.951   2.105  1.00  0.00     0.283 C 
HETATM   23  C   UNL     1      47.536  38.280   0.480  1.00  0.00     0.283 C 
HETATM   24  C   UNL     1      45.773  33.154   2.274  1.00  0.00     0.283 C 
HETATM   25  C   UNL     1      50.625  38.103  -0.645  1.00  0.00     0.153 C 
HETATM   26  C   UNL     1      49.954  30.721   2.733  1.00  0.00     0.153 C 
HETATM   27  C   UNL     1      43.696  35.346   1.182  1.00  0.00     0.153 C 
ENDROOT
BRANCH  16  28
HETATM   28  C   UNL     1      52.435  36.451   2.117  1.00  0.00     0.016 C 
HETATM   29  C   UNL     1      52.584  37.858   2.691  1.00  0.00     0.012 C 
HETATM   30  C   UNL     1      53.469  36.208   1.019  1.00  0.00     0.012 C 
ENDBRANCH  16  28
BRANCH  14  31
HETATM   31  C   UNL     1      49.938  33.084   4.390  1.00  0.00     0.014 C 
HETATM   32  C   UNL     1      51.244  33.866   4.546  1.00  0.00     0.012 C 
BRANCH  31  33
HETATM   33  C   UNL     1      48.895  33.603   5.394  1.00  0.00     0.002 C 
HETATM   34  C   UNL     1      48.725  32.708   6.613  1.00  0.00     0.005 C 
ENDBRANCH  31  33
ENDBRANCH  14  31
BRANCH  13  35
HETATM   35  C   UNL     1      48.734  40.318  -0.306  1.00  0.00     0.014 C 
HETATM   36  C   UNL     1      47.320  40.898  -0.400  1.00  0.00     0.012 C 
BRANCH  35  37
HETATM   37  C   UNL     1      49.730  41.433   0.061  1.00  0.00     0.002 C 
HETATM   38  C   UNL     1      50.556  41.924  -1.122  1.00  0.00     0.005 C 
ENDBRANCH  35  37
ENDBRANCH  13  35
BRANCH  18  39
HETATM   39  C   UNL     1      46.806  32.568  -0.630  1.00  0.00     0.016 C 
HETATM   40  C   UNL     1      45.914  33.728  -1.066  1.00  0.00     0.012 C 
HETATM   41  C   UNL     1      47.778  32.188  -1.745  1.00  0.00     0.012 C 
ENDBRANCH  18  39
BRANCH  17  42
HETATM   42  C   UNL     1      44.292  38.578   2.059  1.00  0.00     0.016 C 
HETATM   43  C   UNL     1      43.944  39.775   1.175  1.00  0.00     0.012 C 
HETATM   44  C   UNL     1      44.693  39.045   3.458  1.00  0.00     0.012 C 
ENDBRANCH  17  42
BRANCH  15  45
HETATM   45  C   UNL     1      43.684  33.675   3.596  1.00  0.00     0.014 C 
HETATM   46  C   UNL     1      43.989  32.750   4.779  1.00  0.00     0.012 C 
BRANCH  45  47
HETATM   47  C   UNL     1      42.713  34.785   4.043  1.00  0.00     0.002 C 
HETATM   48  C   UNL     1      41.267  34.518   3.653  1.00  0.00     0.005 C 
ENDBRANCH  45  47
ENDBRANCH  15  45
TORSDOF 9
ENDMDL
MODEL 12
REMARK VINA RESULT:    -4.234      3.841      9.648
REMARK INTER + INTRA:          -5.979
REMARK INTER:                  -6.818
REMARK INTRA:                   0.838
REMARK UNBOUND:                 0.483
REMARK  9 active torsions:
REMARK  status: ('A' for Active; 'I' for Inactive)
REMARK    1  A    between atoms: C_13  and  C_16 
REMARK    2  A    between atoms: C_14  and  C_17 
REMARK    3  A    between atoms: C_15  and  C_18 
REMARK    4  A    between atoms: C_16  and  C_22 
REMARK    5  A    between atoms: C_17  and  C_23 
REMARK    6  A    between atoms: C_18  and  C_24 
REMARK    7  A    between atoms: C_19  and  C_25 
REMARK    8  A    between atoms: C_20  and  C_26 
REMARK    9  A    between atoms: C_21  and  C_27 
ROOT
HETATM    1  O   UNL     1      49.875  42.142   0.060  1.00  0.00    -0.304 OA
HETATM    2  O   UNL     1      45.371  41.142  -2.057  1.00  0.00    -0.304 OA
HETATM    3  O   UNL     1      48.469  38.354   0.411  1.00  0.00    -0.304 OA
HETATM    4  O   UNL     1      47.744  43.398  -0.719  1.00  0.00    -0.270 OA
HETATM    5  O   UNL     1      51.504  37.038   1.380  1.00  0.00    -0.270 OA
HETATM    6  O   UNL     1      46.263  40.646   0.372  1.00  0.00    -0.270 OA
HETATM    7  O   UNL     1      51.977  41.200  -0.065  1.00  0.00    -0.263 OA
HETATM    8  O   UNL     1      47.210  40.251  -3.131  1.00  0.00    -0.263 OA
HETATM    9  O   UNL     1      48.525  37.037   2.296  1.00  0.00    -0.263 OA
HETATM   10  N   UNL     1      48.211  42.866  -2.929  1.00  0.00    -0.340 N 
HETATM   11  N   UNL     1      51.189  39.296   1.806  1.00  0.00    -0.340 N 
HETATM   12  N   UNL     1      45.818  38.369   0.353  1.00  0.00    -0.340 N 
HETATM   13  C   UNL     1      46.778  42.648  -3.213  1.00  0.00     0.190 C 
HETATM   14  C   UNL     1      50.397  40.536   1.678  1.00  0.00     0.190 C 
HETATM   15  C   UNL     1      46.464  38.169   1.671  1.00  0.00     0.190 C 
HETATM   16  C   UNL     1      50.016  42.834  -1.199  1.00  0.00     0.227 C 
HETATM   17  C   UNL     1      45.018  39.854  -1.514  1.00  0.00     0.227 C 
HETATM   18  C   UNL     1      49.828  38.115   0.033  1.00  0.00     0.227 C 
HETATM   19  C   UNL     1      48.566  43.087  -1.590  1.00  0.00     0.250 C 
HETATM   20  C   UNL     1      50.902  38.092   1.143  1.00  0.00     0.250 C 
HETATM   21  C   UNL     1      45.758  39.664  -0.185  1.00  0.00     0.250 C 
HETATM   22  C   UNL     1      50.880  41.312   0.462  1.00  0.00     0.283 C 
HETATM   23  C   UNL     1      46.505  41.202  -2.818  1.00  0.00     0.283 C 
HETATM   24  C   UNL     1      47.921  37.740   1.496  1.00  0.00     0.283 C 
HETATM   25  C   UNL     1      49.182  42.703  -4.012  1.00  0.00     0.153 C 
HETATM   26  C   UNL     1      52.357  39.326   2.687  1.00  0.00     0.153 C 
HETATM   27  C   UNL     1      45.347  37.161  -0.333  1.00  0.00     0.153 C 
ENDROOT
BRANCH  16  28
HETATM   28  C   UNL     1      50.755  44.144  -0.999  1.00  0.00     0.016 C 
HETATM   29  C   UNL     1      52.147  44.079  -1.626  1.00  0.00     0.012 C 
HETATM   30  C   UNL     1      50.853  44.486   0.487  1.00  0.00     0.012 C 
ENDBRANCH  16  28
BRANCH  14  31
HETATM   31  C   UNL     1      50.403  41.438   2.911  1.00  0.00     0.014 C 
HETATM   32  C   UNL     1      50.019  40.624   4.149  1.00  0.00     0.012 C 
BRANCH  31  33
HETATM   33  C   UNL     1      51.766  42.115   3.134  1.00  0.00     0.002 C 
HETATM   34  C   UNL     1      51.733  43.223   4.176  1.00  0.00     0.005 C 
ENDBRANCH  31  33
ENDBRANCH  14  31
BRANCH  13  35
HETATM   35  C   UNL     1      46.325  42.885  -4.647  1.00  0.00     0.014 C 
HETATM   36  C   UNL     1      45.083  42.040  -4.945  1.00  0.00     0.012 C 
BRANCH  35  37
HETATM   37  C   UNL     1      46.027  44.367  -4.932  1.00  0.00     0.002 C 
HETATM   38  C   UNL     1      45.206  44.590  -6.195  1.00  0.00     0.005 C 
ENDBRANCH  35  37
ENDBRANCH  13  35
BRANCH  18  39
HETATM   39  C   UNL     1      49.857  36.833  -0.800  1.00  0.00     0.016 C 
HETATM   40  C   UNL     1      48.593  36.716  -1.648  1.00  0.00     0.012 C 
HETATM   41  C   UNL     1      51.102  36.795  -1.684  1.00  0.00     0.012 C 
ENDBRANCH  18  39
BRANCH  17  42
HETATM   42  C   UNL     1      43.514  39.866  -1.280  1.00  0.00     0.016 C 
HETATM   43  C   UNL     1      42.774  40.321  -2.538  1.00  0.00     0.012 C 
HETATM   44  C   UNL     1      43.159  40.765  -0.097  1.00  0.00     0.012 C 
ENDBRANCH  17  42
BRANCH  15  45
HETATM   45  C   UNL     1      45.703  37.208   2.581  1.00  0.00     0.014 C 
HETATM   46  C   UNL     1      46.419  37.085   3.930  1.00  0.00     0.012 C 
BRANCH  45  47
HETATM   47  C   UNL     1      44.241  37.640   2.808  1.00  0.00     0.002 C 
HETATM   48  C   UNL     1      44.107  39.046   3.373  1.00  0.00     0.005 C 
ENDBRANCH  45  47
ENDBRANCH  15  45
TORSDOF 9
ENDMDL
MODEL 13
REMARK VINA RESULT:    -4.233      2.634      7.560
REMARK INTER + INTRA:          -5.977
REMARK INTER:                  -6.248
REMARK INTRA:                   0.270
REMARK UNBOUND:                 0.483
REMARK  9 active torsions:
REMARK  status: ('A' for Active; 'I' for Inactive)
REMARK    1  A    between atoms: C_13  and  C_16 
REMARK    2  A    between atoms: C_14  and  C_17 
REMARK    3  A    between atoms: C_15  and  C_18 
REMARK    4  A    between atoms: C_16  and  C_22 
REMARK    5  A    between atoms: C_17  and  C_23 
REMARK    6  A    between atoms: C_18  and  C_24 
REMARK    7  A    between atoms: C_19  and  C_25 
REMARK    8  A    between atoms: C_20  and  C_26 
REMARK    9  A    between atoms: C_21  and  C_27 
ROOT
HETATM    1  O   UNL     1      43.721  37.186  -1.925  1.00  0.00    -0.304 OA
HETATM    2  O   UNL     1      47.812  39.761  -0.374  1.00  0.00    -0.304 OA
HETATM    3  O   UNL     1      44.415  37.321   2.069  1.00  0.00    -0.304 OA
HETATM    4  O   UNL     1      45.994  38.017  -2.857  1.00  0.00    -0.270 OA
HETATM    5  O   UNL     1      41.257  36.231   2.919  1.00  0.00    -0.270 OA
HETATM    6  O   UNL     1      47.003  37.324   0.218  1.00  0.00    -0.270 OA
HETATM    7  O   UNL     1      41.477  37.224  -1.394  1.00  0.00    -0.263 OA
HETATM    8  O   UNL     1      45.773  40.757   0.050  1.00  0.00    -0.263 OA
HETATM    9  O   UNL     1      44.236  35.573   3.554  1.00  0.00    -0.263 OA
HETATM   10  N   UNL     1      45.294  40.220  -2.664  1.00  0.00    -0.340 N 
HETATM   11  N   UNL     1      42.014  35.618   0.815  1.00  0.00    -0.340 N 
HETATM   12  N   UNL     1      47.013  37.599   2.522  1.00  0.00    -0.340 N 
HETATM   13  C   UNL     1      46.639  40.644  -2.225  1.00  0.00     0.190 C 
HETATM   14  C   UNL     1      43.015  35.693  -0.270  1.00  0.00     0.190 C 
HETATM   15  C   UNL     1      46.427  36.257   2.747  1.00  0.00     0.190 C 
HETATM   16  C   UNL     1      43.631  38.357  -2.765  1.00  0.00     0.227 C 
HETATM   17  C   UNL     1      47.953  39.376   1.008  1.00  0.00     0.227 C 
HETATM   18  C   UNL     1      43.014  37.604   2.017  1.00  0.00     0.227 C 
HETATM   19  C   UNL     1      45.074  38.842  -2.796  1.00  0.00     0.250 C 
HETATM   20  C   UNL     1      42.028  36.416   1.970  1.00  0.00     0.250 C 
HETATM   21  C   UNL     1      47.279  38.013   1.208  1.00  0.00     0.250 C 
HETATM   22  C   UNL     1      42.607  36.783  -1.249  1.00  0.00     0.283 C 
HETATM   23  C   UNL     1      46.662  40.414  -0.719  1.00  0.00     0.283 C 
HETATM   24  C   UNL     1      44.907  36.350   2.887  1.00  0.00     0.283 C 
HETATM   25  C   UNL     1      44.241  41.229  -2.797  1.00  0.00     0.153 C 
HETATM   26  C   UNL     1      40.933  34.644   0.672  1.00  0.00     0.153 C 
HETATM   27  C   UNL     1      47.204  38.435   3.712  1.00  0.00     0.153 C 
ENDROOT
BRANCH  16  28
HETATM   28  C   UNL     1      43.164  37.970  -4.157  1.00  0.00     0.016 C 
HETATM   29  C   UNL     1      44.229  38.310  -5.197  1.00  0.00     0.012 C 
HETATM   30  C   UNL     1      41.845  38.663  -4.495  1.00  0.00     0.012 C 
ENDBRANCH  16  28
BRANCH  14  31
HETATM   31  C   UNL     1      43.257  34.382  -1.017  1.00  0.00     0.014 C 
HETATM   32  C   UNL     1      42.787  34.519  -2.467  1.00  0.00     0.012 C 
BRANCH  31  33
HETATM   33  C   UNL     1      44.735  33.955  -0.986  1.00  0.00     0.002 C 
HETATM   34  C   UNL     1      45.481  34.247  -2.279  1.00  0.00     0.005 C 
ENDBRANCH  31  33
ENDBRANCH  14  31
BRANCH  13  35
HETATM   35  C   UNL     1      47.034  42.081  -2.534  1.00  0.00     0.014 C 
HETATM   36  C   UNL     1      48.151  42.527  -1.585  1.00  0.00     0.012 C 
BRANCH  35  37
HETATM   37  C   UNL     1      47.486  42.267  -3.993  1.00  0.00     0.002 C 
HETATM   38  C   UNL     1      47.032  43.584  -4.607  1.00  0.00     0.005 C 
ENDBRANCH  35  37
ENDBRANCH  13  35
BRANCH  18  39
HETATM   39  C   UNL     1      42.692  38.552   3.175  1.00  0.00     0.016 C 
HETATM   40  C   UNL     1      43.912  39.398   3.530  1.00  0.00     0.012 C 
HETATM   41  C   UNL     1      41.503  39.444   2.823  1.00  0.00     0.012 C 
ENDBRANCH  18  39
BRANCH  17  42
HETATM   42  C   UNL     1      49.445  39.268   1.291  1.00  0.00     0.016 C 
HETATM   43  C   UNL     1      49.947  40.513   2.023  1.00  0.00     0.012 C 
HETATM   44  C   UNL     1      50.227  39.058  -0.005  1.00  0.00     0.012 C 
ENDBRANCH  17  42
BRANCH  15  45
HETATM   45  C   UNL     1      47.053  35.511   3.923  1.00  0.00     0.014 C 
HETATM   46  C   UNL     1      46.166  35.652   5.165  1.00  0.00     0.012 C 
BRANCH  45  47
HETATM   47  C   UNL     1      47.287  34.018   3.621  1.00  0.00     0.002 C 
HETATM   48  C   UNL     1      47.422  33.715   2.136  1.00  0.00     0.005 C 
ENDBRANCH  45  47
ENDBRANCH  15  45
TORSDOF 9
ENDMDL
MODEL 14
REMARK VINA RESULT:    -4.128      2.176      7.988
REMARK INTER + INTRA:          -5.818
REMARK INTER:                  -6.547
REMARK INTRA:                   0.729
REMARK UNBOUND:                 0.483
REMARK  9 active torsions:
REMARK  status: ('A' for Active; 'I' for Inactive)
REMARK    1  A    between atoms: C_13  and  C_16 
REMARK    2  A    between atoms: C_14  and  C_17 
REMARK    3  A    between atoms: C_15  and  C_18 
REMARK    4  A    between atoms: C_16  and  C_22 
REMARK    5  A    between atoms: C_17  and  C_23 
REMARK    6  A    between atoms: C_18  and  C_24 
REMARK    7  A    between atoms: C_19  and  C_25 
REMARK    8  A    between atoms: C_20  and  C_26 
REMARK    9  A    between atoms: C_21  and  C_27 
ROOT
HETATM    1  O   UNL     1      49.622  38.137   1.165  1.00  0.00    -0.304 OA
HETATM    2  O   UNL     1      46.023  35.609   3.699  1.00  0.00    -0.304 OA
HETATM    3  O   UNL     1      49.688  34.089   0.922  1.00  0.00    -0.304 OA
HETATM    4  O   UNL     1      47.997  38.493   3.153  1.00  0.00    -0.270 OA
HETATM    5  O   UNL     1      51.841  34.025  -1.770  1.00  0.00    -0.270 OA
HETATM    6  O   UNL     1      48.638  35.289   3.675  1.00  0.00    -0.270 OA
HETATM    7  O   UNL     1      50.382  38.140  -1.013  1.00  0.00    -0.263 OA
HETATM    8  O   UNL     1      45.805  35.641   1.401  1.00  0.00    -0.263 OA
HETATM    9  O   UNL     1      51.544  32.735   1.052  1.00  0.00    -0.263 OA
HETATM   10  N   UNL     1      46.180  38.407   1.713  1.00  0.00    -0.340 N 
HETATM   11  N   UNL     1      51.945  35.913  -0.427  1.00  0.00    -0.340 N 
HETATM   12  N   UNL     1      48.619  33.038   3.109  1.00  0.00    -0.340 N 
HETATM   13  C   UNL     1      45.386  37.656   2.706  1.00  0.00     0.190 C 
HETATM   14  C   UNL     1      51.431  36.734   0.689  1.00  0.00     0.190 C 
HETATM   15  C   UNL     1      50.095  32.993   2.989  1.00  0.00     0.190 C 
HETATM   16  C   UNL     1      48.465  38.943   0.854  1.00  0.00     0.227 C 
HETATM   17  C   UNL     1      46.483  34.243   3.673  1.00  0.00     0.227 C 
HETATM   18  C   UNL     1      49.879  34.456  -0.448  1.00  0.00     0.227 C 
HETATM   19  C   UNL     1      47.532  38.624   2.014  1.00  0.00     0.250 C 
HETATM   20  C   UNL     1      51.313  34.763  -0.930  1.00  0.00     0.250 C 
HETATM   21  C   UNL     1      48.005  34.243   3.483  1.00  0.00     0.250 C 
HETATM   22  C   UNL     1      50.439  37.750   0.144  1.00  0.00     0.283 C 
HETATM   23  C   UNL     1      45.752  36.193   2.493  1.00  0.00     0.283 C 
HETATM   24  C   UNL     1      50.524  33.207   1.537  1.00  0.00     0.283 C 
HETATM   25  C   UNL     1      45.566  38.752   0.429  1.00  0.00     0.153 C 
HETATM   26  C   UNL     1      53.201  36.329  -1.052  1.00  0.00     0.153 C 
HETATM   27  C   UNL     1      47.897  31.814   2.749  1.00  0.00     0.153 C 
ENDROOT
BRANCH  16  28
HETATM   28  C   UNL     1      48.836  40.414   0.849  1.00  0.00     0.016 C 
HETATM   29  C   UNL     1      49.110  40.897  -0.574  1.00  0.00     0.012 C 
HETATM   30  C   UNL     1      50.048  40.668   1.743  1.00  0.00     0.012 C 
ENDBRANCH  16  28
BRANCH  14  31
HETATM   31  C   UNL     1      52.502  37.440   1.518  1.00  0.00     0.014 C 
HETATM   32  C   UNL     1      52.674  38.879   1.023  1.00  0.00     0.012 C 
BRANCH  31  33
HETATM   33  C   UNL     1      52.173  37.441   3.021  1.00  0.00     0.002 C 
HETATM   34  C   UNL     1      52.133  36.049   3.636  1.00  0.00     0.005 C 
ENDBRANCH  31  33
ENDBRANCH  14  31
BRANCH  13  35
HETATM   35  C   UNL     1      43.874  37.824   2.637  1.00  0.00     0.014 C 
HETATM   36  C   UNL     1      43.187  36.585   3.217  1.00  0.00     0.012 C 
BRANCH  35  37
HETATM   37  C   UNL     1      43.388  39.083   3.377  1.00  0.00     0.002 C 
HETATM   38  C   UNL     1      41.961  39.483   3.023  1.00  0.00     0.005 C 
ENDBRANCH  35  37
ENDBRANCH  13  35
BRANCH  18  39
HETATM   39  C   UNL     1      49.218  33.379  -1.310  1.00  0.00     0.016 C 
HETATM   40  C   UNL     1      47.958  32.848  -0.632  1.00  0.00     0.012 C 
HETATM   41  C   UNL     1      48.891  33.928  -2.697  1.00  0.00     0.012 C 
ENDBRANCH  18  39
BRANCH  17  42
HETATM   42  C   UNL     1      46.123  33.625   5.016  1.00  0.00     0.016 C 
HETATM   43  C   UNL     1      44.680  33.119   5.009  1.00  0.00     0.012 C 
HETATM   44  C   UNL     1      46.330  34.631   6.147  1.00  0.00     0.012 C 
ENDBRANCH  17  42
BRANCH  15  45
HETATM   45  C   UNL     1      50.713  31.725   3.574  1.00  0.00     0.014 C 
HETATM   46  C   UNL     1      51.528  30.995   2.500  1.00  0.00     0.012 C 
BRANCH  45  47
HETATM   47  C   UNL     1      51.607  32.011   4.796  1.00  0.00     0.002 C 
HETATM   48  C   UNL     1      50.987  32.987   5.785  1.00  0.00     0.005 C 
ENDBRANCH  45  47
ENDBRANCH  15  45
TORSDOF 9
ENDMDL
MODEL 15
REMARK VINA RESULT:    -4.079     16.668     21.410
REMARK INTER + INTRA:          -5.743
REMARK INTER:                  -5.646
REMARK INTRA:                  -0.096
REMARK UNBOUND:                 0.483
REMARK  9 active torsions:
REMARK  status: ('A' for Active; 'I' for Inactive)
REMARK    1  A    between atoms: C_13  and  C_16 
REMARK    2  A    between atoms: C_14  and  C_17 
REMARK    3  A    between atoms: C_15  and  C_18 
REMARK    4  A    between atoms: C_16  and  C_22 
REMARK    5  A    between atoms: C_17  and  C_23 
REMARK    6  A    between atoms: C_18  and  C_24 
REMARK    7  A    between atoms: C_19  and  C_25 
REMARK    8  A    between atoms: C_20  and  C_26 
REMARK    9  A    between atoms: C_21  and  C_27 
ROOT
HETATM    1  O   UNL     1      51.441  56.230   3.994  1.00  0.00    -0.304 OA
HETATM    2  O   UNL     1      46.456  55.311   4.264  1.00  0.00    -0.304 OA
HETATM    3  O   UNL     1      49.454  55.776   0.488  1.00  0.00    -0.304 OA
HETATM    4  O   UNL     1      49.697  55.316   5.681  1.00  0.00    -0.270 OA
HETATM    5  O   UNL     1      51.996  57.102  -1.426  1.00  0.00    -0.270 OA
HETATM    6  O   UNL     1      48.352  54.059   2.930  1.00  0.00    -0.270 OA
HETATM    7  O   UNL     1      52.754  57.770   2.889  1.00  0.00    -0.263 OA
HETATM    8  O   UNL     1      47.055  57.417   3.533  1.00  0.00    -0.263 OA
HETATM    9  O   UNL     1      50.162  54.583  -1.348  1.00  0.00    -0.263 OA
HETATM   10  N   UNL     1      48.695  57.405   5.813  1.00  0.00    -0.340 N 
HETATM   11  N   UNL     1      52.625  56.181   0.607  1.00  0.00    -0.340 N 
HETATM   12  N   UNL     1      47.346  54.208   0.845  1.00  0.00    -0.340 N 
HETATM   13  C   UNL     1      47.352  56.793   5.870  1.00  0.00     0.190 C 
HETATM   14  C   UNL     1      52.285  55.579   1.913  1.00  0.00     0.190 C 
HETATM   15  C   UNL     1      48.522  53.615   0.166  1.00  0.00     0.190 C 
HETATM   16  C   UNL     1      51.055  57.168   5.022  1.00  0.00     0.227 C 
HETATM   17  C   UNL     1      46.112  54.904   2.924  1.00  0.00     0.227 C 
HETATM   18  C   UNL     1      50.245  56.936   0.215  1.00  0.00     0.227 C 
HETATM   19  C   UNL     1      49.773  56.544   5.560  1.00  0.00     0.250 C 
HETATM   20  C   UNL     1      51.692  56.734  -0.285  1.00  0.00     0.250 C 
HETATM   21  C   UNL     1      47.370  54.358   2.240  1.00  0.00     0.250 C 
HETATM   22  C   UNL     1      52.215  56.676   2.964  1.00  0.00     0.283 C 
HETATM   23  C   UNL     1      46.944  56.578   4.418  1.00  0.00     0.283 C 
HETATM   24  C   UNL     1      49.447  54.712  -0.362  1.00  0.00     0.283 C 
HETATM   25  C   UNL     1      48.815  58.862   5.877  1.00  0.00     0.153 C 
HETATM   26  C   UNL     1      54.036  56.203   0.219  1.00  0.00     0.153 C 
HETATM   27  C   UNL     1      46.255  54.667  -0.022  1.00  0.00     0.153 C 
ENDROOT
BRANCH  16  28
HETATM   28  C   UNL     1      52.118  57.229   6.104  1.00  0.00     0.016 C 
HETATM   29  C   UNL     1      51.550  56.768   7.444  1.00  0.00     0.012 C 
HETATM   30  C   UNL     1      52.686  58.642   6.221  1.00  0.00     0.012 C 
ENDBRANCH  16  28
BRANCH  14  31
HETATM   31  C   UNL     1      53.225  54.468   2.378  1.00  0.00     0.014 C 
HETATM   32  C   UNL     1      54.063  54.960   3.560  1.00  0.00     0.012 C 
BRANCH  31  33
HETATM   33  C   UNL     1      52.468  53.187   2.771  1.00  0.00     0.002 C 
HETATM   34  C   UNL     1      51.741  52.528   1.608  1.00  0.00     0.005 C 
ENDBRANCH  31  33
ENDBRANCH  14  31
BRANCH  13  35
HETATM   35  C   UNL     1      46.274  57.586   6.596  1.00  0.00     0.014 C 
HETATM   36  C   UNL     1      44.892  57.039   6.230  1.00  0.00     0.012 C 
BRANCH  35  37
HETATM   37  C   UNL     1      46.455  57.563   8.124  1.00  0.00     0.002 C 
HETATM   38  C   UNL     1      46.838  56.194   8.670  1.00  0.00     0.005 C 
ENDBRANCH  35  37
ENDBRANCH  13  35
BRANCH  18  39
HETATM   39  C   UNL     1      49.444  57.826  -0.738  1.00  0.00     0.016 C 
HETATM   40  C   UNL     1      47.954  57.753  -0.414  1.00  0.00     0.012 C 
HETATM   41  C   UNL     1      49.939  59.269  -0.667  1.00  0.00     0.012 C 
ENDBRANCH  18  39
BRANCH  17  42
HETATM   42  C   UNL     1      45.064  53.807   3.046  1.00  0.00     0.016 C 
HETATM   43  C   UNL     1      43.885  54.278   3.898  1.00  0.00     0.012 C 
HETATM   44  C   UNL     1      45.676  52.538   3.637  1.00  0.00     0.012 C 
ENDBRANCH  17  42
BRANCH  15  45
HETATM   45  C   UNL     1      48.152  52.618  -0.930  1.00  0.00     0.014 C 
HETATM   46  C   UNL     1      49.349  51.712  -1.239  1.00  0.00     0.012 C 
BRANCH  45  47
HETATM   47  C   UNL     1      46.931  51.756  -0.559  1.00  0.00     0.002 C 
HETATM   48  C   UNL     1      47.288  50.517   0.250  1.00  0.00     0.005 C 
ENDBRANCH  45  47
ENDBRANCH  15  45
TORSDOF 9
ENDMDL
MODEL 16
REMARK VINA RESULT:    -3.817      9.967     14.948
REMARK INTER + INTRA:          -5.342
REMARK INTER:                  -5.677
REMARK INTRA:                   0.334
REMARK UNBOUND:                 0.483
REMARK  9 active torsions:
REMARK  status: ('A' for Active; 'I' for Inactive)
REMARK    1  A    between atoms: C_13  and  C_16 
REMARK    2  A    between atoms: C_14  and  C_17 
REMARK    3  A    between atoms: C_15  and  C_18 
REMARK    4  A    between atoms: C_16  and  C_22 
REMARK    5  A    between atoms: C_17  and  C_23 
REMARK    6  A    between atoms: C_18  and  C_24 
REMARK    7  A    between atoms: C_19  and  C_25 
REMARK    8  A    between atoms: C_20  and  C_26 
REMARK    9  A    between atoms: C_21  and  C_27 
ROOT
HETATM    1  O   UNL     1      55.575  44.182   4.825  1.00  0.00    -0.304 OA
HETATM    2  O   UNL     1      57.181  39.680   6.535  1.00  0.00    -0.304 OA
HETATM    3  O   UNL     1      59.501  43.866   5.788  1.00  0.00    -0.304 OA
HETATM    4  O   UNL     1      54.615  42.037   5.920  1.00  0.00    -0.270 OA
HETATM    5  O   UNL     1      60.402  46.772   4.168  1.00  0.00    -0.270 OA
HETATM    6  O   UNL     1      57.507  42.098   7.528  1.00  0.00    -0.270 OA
HETATM    7  O   UNL     1      56.245  45.620   3.152  1.00  0.00    -0.263 OA
HETATM    8  O   UNL     1      57.855  40.248   4.401  1.00  0.00    -0.263 OA
HETATM    9  O   UNL     1      60.760  45.405   6.946  1.00  0.00    -0.263 OA
HETATM   10  N   UNL     1      55.130  40.808   4.021  1.00  0.00    -0.340 N 
HETATM   11  N   UNL     1      58.193  46.634   4.861  1.00  0.00    -0.340 N 
HETATM   12  N   UNL     1      59.823  42.015   7.660  1.00  0.00    -0.340 N 
HETATM   13  C   UNL     1      55.535  39.648   4.840  1.00  0.00     0.190 C 
HETATM   14  C   UNL     1      57.066  45.874   5.440  1.00  0.00     0.190 C 
HETATM   15  C   UNL     1      59.911  43.431   8.087  1.00  0.00     0.190 C 
HETATM   16  C   UNL     1      54.897  43.294   3.909  1.00  0.00     0.227 C 
HETATM   17  C   UNL     1      58.491  39.965   7.064  1.00  0.00     0.227 C 
HETATM   18  C   UNL     1      59.574  44.543   4.530  1.00  0.00     0.227 C 
HETATM   19  C   UNL     1      54.838  41.997   4.704  1.00  0.00     0.250 C 
HETATM   20  C   UNL     1      59.438  46.081   4.519  1.00  0.00     0.250 C 
HETATM   21  C   UNL     1      58.558  41.452   7.432  1.00  0.00     0.250 C 
HETATM   22  C   UNL     1      56.261  45.243   4.314  1.00  0.00     0.283 C 
HETATM   23  C   UNL     1      56.994  39.896   5.198  1.00  0.00     0.283 C 
HETATM   24  C   UNL     1      60.156  44.342   6.883  1.00  0.00     0.283 C 
HETATM   25  C   UNL     1      55.193  40.702   2.561  1.00  0.00     0.153 C 
HETATM   26  C   UNL     1      57.996  48.065   4.629  1.00  0.00     0.153 C 
HETATM   27  C   UNL     1      61.094  41.321   7.434  1.00  0.00     0.153 C 
ENDROOT
BRANCH  16  28
HETATM   28  C   UNL     1      53.500  43.809   3.615  1.00  0.00     0.016 C 
HETATM   29  C   UNL     1      52.446  42.814   4.097  1.00  0.00     0.012 C 
HETATM   30  C   UNL     1      53.330  44.087   2.122  1.00  0.00     0.012 C 
ENDBRANCH  16  28
BRANCH  14  31
HETATM   31  C   UNL     1      56.145  46.679   6.354  1.00  0.00     0.014 C 
HETATM   32  C   UNL     1      54.867  47.054   5.600  1.00  0.00     0.012 C 
BRANCH  31  33
HETATM   33  C   UNL     1      55.787  45.917   7.642  1.00  0.00     0.002 C 
HETATM   34  C   UNL     1      56.994  45.580   8.506  1.00  0.00     0.005 C 
ENDBRANCH  31  33
ENDBRANCH  14  31
BRANCH  13  35
HETATM   35  C   UNL     1      55.387  38.276   4.197  1.00  0.00     0.014 C 
HETATM   36  C   UNL     1      56.297  37.270   4.908  1.00  0.00     0.012 C 
BRANCH  35  37
HETATM   37  C   UNL     1      53.935  37.769   4.217  1.00  0.00     0.002 C 
HETATM   38  C   UNL     1      53.407  37.380   2.843  1.00  0.00     0.005 C 
ENDBRANCH  35  37
ENDBRANCH  13  35
BRANCH  18  39
HETATM   39  C   UNL     1      60.861  44.091   3.837  1.00  0.00     0.016 C 
HETATM   40  C   UNL     1      61.152  42.625   4.151  1.00  0.00     0.012 C 
HETATM   41  C   UNL     1      60.761  44.307   2.328  1.00  0.00     0.012 C 
ENDBRANCH  18  39
BRANCH  17  42
HETATM   42  C   UNL     1      58.664  39.108   8.311  1.00  0.00     0.016 C 
HETATM   43  C   UNL     1      59.350  37.786   7.967  1.00  0.00     0.012 C 
HETATM   44  C   UNL     1      57.315  38.852   8.982  1.00  0.00     0.012 C 
ENDBRANCH  17  42
BRANCH  15  45
HETATM   45  C   UNL     1      60.941  43.670   9.189  1.00  0.00     0.014 C 
HETATM   46  C   UNL     1      62.295  44.037   8.570  1.00  0.00     0.012 C 
BRANCH  45  47
HETATM   47  C   UNL     1      60.507  44.771  10.176  1.00  0.00     0.002 C 
HETATM   48  C   UNL     1      61.645  45.291  11.041  1.00  0.00     0.005 C 
ENDBRANCH  45  47
ENDBRANCH  15  45
TORSDOF 9
ENDMDL
MODEL 17
REMARK VINA RESULT:    -3.798      2.482      8.502
REMARK INTER + INTRA:          -5.313
REMARK INTER:                  -6.036
REMARK INTRA:                   0.722
REMARK UNBOUND:                 0.483
REMARK  9 active torsions:
REMARK  status: ('A' for Active; 'I' for Inactive)
REMARK    1  A    between atoms: C_13  and  C_16 
REMARK    2  A    between atoms: C_14  and  C_17 
REMARK    3  A    between atoms: C_15  and  C_18 
REMARK    4  A    between atoms: C_16  and  C_22 
REMARK    5  A    between atoms: C_17  and  C_23 
REMARK    6  A    between atoms: C_18  and  C_24 
REMARK    7  A    between atoms: C_19  and  C_25 
REMARK    8  A    between atoms: C_20  and  C_26 
REMARK    9  A    between atoms: C_21  and  C_27 
ROOT
HETATM    1  O   UNL     1      48.845  39.649   0.008  1.00  0.00    -0.304 OA
HETATM    2  O   UNL     1      43.992  38.396   0.806  1.00  0.00    -0.304 OA
HETATM    3  O   UNL     1      48.114  35.948   1.496  1.00  0.00    -0.304 OA
HETATM    4  O   UNL     1      46.551  40.799   0.374  1.00  0.00    -0.270 OA
HETATM    5  O   UNL     1      51.276  34.760   0.805  1.00  0.00    -0.270 OA
HETATM    6  O   UNL     1      46.083  38.224   2.399  1.00  0.00    -0.270 OA
HETATM    7  O   UNL     1      50.608  38.690  -1.130  1.00  0.00    -0.263 OA
HETATM    8  O   UNL     1      45.019  37.361  -0.984  1.00  0.00    -0.263 OA
HETATM    9  O   UNL     1      49.268  34.894   3.184  1.00  0.00    -0.263 OA
HETATM   10  N   UNL     1      45.788  39.976  -1.657  1.00  0.00    -0.340 N 
HETATM   11  N   UNL     1      51.086  37.056   1.071  1.00  0.00    -0.340 N 
HETATM   12  N   UNL     1      45.856  35.967   2.886  1.00  0.00    -0.340 N 
HETATM   13  C   UNL     1      44.447  39.728  -1.091  1.00  0.00     0.190 C 
HETATM   14  C   UNL     1      50.265  38.272   1.253  1.00  0.00     0.190 C 
HETATM   15  C   UNL     1      47.123  35.942   3.654  1.00  0.00     0.190 C 
HETATM   16  C   UNL     1      48.238  40.167  -1.195  1.00  0.00     0.227 C 
HETATM   17  C   UNL     1      44.076  37.193   1.597  1.00  0.00     0.227 C 
HETATM   18  C   UNL     1      49.069  35.656   0.471  1.00  0.00     0.227 C 
HETATM   19  C   UNL     1      46.792  40.372  -0.762  1.00  0.00     0.250 C 
HETATM   20  C   UNL     1      50.570  35.775   0.813  1.00  0.00     0.250 C 
HETATM   21  C   UNL     1      45.427  37.178   2.323  1.00  0.00     0.250 C 
HETATM   22  C   UNL     1      49.963  38.877  -0.108  1.00  0.00     0.283 C 
HETATM   23  C   UNL     1      44.530  38.349  -0.449  1.00  0.00     0.283 C 
HETATM   24  C   UNL     1      48.281  35.486   2.766  1.00  0.00     0.283 C 
HETATM   25  C   UNL     1      46.032  39.666  -3.067  1.00  0.00     0.153 C 
HETATM   26  C   UNL     1      52.538  37.199   1.166  1.00  0.00     0.153 C 
HETATM   27  C   UNL     1      45.174  34.681   2.709  1.00  0.00     0.153 C 
ENDROOT
BRANCH  16  28
HETATM   28  C   UNL     1      48.876  41.489  -1.580  1.00  0.00     0.016 C 
HETATM   29  C   UNL     1      47.855  42.622  -1.509  1.00  0.00     0.012 C 
HETATM   30  C   UNL     1      49.487  41.407  -2.978  1.00  0.00     0.012 C 
ENDBRANCH  16  28
BRANCH  14  31
HETATM   31  C   UNL     1      50.873  39.329   2.173  1.00  0.00     0.014 C 
HETATM   32  C   UNL     1      51.273  40.559   1.354  1.00  0.00     0.012 C 
BRANCH  31  33
HETATM   33  C   UNL     1      49.914  39.744   3.302  1.00  0.00     0.002 C 
HETATM   34  C   UNL     1      50.366  40.983   4.062  1.00  0.00     0.005 C 
ENDBRANCH  31  33
ENDBRANCH  14  31
BRANCH  13  35
HETATM   35  C   UNL     1      43.278  39.773  -2.065  1.00  0.00     0.014 C 
HETATM   36  C   UNL     1      42.433  38.505  -1.921  1.00  0.00     0.012 C 
BRANCH  35  37
HETATM   37  C   UNL     1      42.392  41.015  -1.863  1.00  0.00     0.002 C 
HETATM   38  C   UNL     1      41.675  41.038  -0.519  1.00  0.00     0.005 C 
ENDBRANCH  35  37
ENDBRANCH  13  35
BRANCH  18  39
HETATM   39  C   UNL     1      48.732  34.273  -0.091  1.00  0.00     0.016 C 
HETATM   40  C   UNL     1      47.222  34.051  -0.102  1.00  0.00     0.012 C 
HETATM   41  C   UNL     1      49.308  34.111  -1.496  1.00  0.00     0.012 C 
ENDBRANCH  18  39
BRANCH  17  42
HETATM   42  C   UNL     1      42.939  37.242   2.608  1.00  0.00     0.016 C 
HETATM   43  C   UNL     1      41.654  36.676   2.003  1.00  0.00     0.012 C 
HETATM   44  C   UNL     1      42.714  38.672   3.098  1.00  0.00     0.012 C 
ENDBRANCH  17  42
BRANCH  15  45
HETATM   45  C   UNL     1      47.040  35.113   4.934  1.00  0.00     0.014 C 
HETATM   46  C   UNL     1      45.922  35.650   5.835  1.00  0.00     0.012 C 
BRANCH  45  47
HETATM   47  C   UNL     1      46.806  33.616   4.656  1.00  0.00     0.002 C 
HETATM   48  C   UNL     1      46.807  32.759   5.913  1.00  0.00     0.005 C 
ENDBRANCH  45  47
ENDBRANCH  15  45
TORSDOF 9
ENDMDL
MODEL 18
REMARK VINA RESULT:    -3.692     10.983     14.543
REMARK INTER + INTRA:          -5.151
REMARK INTER:                  -5.340
REMARK INTRA:                   0.189
REMARK UNBOUND:                 0.483
REMARK  9 active torsions:
REMARK  status: ('A' for Active; 'I' for Inactive)
REMARK    1  A    between atoms: C_13  and  C_16 
REMARK    2  A    between atoms: C_14  and  C_17 
REMARK    3  A    between atoms: C_15  and  C_18 
REMARK    4  A    between atoms: C_16  and  C_22 
REMARK    5  A    between atoms: C_17  and  C_23 
REMARK    6  A    between atoms: C_18  and  C_24 
REMARK    7  A    between atoms: C_19  and  C_25 
REMARK    8  A    between atoms: C_20  and  C_26 
REMARK    9  A    between atoms: C_21  and  C_27 
ROOT
HETATM    1  O   UNL     1      55.659  43.416   4.979  1.00  0.00    -0.304 OA
HETATM    2  O   UNL     1      56.017  48.334   6.182  1.00  0.00    -0.304 OA
HETATM    3  O   UNL     1      56.656  45.979   1.999  1.00  0.00    -0.304 OA
HETATM    4  O   UNL     1      54.820  45.062   6.797  1.00  0.00    -0.270 OA
HETATM    5  O   UNL     1      57.732  43.493  -0.134  1.00  0.00    -0.270 OA
HETATM    6  O   UNL     1      54.709  47.146   4.228  1.00  0.00    -0.270 OA
HETATM    7  O   UNL     1      57.041  41.890   3.939  1.00  0.00    -0.263 OA
HETATM    8  O   UNL     1      58.013  47.247   5.777  1.00  0.00    -0.263 OA
HETATM    9  O   UNL     1      55.840  45.969  -0.152  1.00  0.00    -0.263 OA
HETATM   10  N   UNL     1      56.988  45.347   7.572  1.00  0.00    -0.340 N 
HETATM   11  N   UNL     1      56.186  42.858   1.473  1.00  0.00    -0.340 N 
HETATM   12  N   UNL     1      55.647  48.379   2.500  1.00  0.00    -0.340 N 
HETATM   13  C   UNL     1      56.750  46.785   7.809  1.00  0.00     0.190 C 
HETATM   14  C   UNL     1      55.375  43.153   2.673  1.00  0.00     0.190 C 
HETATM   15  C   UNL     1      54.969  47.563   1.467  1.00  0.00     0.190 C 
HETATM   16  C   UNL     1      56.365  43.329   6.235  1.00  0.00     0.227 C 
HETATM   17  C   UNL     1      56.074  48.994   4.902  1.00  0.00     0.227 C 
HETATM   18  C   UNL     1      57.604  44.926   1.793  1.00  0.00     0.227 C 
HETATM   19  C   UNL     1      55.975  44.636   6.912  1.00  0.00     0.250 C 
HETATM   20  C   UNL     1      57.172  43.709   0.947  1.00  0.00     0.250 C 
HETATM   21  C   UNL     1      55.419  48.088   3.854  1.00  0.00     0.250 C 
HETATM   22  C   UNL     1      56.141  42.717   3.912  1.00  0.00     0.283 C 
HETATM   23  C   UNL     1      57.031  47.465   6.475  1.00  0.00     0.283 C 
HETATM   24  C   UNL     1      55.888  46.444   0.975  1.00  0.00     0.283 C 
HETATM   25  C   UNL     1      58.298  44.781   7.902  1.00  0.00     0.153 C 
HETATM   26  C   UNL     1      55.944  41.589   0.787  1.00  0.00     0.153 C 
HETATM   27  C   UNL     1      56.580  49.402   2.016  1.00  0.00     0.153 C 
ENDROOT
BRANCH  16  28
HETATM   28  C   UNL     1      55.868  42.139   7.036  1.00  0.00     0.016 C 
HETATM   29  C   UNL     1      55.078  42.604   8.258  1.00  0.00     0.012 C 
HETATM   30  C   UNL     1      57.036  41.250   7.461  1.00  0.00     0.012 C 
ENDBRANCH  16  28
BRANCH  14  31
HETATM   31  C   UNL     1      53.978  42.534   2.676  1.00  0.00     0.014 C 
HETATM   32  C   UNL     1      53.857  41.537   3.832  1.00  0.00     0.012 C 
BRANCH  31  33
HETATM   33  C   UNL     1      52.869  43.594   2.783  1.00  0.00     0.002 C 
HETATM   34  C   UNL     1      52.746  44.474   1.548  1.00  0.00     0.005 C 
ENDBRANCH  31  33
ENDBRANCH  14  31
BRANCH  13  35
HETATM   35  C   UNL     1      57.578  47.440   8.906  1.00  0.00     0.014 C 
HETATM   36  C   UNL     1      57.317  48.949   8.922  1.00  0.00     0.012 C 
BRANCH  35  37
HETATM   37  C   UNL     1      57.287  46.848  10.296  1.00  0.00     0.002 C 
HETATM   38  C   UNL     1      58.246  47.330  11.376  1.00  0.00     0.005 C 
ENDBRANCH  35  37
ENDBRANCH  13  35
BRANCH  18  39
HETATM   39  C   UNL     1      58.885  45.560   1.248  1.00  0.00     0.016 C 
HETATM   40  C   UNL     1      59.118  46.930   1.881  1.00  0.00     0.012 C 
HETATM   41  C   UNL     1      60.083  44.644   1.494  1.00  0.00     0.012 C 
ENDBRANCH  18  39
BRANCH  17  42
HETATM   42  C   UNL     1      55.291  50.293   5.035  1.00  0.00     0.016 C 
HETATM   43  C   UNL     1      56.132  51.362   5.732  1.00  0.00     0.012 C 
HETATM   44  C   UNL     1      53.985  50.061   5.794  1.00  0.00     0.012 C 
ENDBRANCH  17  42
BRANCH  15  45
HETATM   45  C   UNL     1      54.420  48.388   0.304  1.00  0.00     0.014 C 
HETATM   46  C   UNL     1      53.215  47.677  -0.321  1.00  0.00     0.012 C 
BRANCH  45  47
HETATM   47  C   UNL     1      54.017  49.813   0.729  1.00  0.00     0.002 C 
HETATM   48  C   UNL     1      52.993  50.454  -0.195  1.00  0.00     0.005 C 
ENDBRANCH  45  47
ENDBRANCH  15  45
TORSDOF 9
ENDMDL
MODEL 19
REMARK VINA RESULT:    -3.602      6.000     10.449
REMARK INTER + INTRA:          -5.015
REMARK INTER:                  -5.262
REMARK INTRA:                   0.247
REMARK UNBOUND:                 0.483
REMARK  9 active torsions:
REMARK  status: ('A' for Active; 'I' for Inactive)
REMARK    1  A    between atoms: C_13  and  C_16 
REMARK    2  A    between atoms: C_14  and  C_17 
REMARK    3  A    between atoms: C_15  and  C_18 
REMARK    4  A    between atoms: C_16  and  C_22 
REMARK    5  A    between atoms: C_17  and  C_23 
REMARK    6  A    between atoms: C_18  and  C_24 
REMARK    7  A    between atoms: C_19  and  C_25 
REMARK    8  A    between atoms: C_20  and  C_26 
REMARK    9  A    between atoms: C_21  and  C_27 
ROOT
HETATM    1  O   UNL     1      52.427  40.237   2.544  1.00  0.00    -0.304 OA
HETATM    2  O   UNL     1      55.716  36.799   4.313  1.00  0.00    -0.304 OA
HETATM    3  O   UNL     1      56.373  41.094   2.172  1.00  0.00    -0.304 OA
HETATM    4  O   UNL     1      52.498  38.266   4.226  1.00  0.00    -0.270 OA
HETATM    5  O   UNL     1      55.875  43.639  -0.100  1.00  0.00    -0.270 OA
HETATM    6  O   UNL     1      55.567  39.395   4.738  1.00  0.00    -0.270 OA
HETATM    7  O   UNL     1      52.143  41.335   0.535  1.00  0.00    -0.263 OA
HETATM    8  O   UNL     1      55.568  36.965   2.015  1.00  0.00    -0.263 OA
HETATM    9  O   UNL     1      57.384  43.121   2.577  1.00  0.00    -0.263 OA
HETATM   10  N   UNL     1      52.807  36.762   2.486  1.00  0.00    -0.340 N 
HETATM   11  N   UNL     1      54.093  43.165   1.307  1.00  0.00    -0.340 N 
HETATM   12  N   UNL     1      57.742  39.890   4.097  1.00  0.00    -0.340 N 
HETATM   13  C   UNL     1      53.752  35.968   3.297  1.00  0.00     0.190 C 
HETATM   14  C   UNL     1      53.453  42.329   2.344  1.00  0.00     0.190 C 
HETATM   15  C   UNL     1      57.517  41.347   4.237  1.00  0.00     0.190 C 
HETATM   16  C   UNL     1      51.819  39.019   2.063  1.00  0.00     0.227 C 
HETATM   17  C   UNL     1      56.974  37.504   4.319  1.00  0.00     0.227 C 
HETATM   18  C   UNL     1      55.887  41.438   0.871  1.00  0.00     0.227 C 
HETATM   19  C   UNL     1      52.375  37.981   3.029  1.00  0.00     0.250 C 
HETATM   20  C   UNL     1      55.300  42.851   0.660  1.00  0.00     0.250 C 
HETATM   21  C   UNL     1      56.692  39.008   4.401  1.00  0.00     0.250 C 
HETATM   22  C   UNL     1      52.594  41.271   1.669  1.00  0.00     0.283 C 
HETATM   23  C   UNL     1      55.109  36.630   3.100  1.00  0.00     0.283 C 
HETATM   24  C   UNL     1      57.134  41.965   2.892  1.00  0.00     0.283 C 
HETATM   25  C   UNL     1      52.490  36.318   1.128  1.00  0.00     0.153 C 
HETATM   26  C   UNL     1      53.421  44.408   0.928  1.00  0.00     0.153 C 
HETATM   27  C   UNL     1      59.047  39.478   3.572  1.00  0.00     0.153 C 
ENDROOT
BRANCH  16  28
HETATM   28  C   UNL     1      50.308  39.105   2.176  1.00  0.00     0.016 C 
HETATM   29  C   UNL     1      49.905  39.863   3.440  1.00  0.00     0.012 C 
HETATM   30  C   UNL     1      49.687  37.710   2.168  1.00  0.00     0.012 C 
ENDBRANCH  16  28
BRANCH  14  31
HETATM   31  C   UNL     1      52.626  43.097   3.373  1.00  0.00     0.014 C 
HETATM   32  C   UNL     1      51.160  43.134   2.934  1.00  0.00     0.012 C 
BRANCH  31  33
HETATM   33  C   UNL     1      52.734  42.489   4.782  1.00  0.00     0.002 C 
HETATM   34  C   UNL     1      54.138  42.549   5.365  1.00  0.00     0.005 C 
ENDBRANCH  31  33
ENDBRANCH  14  31
BRANCH  13  35
HETATM   35  C   UNL     1      53.849  34.484   2.969  1.00  0.00     0.014 C 
HETATM   36  C   UNL     1      55.315  34.042   2.995  1.00  0.00     0.012 C 
BRANCH  35  37
HETATM   37  C   UNL     1      53.026  33.613   3.934  1.00  0.00     0.002 C 
HETATM   38  C   UNL     1      51.663  34.201   4.273  1.00  0.00     0.005 C 
ENDBRANCH  35  37
ENDBRANCH  13  35
BRANCH  18  39
HETATM   39  C   UNL     1      57.004  41.142  -0.132  1.00  0.00     0.016 C 
HETATM   40  C   UNL     1      57.783  39.897   0.285  1.00  0.00     0.012 C 
HETATM   41  C   UNL     1      56.431  40.970  -1.538  1.00  0.00     0.012 C 
ENDBRANCH  18  39
BRANCH  17  42
HETATM   42  C   UNL     1      57.735  37.045   5.555  1.00  0.00     0.016 C 
HETATM   43  C   UNL     1      58.019  35.545   5.490  1.00  0.00     0.012 C 
HETATM   44  C   UNL     1      56.958  37.387   6.826  1.00  0.00     0.012 C 
ENDBRANCH  17  42
BRANCH  15  45
HETATM   45  C   UNL     1      58.693  42.084   4.877  1.00  0.00     0.014 C 
HETATM   46  C   UNL     1      58.262  43.494   5.296  1.00  0.00     0.012 C 
BRANCH  45  47
HETATM   47  C   UNL     1      59.269  41.336   6.094  1.00  0.00     0.002 C 
HETATM   48  C   UNL     1      58.345  41.342   7.302  1.00  0.00     0.005 C 
ENDBRANCH  45  47
ENDBRANCH  15  45
TORSDOF 9
ENDMDL
MODEL 20
REMARK VINA RESULT:    -3.581      6.376      9.708
REMARK INTER + INTRA:          -4.982
REMARK INTER:                  -4.770
REMARK INTRA:                  -0.212
REMARK UNBOUND:                 0.483
REMARK  9 active torsions:
REMARK  status: ('A' for Active; 'I' for Inactive)
REMARK    1  A    between atoms: C_13  and  C_16 
REMARK    2  A    between atoms: C_14  and  C_17 
REMARK    3  A    between atoms: C_15  and  C_18 
REMARK    4  A    between atoms: C_16  and  C_22 
REMARK    5  A    between atoms: C_17  and  C_23 
REMARK    6  A    between atoms: C_18  and  C_24 
REMARK    7  A    between atoms: C_19  and  C_25 
REMARK    8  A    between atoms: C_20  and  C_26 
REMARK    9  A    between atoms: C_21  and  C_27 
ROOT
HETATM    1  O   UNL     1      52.066  42.977   1.205  1.00  0.00    -0.304 OA
HETATM    2  O   UNL     1      53.528  38.207   0.270  1.00  0.00    -0.304 OA
HETATM    3  O   UNL     1      51.642  41.626  -2.595  1.00  0.00    -0.304 OA
HETATM    4  O   UNL     1      53.620  41.162   2.212  1.00  0.00    -0.270 OA
HETATM    5  O   UNL     1      49.547  44.192  -3.552  1.00  0.00    -0.270 OA
HETATM    6  O   UNL     1      54.118  40.449  -0.981  1.00  0.00    -0.270 OA
HETATM    7  O   UNL     1      50.138  44.189   0.839  1.00  0.00    -0.263 OA
HETATM    8  O   UNL     1      51.250  38.579   0.283  1.00  0.00    -0.263 OA
HETATM    9  O   UNL     1      52.146  42.772  -4.526  1.00  0.00    -0.263 OA
HETATM   10  N   UNL     1      51.782  39.845   2.732  1.00  0.00    -0.340 N 
HETATM   11  N   UNL     1      50.970  44.645  -1.777  1.00  0.00    -0.340 N 
HETATM   12  N   UNL     1      53.451  39.752  -3.092  1.00  0.00    -0.340 N 
HETATM   13  C   UNL     1      52.516  38.618   2.365  1.00  0.00     0.190 C 
HETATM   14  C   UNL     1      51.969  44.210  -0.779  1.00  0.00     0.190 C 
HETATM   15  C   UNL     1      53.688  41.093  -3.677  1.00  0.00     0.190 C 
HETATM   16  C   UNL     1      51.527  42.304   2.363  1.00  0.00     0.227 C 
HETATM   17  C   UNL     1      53.545  38.131  -1.170  1.00  0.00     0.227 C 
HETATM   18  C   UNL     1      50.379  42.262  -2.381  1.00  0.00     0.227 C 
HETATM   19  C   UNL     1      52.411  41.068   2.455  1.00  0.00     0.250 C 
HETATM   20  C   UNL     1      50.272  43.781  -2.638  1.00  0.00     0.250 C 
HETATM   21  C   UNL     1      53.727  39.546  -1.732  1.00  0.00     0.250 C 
HETATM   22  C   UNL     1      51.254  43.819   0.504  1.00  0.00     0.283 C 
HETATM   23  C   UNL     1      52.323  38.468   0.862  1.00  0.00     0.283 C 
HETATM   24  C   UNL     1      52.395  41.908  -3.695  1.00  0.00     0.283 C 
HETATM   25  C   UNL     1      50.407  39.730   3.223  1.00  0.00     0.153 C 
HETATM   26  C   UNL     1      50.687  46.077  -1.874  1.00  0.00     0.153 C 
HETATM   27  C   UNL     1      52.866  38.746  -3.983  1.00  0.00     0.153 C 
ENDROOT
BRANCH  16  28
HETATM   28  C   UNL     1      51.686  43.173   3.597  1.00  0.00     0.016 C 
HETATM   29  C   UNL     1      52.698  42.558   4.562  1.00  0.00     0.012 C 
HETATM   30  C   UNL     1      50.340  43.376   4.291  1.00  0.00     0.012 C 
ENDBRANCH  16  28
BRANCH  14  31
HETATM   31  C   UNL     1      53.066  45.229  -0.477  1.00  0.00     0.014 C 
HETATM   32  C   UNL     1      52.854  45.820   0.919  1.00  0.00     0.012 C 
BRANCH  31  33
HETATM   33  C   UNL     1      54.475  44.620  -0.578  1.00  0.00     0.002 C 
HETATM   34  C   UNL     1      54.843  44.165  -1.983  1.00  0.00     0.005 C 
ENDBRANCH  31  33
ENDBRANCH  14  31
BRANCH  13  35
HETATM   35  C   UNL     1      52.093  37.336   3.069  1.00  0.00     0.014 C 
HETATM   36  C   UNL     1      52.279  36.142   2.128  1.00  0.00     0.012 C 
BRANCH  35  37
HETATM   37  C   UNL     1      52.873  37.096   4.374  1.00  0.00     0.002 C 
HETATM   38  C   UNL     1      54.305  37.614   4.331  1.00  0.00     0.005 C 
ENDBRANCH  35  37
ENDBRANCH  13  35
BRANCH  18  39
HETATM   39  C   UNL     1      49.330  41.485  -3.179  1.00  0.00     0.016 C 
HETATM   40  C   UNL     1      49.637  39.990  -3.156  1.00  0.00     0.012 C 
HETATM   41  C   UNL     1      47.930  41.754  -2.628  1.00  0.00     0.012 C 
ENDBRANCH  18  39
BRANCH  17  42
HETATM   42  C   UNL     1      54.729  37.257  -1.557  1.00  0.00     0.016 C 
HETATM   43  C   UNL     1      54.262  35.850  -1.931  1.00  0.00     0.012 C 
HETATM   44  C   UNL     1      55.750  37.197  -0.422  1.00  0.00     0.012 C 
ENDBRANCH  17  42
BRANCH  15  45
HETATM   45  C   UNL     1      54.340  41.046  -5.057  1.00  0.00     0.014 C 
HETATM   46  C   UNL     1      54.805  42.449  -5.464  1.00  0.00     0.012 C 
BRANCH  45  47
HETATM   47  C   UNL     1      55.529  40.069  -5.118  1.00  0.00     0.002 C 
HETATM   48  C   UNL     1      56.711  40.498  -4.262  1.00  0.00     0.005 C 
ENDBRANCH  45  47
ENDBRANCH  15  45
TORSDOF 9
ENDMDL
