MODEL 1
REMARK VINA RESULT:    -5.658      0.000      0.000
REMARK INTER + INTRA:          -8.288
REMARK INTER:                  -8.634
REMARK INTRA:                   0.346
REMARK UNBOUND:                 0.346
REMARK  9 active torsions:
REMARK  status: ('A' for Active; 'I' for Inactive)
REMARK    1  A    between atoms: C_13  and  C_16 
REMARK    2  A    between atoms: C_14  and  C_17 
REMARK    3  A    between atoms: C_15  and  C_18 
REMARK    4  A    between atoms: C_16  and  C_22 
REMARK    5  A    between atoms: C_17  and  C_23 
REMARK    6  A    between atoms: C_18  and  C_24 
REMARK    7  A    between atoms: C_19  and  C_25 
REMARK    8  A    between atoms: C_20  and  C_26 
REMARK    9  A    between atoms: C_21  and  C_27 
ROOT
HETATM    1  O   UNL     1      20.754  38.466  55.303  1.00  0.00    -0.304 OA
HETATM    2  O   UNL     1      21.772  34.297  58.014  1.00  0.00    -0.304 OA
HETATM    3  O   UNL     1      18.952  38.129  58.920  1.00  0.00    -0.304 OA
HETATM    4  O   UNL     1      21.615  36.047  54.944  1.00  0.00    -0.270 OA
HETATM    5  O   UNL     1      18.016  41.445  59.056  1.00  0.00    -0.270 OA
HETATM    6  O   UNL     1      19.465  35.396  57.375  1.00  0.00    -0.270 OA
HETATM    7  O   UNL     1      20.838  40.734  55.713  1.00  0.00    -0.263 OA
HETATM    8  O   UNL     1      22.720  36.257  58.783  1.00  0.00    -0.263 OA
HETATM    9  O   UNL     1      16.757  38.616  59.412  1.00  0.00    -0.263 OA
HETATM   10  N   UNL     1      23.555  36.538  56.117  1.00  0.00    -0.340 N 
HETATM   11  N   UNL     1      18.343  40.563  56.935  1.00  0.00    -0.340 N 
HETATM   12  N   UNL     1      18.649  35.569  59.540  1.00  0.00    -0.340 N 
HETATM   13  C   UNL     1      23.550  35.203  56.749  1.00  0.00     0.190 C 
HETATM   14  C   UNL     1      18.775  39.466  56.045  1.00  0.00     0.190 C 
HETATM   15  C   UNL     1      17.443  36.303  59.093  1.00  0.00     0.190 C 
HETATM   16  C   UNL     1      22.180  38.363  55.102  1.00  0.00     0.227 C 
HETATM   17  C   UNL     1      20.782  34.322  59.062  1.00  0.00     0.227 C 
HETATM   18  C   UNL     1      19.408  39.485  58.958  1.00  0.00     0.227 C 
HETATM   19  C   UNL     1      22.432  36.881  55.350  1.00  0.00     0.250 C 
HETATM   20  C   UNL     1      18.513  40.575  58.329  1.00  0.00     0.250 C 
HETATM   21  C   UNL     1      19.581  35.144  58.580  1.00  0.00     0.250 C 
HETATM   22  C   UNL     1      20.235  39.672  55.674  1.00  0.00     0.283 C 
HETATM   23  C   UNL     1      22.656  35.340  57.974  1.00  0.00     0.283 C 
HETATM   24  C   UNL     1      17.659  37.813  59.208  1.00  0.00     0.283 C 
HETATM   25  C   UNL     1      24.640  37.469  56.433  1.00  0.00     0.153 C 
HETATM   26  C   UNL     1      17.693  41.719  56.318  1.00  0.00     0.153 C 
HETATM   27  C   UNL     1      18.814  35.404  60.988  1.00  0.00     0.153 C 
ENDROOT
BRANCH  16  28
HETATM   28  C   UNL     1      22.539  38.737  53.676  1.00  0.00     0.016 C 
HETATM   29  C   UNL     1      23.175  40.125  53.627  1.00  0.00     0.012 C 
HETATM   30  C   UNL     1      21.305  38.683  52.777  1.00  0.00     0.012 C 
ENDBRANCH  16  28
BRANCH  14  31
HETATM   31  C   UNL     1      17.934  39.288  54.782  1.00  0.00     0.014 C 
HETATM   32  C   UNL     1      18.540  40.105  53.638  1.00  0.00     0.012 C 
BRANCH  31  33
HETATM   33  C   UNL     1      17.811  37.813  54.363  1.00  0.00     0.002 C 
HETATM   34  C   UNL     1      17.418  36.886  55.505  1.00  0.00     0.005 C 
ENDBRANCH  31  33
ENDBRANCH  14  31
BRANCH  13  35
HETATM   35  C   UNL     1      24.904  34.640  57.160  1.00  0.00     0.014 C 
HETATM   36  C   UNL     1      24.715  33.578  58.247  1.00  0.00     0.012 C 
BRANCH  35  37
HETATM   37  C   UNL     1      25.675  34.038  55.972  1.00  0.00     0.002 C 
HETATM   38  C   UNL     1      24.792  33.710  54.776  1.00  0.00     0.005 C 
ENDBRANCH  35  37
ENDBRANCH  13  35
BRANCH  18  39
HETATM   39  C   UNL     1      19.752  39.814  60.412  1.00  0.00     0.016 C 
HETATM   40  C   UNL     1      20.349  38.596  61.112  1.00  0.00     0.012 C 
HETATM   41  C   UNL     1      20.715  40.998  60.480  1.00  0.00     0.012 C 
ENDBRANCH  18  39
BRANCH  17  42
HETATM   42  C   UNL     1      20.363  32.880  59.313  1.00  0.00     0.016 C 
HETATM   43  C   UNL     1      21.047  32.329  60.564  1.00  0.00     0.012 C 
HETATM   44  C   UNL     1      20.681  32.006  58.101  1.00  0.00     0.012 C 
ENDBRANCH  17  42
BRANCH  15  45
HETATM   45  C   UNL     1      16.166  35.865  59.807  1.00  0.00     0.014 C 
HETATM   46  C   UNL     1      14.944  36.187  58.940  1.00  0.00     0.012 C 
BRANCH  45  47
HETATM   47  C   UNL     1      16.170  34.364  60.158  1.00  0.00     0.002 C 
HETATM   48  C   UNL     1      14.945  33.923  60.945  1.00  0.00     0.005 C 
ENDBRANCH  45  47
ENDBRANCH  15  45
TORSDOF 9
ENDMDL
MODEL 2
REMARK VINA RESULT:    -4.962      1.796      6.786
REMARK INTER + INTRA:          -7.226
REMARK INTER:                  -7.336
REMARK INTRA:                   0.110
REMARK UNBOUND:                 0.346
REMARK  9 active torsions:
REMARK  status: ('A' for Active; 'I' for Inactive)
REMARK    1  A    between atoms: C_13  and  C_16 
REMARK    2  A    between atoms: C_14  and  C_17 
REMARK    3  A    between atoms: C_15  and  C_18 
REMARK    4  A    between atoms: C_16  and  C_22 
REMARK    5  A    between atoms: C_17  and  C_23 
REMARK    6  A    between atoms: C_18  and  C_24 
REMARK    7  A    between atoms: C_19  and  C_25 
REMARK    8  A    between atoms: C_20  and  C_26 
REMARK    9  A    between atoms: C_21  and  C_27 
ROOT
HETATM    1  O   UNL     1      20.143  38.725  59.228  1.00  0.00    -0.304 OA
HETATM    2  O   UNL     1      23.002  35.175  56.994  1.00  0.00    -0.304 OA
HETATM    3  O   UNL     1      21.555  39.556  55.518  1.00  0.00    -0.304 OA
HETATM    4  O   UNL     1      21.598  36.679  59.872  1.00  0.00    -0.270 OA
HETATM    5  O   UNL     1      19.411  42.207  55.009  1.00  0.00    -0.270 OA
HETATM    6  O   UNL     1      23.439  37.750  57.339  1.00  0.00    -0.270 OA
HETATM    7  O   UNL     1      18.262  39.916  58.625  1.00  0.00    -0.263 OA
HETATM    8  O   UNL     1      20.877  35.447  56.134  1.00  0.00    -0.263 OA
HETATM    9  O   UNL     1      22.451  41.551  54.804  1.00  0.00    -0.263 OA
HETATM   10  N   UNL     1      20.097  35.253  58.824  1.00  0.00    -0.340 N 
HETATM   11  N   UNL     1      19.884  41.688  57.220  1.00  0.00    -0.340 N 
HETATM   12  N   UNL     1      23.827  38.250  55.107  1.00  0.00    -0.340 N 
HETATM   13  C   UNL     1      21.199  34.412  58.317  1.00  0.00     0.190 C 
HETATM   14  C   UNL     1      20.502  40.813  58.237  1.00  0.00     0.190 C 
HETATM   15  C   UNL     1      23.922  39.702  55.385  1.00  0.00     0.190 C 
HETATM   16  C   UNL     1      19.391  37.537  59.555  1.00  0.00     0.227 C 
HETATM   17  C   UNL     1      23.585  35.865  55.870  1.00  0.00     0.227 C 
HETATM   18  C   UNL     1      20.190  39.964  55.397  1.00  0.00     0.227 C 
HETATM   19  C   UNL     1      20.453  36.450  59.462  1.00  0.00     0.250 C 
HETATM   20  C   UNL     1      19.810  41.391  55.849  1.00  0.00     0.250 C 
HETATM   21  C   UNL     1      23.605  37.367  56.175  1.00  0.00     0.250 C 
HETATM   22  C   UNL     1      19.475  39.796  58.709  1.00  0.00     0.283 C 
HETATM   23  C   UNL     1      21.639  35.068  57.014  1.00  0.00     0.283 C 
HETATM   24  C   UNL     1      22.573  40.384  55.154  1.00  0.00     0.283 C 
HETATM   25  C   UNL     1      18.716  34.874  58.517  1.00  0.00     0.153 C 
HETATM   26  C   UNL     1      19.309  42.954  57.675  1.00  0.00     0.153 C 
HETATM   27  C   UNL     1      23.900  37.849  53.698  1.00  0.00     0.153 C 
ENDROOT
BRANCH  16  28
HETATM   28  C   UNL     1      18.842  37.634  60.967  1.00  0.00     0.016 C 
HETATM   29  C   UNL     1      19.420  36.526  61.846  1.00  0.00     0.012 C 
HETATM   30  C   UNL     1      17.316  37.569  60.958  1.00  0.00     0.012 C 
ENDBRANCH  16  28
BRANCH  14  31
HETATM   31  C   UNL     1      21.106  41.542  59.437  1.00  0.00     0.014 C 
HETATM   32  C   UNL     1      20.279  41.247  60.691  1.00  0.00     0.012 C 
BRANCH  31  33
HETATM   33  C   UNL     1      22.575  41.155  59.677  1.00  0.00     0.002 C 
HETATM   34  C   UNL     1      23.513  41.602  58.565  1.00  0.00     0.005 C 
ENDBRANCH  31  33
ENDBRANCH  14  31
BRANCH  13  35
HETATM   35  C   UNL     1      20.878  32.944  58.072  1.00  0.00     0.014 C 
HETATM   36  C   UNL     1      22.026  32.283  57.304  1.00  0.00     0.012 C 
BRANCH  35  37
HETATM   37  C   UNL     1      20.613  32.174  59.377  1.00  0.00     0.002 C 
HETATM   38  C   UNL     1      21.868  31.927  60.203  1.00  0.00     0.005 C 
ENDBRANCH  35  37
ENDBRANCH  13  35
BRANCH  18  39
HETATM   39  C   UNL     1      19.757  39.702  53.953  1.00  0.00     0.016 C 
HETATM   40  C   UNL     1      20.700  38.705  53.283  1.00  0.00     0.012 C 
HETATM   41  C   UNL     1      18.317  39.193  53.909  1.00  0.00     0.012 C 
ENDBRANCH  18  39
BRANCH  17  42
HETATM   42  C   UNL     1      25.006  35.343  55.715  1.00  0.00     0.016 C 
HETATM   43  C   UNL     1      25.051  34.188  54.714  1.00  0.00     0.012 C 
HETATM   44  C   UNL     1      25.571  34.902  57.065  1.00  0.00     0.012 C 
ENDBRANCH  17  42
BRANCH  15  45
HETATM   45  C   UNL     1      25.040  40.397  54.609  1.00  0.00     0.014 C 
HETATM   46  C   UNL     1      25.392  41.730  55.278  1.00  0.00     0.012 C 
BRANCH  45  47
HETATM   47  C   UNL     1      26.306  39.527  54.491  1.00  0.00     0.002 C 
HETATM   48  C   UNL     1      27.563  40.212  55.007  1.00  0.00     0.005 C 
ENDBRANCH  45  47
ENDBRANCH  15  45
TORSDOF 9
ENDMDL
MODEL 3
REMARK VINA RESULT:    -4.841      1.830      2.446
REMARK INTER + INTRA:          -7.041
REMARK INTER:                  -8.348
REMARK INTRA:                   1.307
REMARK UNBOUND:                 0.346
REMARK  9 active torsions:
REMARK  status: ('A' for Active; 'I' for Inactive)
REMARK    1  A    between atoms: C_13  and  C_16 
REMARK    2  A    between atoms: C_14  and  C_17 
REMARK    3  A    between atoms: C_15  and  C_18 
REMARK    4  A    between atoms: C_16  and  C_22 
REMARK    5  A    between atoms: C_17  and  C_23 
REMARK    6  A    between atoms: C_18  and  C_24 
REMARK    7  A    between atoms: C_19  and  C_25 
REMARK    8  A    between atoms: C_20  and  C_26 
REMARK    9  A    between atoms: C_21  and  C_27 
ROOT
HETATM    1  O   UNL     1      21.305  36.765  55.876  1.00  0.00    -0.304 OA
HETATM    2  O   UNL     1      22.957  32.402  57.877  1.00  0.00    -0.304 OA
HETATM    3  O   UNL     1      20.061  35.867  59.630  1.00  0.00    -0.304 OA
HETATM    4  O   UNL     1      22.254  34.480  55.102  1.00  0.00    -0.270 OA
HETATM    5  O   UNL     1      18.950  39.059  60.308  1.00  0.00    -0.270 OA
HETATM    6  O   UNL     1      20.518  33.382  57.697  1.00  0.00    -0.270 OA
HETATM    7  O   UNL     1      21.304  38.970  56.555  1.00  0.00    -0.263 OA
HETATM    8  O   UNL     1      23.880  34.328  58.754  1.00  0.00    -0.263 OA
HETATM    9  O   UNL     1      17.933  36.117  60.470  1.00  0.00    -0.263 OA
HETATM   10  N   UNL     1      24.307  34.983  56.057  1.00  0.00    -0.340 N 
HETATM   11  N   UNL     1      19.025  38.460  58.069  1.00  0.00    -0.340 N 
HETATM   12  N   UNL     1      20.010  33.236  59.956  1.00  0.00    -0.340 N 
HETATM   13  C   UNL     1      24.476  33.588  56.510  1.00  0.00     0.190 C 
HETATM   14  C   UNL     1      19.393  37.511  56.997  1.00  0.00     0.190 C 
HETATM   15  C   UNL     1      18.709  33.919  59.772  1.00  0.00     0.190 C 
HETATM   16  C   UNL     1      22.691  36.799  55.474  1.00  0.00     0.227 C 
HETATM   17  C   UNL     1      22.127  32.226  59.042  1.00  0.00     0.227 C 
HETATM   18  C   UNL     1      20.432  37.241  59.778  1.00  0.00     0.227 C 
HETATM   19  C   UNL     1      23.067  35.324  55.497  1.00  0.00     0.250 C 
HETATM   20  C   UNL     1      19.391  38.323  59.418  1.00  0.00     0.250 C 
HETATM   21  C   UNL     1      20.820  33.001  58.834  1.00  0.00     0.250 C 
HETATM   22  C   UNL     1      20.770  37.874  56.462  1.00  0.00     0.283 C 
HETATM   23  C   UNL     1      23.758  33.510  57.851  1.00  0.00     0.283 C 
HETATM   24  C   UNL     1      18.845  35.417  60.046  1.00  0.00     0.283 C 
HETATM   25  C   UNL     1      25.366  35.954  56.340  1.00  0.00     0.153 C 
HETATM   26  C   UNL     1      18.222  39.625  57.696  1.00  0.00     0.153 C 
HETATM   27  C   UNL     1      20.390  32.917  61.336  1.00  0.00     0.153 C 
ENDROOT
BRANCH  16  28
HETATM   28  C   UNL     1      22.818  37.365  54.072  1.00  0.00     0.016 C 
HETATM   29  C   UNL     1      23.865  38.476  54.032  1.00  0.00     0.012 C 
HETATM   30  C   UNL     1      21.469  37.882  53.575  1.00  0.00     0.012 C 
ENDBRANCH  16  28
BRANCH  14  31
HETATM   31  C   UNL     1      18.393  37.416  55.847  1.00  0.00     0.014 C 
HETATM   32  C   UNL     1      17.083  36.804  56.349  1.00  0.00     0.012 C 
BRANCH  31  33
HETATM   33  C   UNL     1      18.115  38.784  55.198  1.00  0.00     0.002 C 
HETATM   34  C   UNL     1      17.882  38.710  53.696  1.00  0.00     0.005 C 
ENDBRANCH  31  33
ENDBRANCH  14  31
BRANCH  13  35
HETATM   35  C   UNL     1      25.907  33.090  56.661  1.00  0.00     0.014 C 
HETATM   36  C   UNL     1      26.150  32.642  58.105  1.00  0.00     0.012 C 
BRANCH  35  37
HETATM   37  C   UNL     1      26.233  31.936  55.697  1.00  0.00     0.002 C 
HETATM   38  C   UNL     1      25.128  30.892  55.602  1.00  0.00     0.005 C 
ENDBRANCH  35  37
ENDBRANCH  13  35
BRANCH  18  39
HETATM   39  C   UNL     1      20.959  37.425  61.203  1.00  0.00     0.016 C 
HETATM   40  C   UNL     1      21.744  36.193  61.648  1.00  0.00     0.012 C 
HETATM   41  C   UNL     1      21.828  38.678  61.295  1.00  0.00     0.012 C 
ENDBRANCH  18  39
BRANCH  17  42
HETATM   42  C   UNL     1      21.838  30.736  59.164  1.00  0.00     0.016 C 
HETATM   43  C   UNL     1      22.549  30.146  60.381  1.00  0.00     0.012 C 
HETATM   44  C   UNL     1      22.256  30.000  57.891  1.00  0.00     0.012 C 
ENDBRANCH  17  42
BRANCH  15  45
HETATM   45  C   UNL     1      17.577  33.301  60.589  1.00  0.00     0.014 C 
HETATM   46  C   UNL     1      16.255  34.008  60.272  1.00  0.00     0.012 C 
BRANCH  45  47
HETATM   47  C   UNL     1      17.427  31.787  60.341  1.00  0.00     0.002 C 
HETATM   48  C   UNL     1      15.981  31.314  60.337  1.00  0.00     0.005 C 
ENDBRANCH  45  47
ENDBRANCH  15  45
TORSDOF 9
ENDMDL
MODEL 4
REMARK VINA RESULT:    -4.840      3.533      8.741
REMARK INTER + INTRA:          -7.040
REMARK INTER:                  -7.204
REMARK INTRA:                   0.164
REMARK UNBOUND:                 0.346
REMARK  9 active torsions:
REMARK  status: ('A' for Active; 'I' for Inactive)
REMARK    1  A    between atoms: C_13  and  C_16 
REMARK    2  A    between atoms: C_14  and  C_17 
REMARK    3  A    between atoms: C_15  and  C_18 
REMARK    4  A    between atoms: C_16  and  C_22 
REMARK    5  A    between atoms: C_17  and  C_23 
REMARK    6  A    between atoms: C_18  and  C_24 
REMARK    7  A    between atoms: C_19  and  C_25 
REMARK    8  A    between atoms: C_20  and  C_26 
REMARK    9  A    between atoms: C_21  and  C_27 
ROOT
HETATM    1  O   UNL     1      18.861  41.240  55.759  1.00  0.00    -0.304 OA
HETATM    2  O   UNL     1      22.723  44.515  56.129  1.00  0.00    -0.304 OA
HETATM    3  O   UNL     1      22.353  39.818  57.253  1.00  0.00    -0.304 OA
HETATM    4  O   UNL     1      19.634  43.495  54.739  1.00  0.00    -0.270 OA
HETATM    5  O   UNL     1      20.941  36.939  58.521  1.00  0.00    -0.270 OA
HETATM    6  O   UNL     1      22.622  42.108  55.061  1.00  0.00    -0.270 OA
HETATM    7  O   UNL     1      17.811  39.792  57.215  1.00  0.00    -0.263 OA
HETATM    8  O   UNL     1      21.735  43.890  58.120  1.00  0.00    -0.263 OA
HETATM    9  O   UNL     1      23.348  37.807  56.741  1.00  0.00    -0.263 OA
HETATM   10  N   UNL     1      19.352  44.546  56.788  1.00  0.00    -0.340 N 
HETATM   11  N   UNL     1      19.823  37.927  56.745  1.00  0.00    -0.340 N 
HETATM   12  N   UNL     1      24.385  41.211  56.273  1.00  0.00    -0.340 N 
HETATM   13  C   UNL     1      20.563  45.363  56.573  1.00  0.00     0.190 C 
HETATM   14  C   UNL     1      19.646  39.038  55.787  1.00  0.00     0.190 C 
HETATM   15  C   UNL     1      24.161  39.857  55.714  1.00  0.00     0.190 C 
HETATM   16  C   UNL     1      18.175  42.399  56.281  1.00  0.00     0.227 C 
HETATM   17  C   UNL     1      23.862  43.670  56.387  1.00  0.00     0.227 C 
HETATM   18  C   UNL     1      21.408  39.274  58.180  1.00  0.00     0.227 C 
HETATM   19  C   UNL     1      19.093  43.535  55.850  1.00  0.00     0.250 C 
HETATM   20  C   UNL     1      20.720  37.938  57.825  1.00  0.00     0.250 C 
HETATM   21  C   UNL     1      23.561  42.265  55.850  1.00  0.00     0.250 C 
HETATM   22  C   UNL     1      18.649  40.034  56.358  1.00  0.00     0.283 C 
HETATM   23  C   UNL     1      21.721  44.503  57.060  1.00  0.00     0.283 C 
HETATM   24  C   UNL     1      23.284  39.027  56.651  1.00  0.00     0.283 C 
HETATM   25  C   UNL     1      18.579  44.732  58.018  1.00  0.00     0.153 C 
HETATM   26  C   UNL     1      19.002  36.731  56.553  1.00  0.00     0.153 C 
HETATM   27  C   UNL     1      25.424  41.329  57.301  1.00  0.00     0.153 C 
ENDROOT
BRANCH  16  28
HETATM   28  C   UNL     1      16.809  42.537  55.635  1.00  0.00     0.016 C 
HETATM   29  C   UNL     1      16.880  43.451  54.414  1.00  0.00     0.012 C 
HETATM   30  C   UNL     1      15.788  43.065  56.641  1.00  0.00     0.012 C 
ENDBRANCH  16  28
BRANCH  14  31
HETATM   31  C   UNL     1      19.219  38.618  54.381  1.00  0.00     0.014 C 
HETATM   32  C   UNL     1      17.833  39.186  54.070  1.00  0.00     0.012 C 
BRANCH  31  33
HETATM   33  C   UNL     1      20.222  39.071  53.306  1.00  0.00     0.002 C 
HETATM   34  C   UNL     1      21.593  38.424  53.440  1.00  0.00     0.005 C 
ENDBRANCH  31  33
ENDBRANCH  14  31
BRANCH  13  35
HETATM   35  C   UNL     1      20.600  46.719  57.265  1.00  0.00     0.014 C 
HETATM   36  C   UNL     1      22.051  47.189  57.405  1.00  0.00     0.012 C 
BRANCH  35  37
HETATM   37  C   UNL     1      19.778  47.784  56.518  1.00  0.00     0.002 C 
HETATM   38  C   UNL     1      18.772  48.507  57.403  1.00  0.00     0.005 C 
ENDBRANCH  35  37
ENDBRANCH  13  35
BRANCH  18  39
HETATM   39  C   UNL     1      22.092  39.205  59.547  1.00  0.00     0.016 C 
HETATM   40  C   UNL     1      23.025  40.397  59.741  1.00  0.00     0.012 C 
HETATM   41  C   UNL     1      21.052  39.149  60.664  1.00  0.00     0.012 C 
ENDBRANCH  18  39
BRANCH  17  42
HETATM   42  C   UNL     1      25.043  44.274  55.642  1.00  0.00     0.016 C 
HETATM   43  C   UNL     1      25.953  45.040  56.601  1.00  0.00     0.012 C 
HETATM   44  C   UNL     1      24.561  45.190  54.517  1.00  0.00     0.012 C 
ENDBRANCH  17  42
BRANCH  15  45
HETATM   45  C   UNL     1      25.455  39.125  55.362  1.00  0.00     0.014 C 
HETATM   46  C   UNL     1      25.132  37.761  54.741  1.00  0.00     0.012 C 
BRANCH  45  47
HETATM   47  C   UNL     1      26.350  39.932  54.403  1.00  0.00     0.002 C 
HETATM   48  C   UNL     1      27.754  40.167  54.938  1.00  0.00     0.005 C 
ENDBRANCH  45  47
ENDBRANCH  15  45
TORSDOF 9
ENDMDL
MODEL 5
REMARK VINA RESULT:    -4.807      3.103      8.868
REMARK INTER + INTRA:          -6.990
REMARK INTER:                  -7.601
REMARK INTRA:                   0.612
REMARK UNBOUND:                 0.346
REMARK  9 active torsions:
REMARK  status: ('A' for Active; 'I' for Inactive)
REMARK    1  A    between atoms: C_13  and  C_16 
REMARK    2  A    between atoms: C_14  and  C_17 
REMARK    3  A    between atoms: C_15  and  C_18 
REMARK    4  A    between atoms: C_16  and  C_22 
REMARK    5  A    between atoms: C_17  and  C_23 
REMARK    6  A    between atoms: C_18  and  C_24 
REMARK    7  A    between atoms: C_19  and  C_25 
REMARK    8  A    between atoms: C_20  and  C_26 
REMARK    9  A    between atoms: C_21  and  C_27 
ROOT
HETATM    1  O   UNL     1      20.801  38.297  55.732  1.00  0.00    -0.304 OA
HETATM    2  O   UNL     1      21.053  43.367  55.734  1.00  0.00    -0.304 OA
HETATM    3  O   UNL     1      24.051  39.984  57.475  1.00  0.00    -0.304 OA
HETATM    4  O   UNL     1      19.825  40.316  54.431  1.00  0.00    -0.270 OA
HETATM    5  O   UNL     1      25.010  37.094  59.092  1.00  0.00    -0.270 OA
HETATM    6  O   UNL     1      22.834  41.570  55.000  1.00  0.00    -0.270 OA
HETATM    7  O   UNL     1      20.959  36.659  57.348  1.00  0.00    -0.263 OA
HETATM    8  O   UNL     1      20.601  42.379  57.771  1.00  0.00    -0.263 OA
HETATM    9  O   UNL     1      26.236  39.298  57.261  1.00  0.00    -0.263 OA
HETATM   10  N   UNL     1      18.645  40.987  56.313  1.00  0.00    -0.340 N 
HETATM   11  N   UNL     1      23.733  36.815  57.176  1.00  0.00    -0.340 N 
HETATM   12  N   UNL     1      24.553  42.336  56.358  1.00  0.00    -0.340 N 
HETATM   13  C   UNL     1      18.912  42.409  56.014  1.00  0.00     0.190 C 
HETATM   14  C   UNL     1      22.920  37.369  56.073  1.00  0.00     0.190 C 
HETATM   15  C   UNL     1      25.435  41.207  55.983  1.00  0.00     0.190 C 
HETATM   16  C   UNL     1      19.439  38.629  56.078  1.00  0.00     0.227 C 
HETATM   17  C   UNL     1      22.413  43.640  56.127  1.00  0.00     0.227 C 
HETATM   18  C   UNL     1      23.689  38.999  58.448  1.00  0.00     0.227 C 
HETATM   19  C   UNL     1      19.300  40.037  55.516  1.00  0.00     0.250 C 
HETATM   20  C   UNL     1      24.219  37.560  58.263  1.00  0.00     0.250 C 
HETATM   21  C   UNL     1      23.277  42.423  55.779  1.00  0.00     0.250 C 
HETATM   22  C   UNL     1      21.456  37.367  56.484  1.00  0.00     0.283 C 
HETATM   23  C   UNL     1      20.270  42.704  56.637  1.00  0.00     0.283 C 
HETATM   24  C   UNL     1      25.326  40.076  57.005  1.00  0.00     0.283 C 
HETATM   25  C   UNL     1      17.843  40.648  57.490  1.00  0.00     0.153 C 
HETATM   26  C   UNL     1      24.052  35.388  57.131  1.00  0.00     0.153 C 
HETATM   27  C   UNL     1      25.065  43.253  57.381  1.00  0.00     0.153 C 
ENDROOT
BRANCH  16  28
HETATM   28  C   UNL     1      18.476  37.678  55.391  1.00  0.00     0.016 C 
HETATM   29  C   UNL     1      17.697  38.400  54.293  1.00  0.00     0.012 C 
HETATM   30  C   UNL     1      17.518  37.055  56.405  1.00  0.00     0.012 C 
ENDBRANCH  16  28
BRANCH  14  31
HETATM   31  C   UNL     1      23.088  36.663  54.729  1.00  0.00     0.014 C 
HETATM   32  C   UNL     1      22.315  37.421  53.647  1.00  0.00     0.012 C 
BRANCH  31  33
HETATM   33  C   UNL     1      24.564  36.529  54.319  1.00  0.00     0.002 C 
HETATM   34  C   UNL     1      25.289  37.863  54.206  1.00  0.00     0.005 C 
ENDBRANCH  31  33
ENDBRANCH  14  31
BRANCH  13  35
HETATM   35  C   UNL     1      17.885  43.414  56.517  1.00  0.00     0.014 C 
HETATM   36  C   UNL     1      18.554  44.774  56.735  1.00  0.00     0.012 C 
BRANCH  35  37
HETATM   37  C   UNL     1      16.693  43.569  55.555  1.00  0.00     0.002 C 
HETATM   38  C   UNL     1      17.072  43.419  54.088  1.00  0.00     0.005 C 
ENDBRANCH  35  37
ENDBRANCH  13  35
BRANCH  18  39
HETATM   39  C   UNL     1      24.054  39.556  59.825  1.00  0.00     0.016 C 
HETATM   40  C   UNL     1      23.815  41.063  59.875  1.00  0.00     0.012 C 
HETATM   41  C   UNL     1      23.255  38.849  60.918  1.00  0.00     0.012 C 
ENDBRANCH  18  39
BRANCH  17  42
HETATM   42  C   UNL     1      22.872  44.854  55.331  1.00  0.00     0.016 C 
HETATM   43  C   UNL     1      23.380  45.952  56.265  1.00  0.00     0.012 C 
HETATM   44  C   UNL     1      21.741  45.382  54.450  1.00  0.00     0.012 C 
ENDBRANCH  17  42
BRANCH  15  45
HETATM   45  C   UNL     1      26.889  41.621  55.760  1.00  0.00     0.014 C 
HETATM   46  C   UNL     1      27.710  40.417  55.287  1.00  0.00     0.012 C 
BRANCH  45  47
HETATM   47  C   UNL     1      27.027  42.773  54.746  1.00  0.00     0.002 C 
HETATM   48  C   UNL     1      26.667  42.374  53.323  1.00  0.00     0.005 C 
ENDBRANCH  45  47
ENDBRANCH  15  45
TORSDOF 9
ENDMDL
MODEL 6
REMARK VINA RESULT:    -4.557     20.639     23.970
REMARK INTER + INTRA:          -6.608
REMARK INTER:                  -6.575
REMARK INTRA:                  -0.033
REMARK UNBOUND:                 0.346
REMARK  9 active torsions:
REMARK  status: ('A' for Active; 'I' for Inactive)
REMARK    1  A    between atoms: C_13  and  C_16 
REMARK    2  A    between atoms: C_14  and  C_17 
REMARK    3  A    between atoms: C_15  and  C_18 
REMARK    4  A    between atoms: C_16  and  C_22 
REMARK    5  A    between atoms: C_17  and  C_23 
REMARK    6  A    between atoms: C_18  and  C_24 
REMARK    7  A    between atoms: C_19  and  C_25 
REMARK    8  A    between atoms: C_20  and  C_26 
REMARK    9  A    between atoms: C_21  and  C_27 
ROOT
HETATM    1  O   UNL     1       7.768  57.659  57.180  1.00  0.00    -0.304 OA
HETATM    2  O   UNL     1      10.259  56.761  52.849  1.00  0.00    -0.304 OA
HETATM    3  O   UNL     1       5.936  55.279  54.455  1.00  0.00    -0.304 OA
HETATM    4  O   UNL     1       9.658  58.702  55.745  1.00  0.00    -0.270 OA
HETATM    5  O   UNL     1       3.598  54.078  56.686  1.00  0.00    -0.270 OA
HETATM    6  O   UNL     1       7.787  57.575  53.259  1.00  0.00    -0.270 OA
HETATM    7  O   UNL     1       6.776  56.339  58.791  1.00  0.00    -0.263 OA
HETATM    8  O   UNL     1      10.134  54.991  54.327  1.00  0.00    -0.263 OA
HETATM    9  O   UNL     1       3.719  55.347  53.842  1.00  0.00    -0.263 OA
HETATM   10  N   UNL     1      11.032  56.886  56.194  1.00  0.00    -0.340 N 
HETATM   11  N   UNL     1       4.511  56.151  57.183  1.00  0.00    -0.340 N 
HETATM   12  N   UNL     1       6.755  55.911  52.013  1.00  0.00    -0.340 N 
HETATM   13  C   UNL     1      11.561  56.904  54.816  1.00  0.00     0.190 C 
HETATM   14  C   UNL     1       5.484  57.232  56.918  1.00  0.00     0.190 C 
HETATM   15  C   UNL     1       5.403  56.366  52.411  1.00  0.00     0.190 C 
HETATM   16  C   UNL     1       9.100  57.425  57.686  1.00  0.00     0.227 C 
HETATM   17  C   UNL     1       9.258  56.168  51.998  1.00  0.00     0.227 C 
HETATM   18  C   UNL     1       5.725  54.539  55.661  1.00  0.00     0.227 C 
HETATM   19  C   UNL     1       9.964  57.751  56.475  1.00  0.00     0.250 C 
HETATM   20  C   UNL     1       4.508  54.903  56.539  1.00  0.00     0.250 C 
HETATM   21  C   UNL     1       7.874  56.614  52.485  1.00  0.00     0.250 C 
HETATM   22  C   UNL     1       6.725  57.004  57.767  1.00  0.00     0.283 C 
HETATM   23  C   UNL     1      10.576  56.083  53.994  1.00  0.00     0.283 C 
HETATM   24  C   UNL     1       4.901  55.572  53.618  1.00  0.00     0.283 C 
HETATM   25  C   UNL     1      11.540  55.888  57.137  1.00  0.00     0.153 C 
HETATM   26  C   UNL     1       3.480  56.401  58.190  1.00  0.00     0.153 C 
HETATM   27  C   UNL     1       6.821  54.693  51.200  1.00  0.00     0.153 C 
ENDROOT
BRANCH  16  28
HETATM   28  C   UNL     1       9.401  58.373  58.832  1.00  0.00     0.016 C 
HETATM   29  C   UNL     1      10.574  59.286  58.482  1.00  0.00     0.012 C 
HETATM   30  C   UNL     1       9.693  57.595  60.114  1.00  0.00     0.012 C 
ENDBRANCH  16  28
BRANCH  14  31
HETATM   31  C   UNL     1       4.953  58.647  57.137  1.00  0.00     0.014 C 
HETATM   32  C   UNL     1       5.681  59.296  58.316  1.00  0.00     0.012 C 
BRANCH  31  33
HETATM   33  C   UNL     1       5.100  59.527  55.883  1.00  0.00     0.002 C 
HETATM   34  C   UNL     1       4.103  59.193  54.783  1.00  0.00     0.005 C 
ENDBRANCH  31  33
ENDBRANCH  14  31
BRANCH  13  35
HETATM   35  C   UNL     1      12.971  56.363  54.621  1.00  0.00     0.014 C 
HETATM   36  C   UNL     1      13.220  56.087  53.136  1.00  0.00     0.012 C 
BRANCH  35  37
HETATM   37  C   UNL     1      14.049  57.320  55.160  1.00  0.00     0.002 C 
HETATM   38  C   UNL     1      15.425  56.679  55.283  1.00  0.00     0.005 C 
ENDBRANCH  35  37
ENDBRANCH  13  35
BRANCH  18  39
HETATM   39  C   UNL     1       5.726  53.054  55.296  1.00  0.00     0.016 C 
HETATM   40  C   UNL     1       6.681  52.787  54.135  1.00  0.00     0.012 C 
HETATM   41  C   UNL     1       6.104  52.204  56.508  1.00  0.00     0.012 C 
ENDBRANCH  18  39
BRANCH  17  42
HETATM   42  C   UNL     1       9.509  56.685  50.588  1.00  0.00     0.016 C 
HETATM   43  C   UNL     1      10.373  55.702  49.798  1.00  0.00     0.012 C 
HETATM   44  C   UNL     1      10.168  58.063  50.628  1.00  0.00     0.012 C 
ENDBRANCH  17  42
BRANCH  15  45
HETATM   45  C   UNL     1       4.392  56.341  51.266  1.00  0.00     0.014 C 
HETATM   46  C   UNL     1       3.334  57.430  51.477  1.00  0.00     0.012 C 
BRANCH  45  47
HETATM   47  C   UNL     1       5.055  56.524  49.887  1.00  0.00     0.002 C 
HETATM   48  C   UNL     1       5.246  57.981  49.495  1.00  0.00     0.005 C 
ENDBRANCH  45  47
ENDBRANCH  15  45
TORSDOF 9
ENDMDL
MODEL 7
REMARK VINA RESULT:    -4.547      3.376      7.935
REMARK INTER + INTRA:          -6.593
REMARK INTER:                  -7.504
REMARK INTRA:                   0.911
REMARK UNBOUND:                 0.346
REMARK  9 active torsions:
REMARK  status: ('A' for Active; 'I' for Inactive)
REMARK    1  A    between atoms: C_13  and  C_16 
REMARK    2  A    between atoms: C_14  and  C_17 
REMARK    3  A    between atoms: C_15  and  C_18 
REMARK    4  A    between atoms: C_16  and  C_22 
REMARK    5  A    between atoms: C_17  and  C_23 
REMARK    6  A    between atoms: C_18  and  C_24 
REMARK    7  A    between atoms: C_19  and  C_25 
REMARK    8  A    between atoms: C_20  and  C_26 
REMARK    9  A    between atoms: C_21  and  C_27 
ROOT
HETATM    1  O   UNL     1      23.821  39.111  55.680  1.00  0.00    -0.304 OA
HETATM    2  O   UNL     1      18.978  40.506  55.079  1.00  0.00    -0.304 OA
HETATM    3  O   UNL     1      22.558  42.348  57.771  1.00  0.00    -0.304 OA
HETATM    4  O   UNL     1      21.891  38.832  53.972  1.00  0.00    -0.270 OA
HETATM    5  O   UNL     1      25.274  42.362  59.896  1.00  0.00    -0.270 OA
HETATM    6  O   UNL     1      21.193  41.923  54.928  1.00  0.00    -0.270 OA
HETATM    7  O   UNL     1      25.166  38.639  57.494  1.00  0.00    -0.263 OA
HETATM    8  O   UNL     1      19.503  39.530  57.105  1.00  0.00    -0.263 OA
HETATM    9  O   UNL     1      23.697  44.327  58.060  1.00  0.00    -0.263 OA
HETATM   10  N   UNL     1      20.693  37.559  55.498  1.00  0.00    -0.340 N 
HETATM   11  N   UNL     1      25.603  41.368  57.827  1.00  0.00    -0.340 N 
HETATM   12  N   UNL     1      20.575  43.539  56.475  1.00  0.00    -0.340 N 
HETATM   13  C   UNL     1      19.425  38.185  55.074  1.00  0.00     0.190 C 
HETATM   14  C   UNL     1      25.088  40.883  56.529  1.00  0.00     0.190 C 
HETATM   15  C   UNL     1      21.905  44.189  56.420  1.00  0.00     0.190 C 
HETATM   16  C   UNL     1      23.169  37.823  55.720  1.00  0.00     0.227 C 
HETATM   17  C   UNL     1      18.923  41.814  55.682  1.00  0.00     0.227 C 
HETATM   18  C   UNL     1      23.275  41.626  58.777  1.00  0.00     0.227 C 
HETATM   19  C   UNL     1      21.875  38.096  54.966  1.00  0.00     0.250 C 
HETATM   20  C   UNL     1      24.802  41.836  58.880  1.00  0.00     0.250 C 
HETATM   21  C   UNL     1      20.331  42.422  55.661  1.00  0.00     0.250 C 
HETATM   22  C   UNL     1      24.727  39.412  56.655  1.00  0.00     0.283 C 
HETATM   23  C   UNL     1      19.311  39.462  55.897  1.00  0.00     0.283 C 
HETATM   24  C   UNL     1      22.806  43.668  57.540  1.00  0.00     0.283 C 
HETATM   25  C   UNL     1      20.664  36.529  56.537  1.00  0.00     0.153 C 
HETATM   26  C   UNL     1      27.053  41.357  58.026  1.00  0.00     0.153 C 
HETATM   27  C   UNL     1      19.623  44.081  57.450  1.00  0.00     0.153 C 
ENDROOT
BRANCH  16  28
HETATM   28  C   UNL     1      24.007  36.787  54.993  1.00  0.00     0.016 C 
HETATM   29  C   UNL     1      23.148  35.991  54.012  1.00  0.00     0.012 C 
HETATM   30  C   UNL     1      24.690  35.851  55.988  1.00  0.00     0.012 C 
ENDBRANCH  16  28
BRANCH  14  31
HETATM   31  C   UNL     1      26.026  41.092  55.342  1.00  0.00     0.014 C 
HETATM   32  C   UNL     1      26.539  39.739  54.844  1.00  0.00     0.012 C 
BRANCH  31  33
HETATM   33  C   UNL     1      25.349  41.851  54.187  1.00  0.00     0.002 C 
HETATM   34  C   UNL     1      26.334  42.497  53.223  1.00  0.00     0.005 C 
ENDBRANCH  31  33
ENDBRANCH  14  31
BRANCH  13  35
HETATM   35  C   UNL     1      18.164  37.349  55.242  1.00  0.00     0.014 C 
HETATM   36  C   UNL     1      17.559  37.595  56.627  1.00  0.00     0.012 C 
BRANCH  35  37
HETATM   37  C   UNL     1      17.114  37.643  54.156  1.00  0.00     0.002 C 
HETATM   38  C   UNL     1      16.332  36.412  53.718  1.00  0.00     0.005 C 
ENDBRANCH  35  37
ENDBRANCH  13  35
BRANCH  18  39
HETATM   39  C   UNL     1      22.583  41.890  60.115  1.00  0.00     0.016 C 
HETATM   40  C   UNL     1      21.072  41.995  59.926  1.00  0.00     0.012 C 
HETATM   41  C   UNL     1      22.923  40.791  61.121  1.00  0.00     0.012 C 
ENDBRANCH  18  39
BRANCH  17  42
HETATM   42  C   UNL     1      17.976  42.655  54.837  1.00  0.00     0.016 C 
HETATM   43  C   UNL     1      16.765  43.095  55.658  1.00  0.00     0.012 C 
HETATM   44  C   UNL     1      17.529  41.883  53.596  1.00  0.00     0.012 C 
ENDBRANCH  17  42
BRANCH  15  45
HETATM   45  C   UNL     1      21.835  45.715  56.422  1.00  0.00     0.014 C 
HETATM   46  C   UNL     1      23.157  46.300  55.914  1.00  0.00     0.012 C 
BRANCH  45  47
HETATM   47  C   UNL     1      20.669  46.255  55.572  1.00  0.00     0.002 C 
HETATM   48  C   UNL     1      20.541  47.770  55.613  1.00  0.00     0.005 C 
ENDBRANCH  45  47
ENDBRANCH  15  45
TORSDOF 9
ENDMDL
MODEL 8
REMARK VINA RESULT:    -4.490     20.593     24.994
REMARK INTER + INTRA:          -6.506
REMARK INTER:                  -7.194
REMARK INTRA:                   0.688
REMARK UNBOUND:                 0.346
REMARK  9 active torsions:
REMARK  status: ('A' for Active; 'I' for Inactive)
REMARK    1  A    between atoms: C_13  and  C_16 
REMARK    2  A    between atoms: C_14  and  C_17 
REMARK    3  A    between atoms: C_15  and  C_18 
REMARK    4  A    between atoms: C_16  and  C_22 
REMARK    5  A    between atoms: C_17  and  C_23 
REMARK    6  A    between atoms: C_18  and  C_24 
REMARK    7  A    between atoms: C_19  and  C_25 
REMARK    8  A    between atoms: C_20  and  C_26 
REMARK    9  A    between atoms: C_21  and  C_27 
ROOT
HETATM    1  O   UNL     1       4.855  54.682  55.886  1.00  0.00    -0.304 OA
HETATM    2  O   UNL     1       5.212  57.601  51.749  1.00  0.00    -0.304 OA
HETATM    3  O   UNL     1       8.466  56.358  55.114  1.00  0.00    -0.304 OA
HETATM    4  O   UNL     1       3.638  55.050  53.627  1.00  0.00    -0.270 OA
HETATM    5  O   UNL     1       9.724  55.730  58.262  1.00  0.00    -0.270 OA
HETATM    6  O   UNL     1       6.722  55.602  52.562  1.00  0.00    -0.270 OA
HETATM    7  O   UNL     1       5.363  54.955  58.120  1.00  0.00    -0.263 OA
HETATM    8  O   UNL     1       5.244  58.711  53.773  1.00  0.00    -0.263 OA
HETATM    9  O   UNL     1      10.520  55.332  55.275  1.00  0.00    -0.263 OA
HETATM   10  N   UNL     1       2.964  57.163  54.309  1.00  0.00    -0.340 N 
HETATM   11  N   UNL     1       8.015  54.333  57.550  1.00  0.00    -0.340 N 
HETATM   12  N   UNL     1       8.735  56.756  52.506  1.00  0.00    -0.340 N 
HETATM   13  C   UNL     1       3.181  57.706  52.953  1.00  0.00     0.190 C 
HETATM   14  C   UNL     1       6.972  53.963  56.570  1.00  0.00     0.190 C 
HETATM   15  C   UNL     1       9.476  55.617  53.096  1.00  0.00     0.190 C 
HETATM   16  C   UNL     1       3.625  55.431  55.986  1.00  0.00     0.227 C 
HETATM   17  C   UNL     1       6.632  57.786  51.584  1.00  0.00     0.227 C 
HETATM   18  C   UNL     1       8.329  56.617  56.515  1.00  0.00     0.227 C 
HETATM   19  C   UNL     1       3.385  55.846  54.540  1.00  0.00     0.250 C 
HETATM   20  C   UNL     1       8.766  55.519  57.508  1.00  0.00     0.250 C 
HETATM   21  C   UNL     1       7.359  56.619  52.264  1.00  0.00     0.250 C 
HETATM   22  C   UNL     1       5.651  54.589  56.990  1.00  0.00     0.283 C 
HETATM   23  C   UNL     1       4.656  58.083  52.902  1.00  0.00     0.283 C 
HETATM   24  C   UNL     1       9.591  55.777  54.612  1.00  0.00     0.283 C 
HETATM   25  C   UNL     1       2.463  58.054  55.357  1.00  0.00     0.153 C 
HETATM   26  C   UNL     1       8.282  53.395  58.640  1.00  0.00     0.153 C 
HETATM   27  C   UNL     1       9.499  57.988  52.286  1.00  0.00     0.153 C 
ENDROOT
BRANCH  16  28
HETATM   28  C   UNL     1       2.503  54.538  56.482  1.00  0.00     0.016 C 
HETATM   29  C   UNL     1       2.192  54.829  57.949  1.00  0.00     0.012 C 
HETATM   30  C   UNL     1       2.864  53.065  56.294  1.00  0.00     0.012 C 
ENDBRANCH  16  28
BRANCH  14  31
HETATM   31  C   UNL     1       6.794  52.462  56.351  1.00  0.00     0.014 C 
HETATM   32  C   UNL     1       5.839  51.896  57.404  1.00  0.00     0.012 C 
BRANCH  31  33
HETATM   33  C   UNL     1       6.271  52.135  54.942  1.00  0.00     0.002 C 
HETATM   34  C   UNL     1       7.287  52.397  53.839  1.00  0.00     0.005 C 
ENDBRANCH  31  33
ENDBRANCH  14  31
BRANCH  13  35
HETATM   35  C   UNL     1       2.329  58.903  52.554  1.00  0.00     0.014 C 
HETATM   36  C   UNL     1       3.045  59.710  51.467  1.00  0.00     0.012 C 
BRANCH  35  37
HETATM   37  C   UNL     1       0.931  58.492  52.061  1.00  0.00     0.002 C 
HETATM   38  C   UNL     1      -0.203  59.068  52.898  1.00  0.00     0.005 C 
ENDBRANCH  35  37
ENDBRANCH  13  35
BRANCH  18  39
HETATM   39  C   UNL     1       9.029  57.946  56.807  1.00  0.00     0.016 C 
HETATM   40  C   UNL     1       8.857  58.912  55.638  1.00  0.00     0.012 C 
HETATM   41  C   UNL     1       8.490  58.563  58.097  1.00  0.00     0.012 C 
ENDBRANCH  18  39
BRANCH  17  42
HETATM   42  C   UNL     1       6.912  57.777  50.088  1.00  0.00     0.016 C 
HETATM   43  C   UNL     1       7.485  59.121  49.638  1.00  0.00     0.012 C 
HETATM   44  C   UNL     1       5.643  57.447  49.303  1.00  0.00     0.012 C 
ENDBRANCH  17  42
BRANCH  15  45
HETATM   45  C   UNL     1      10.841  55.381  52.452  1.00  0.00     0.014 C 
HETATM   46  C   UNL     1      10.675  55.130  50.950  1.00  0.00     0.012 C 
BRANCH  45  47
HETATM   47  C   UNL     1      11.811  56.557  52.677  1.00  0.00     0.002 C 
HETATM   48  C   UNL     1      13.244  56.118  52.938  1.00  0.00     0.005 C 
ENDBRANCH  45  47
ENDBRANCH  15  45
TORSDOF 9
ENDMDL
MODEL 9
REMARK VINA RESULT:    -4.438     19.722     23.395
REMARK INTER + INTRA:          -6.426
REMARK INTER:                  -7.015
REMARK INTRA:                   0.589
REMARK UNBOUND:                 0.346
REMARK  9 active torsions:
REMARK  status: ('A' for Active; 'I' for Inactive)
REMARK    1  A    between atoms: C_13  and  C_16 
REMARK    2  A    between atoms: C_14  and  C_17 
REMARK    3  A    between atoms: C_15  and  C_18 
REMARK    4  A    between atoms: C_16  and  C_22 
REMARK    5  A    between atoms: C_17  and  C_23 
REMARK    6  A    between atoms: C_18  and  C_24 
REMARK    7  A    between atoms: C_19  and  C_25 
REMARK    8  A    between atoms: C_20  and  C_26 
REMARK    9  A    between atoms: C_21  and  C_27 
ROOT
HETATM    1  O   UNL     1       3.840  55.468  56.046  1.00  0.00    -0.304 OA
HETATM    2  O   UNL     1       6.415  53.477  59.941  1.00  0.00    -0.304 OA
HETATM    3  O   UNL     1       7.566  54.067  55.273  1.00  0.00    -0.304 OA
HETATM    4  O   UNL     1       3.862  55.549  58.637  1.00  0.00    -0.270 OA
HETATM    5  O   UNL     1       7.137  54.056  51.852  1.00  0.00    -0.270 OA
HETATM    6  O   UNL     1       7.129  55.297  58.175  1.00  0.00    -0.270 OA
HETATM    7  O   UNL     1       3.282  54.749  53.926  1.00  0.00    -0.263 OA
HETATM    8  O   UNL     1       5.635  51.973  58.373  1.00  0.00    -0.263 OA
HETATM    9  O   UNL     1       9.174  55.081  53.976  1.00  0.00    -0.263 OA
HETATM   10  N   UNL     1       3.202  53.327  58.735  1.00  0.00    -0.340 N 
HETATM   11  N   UNL     1       5.803  55.533  53.042  1.00  0.00    -0.340 N 
HETATM   12  N   UNL     1       9.058  54.223  57.459  1.00  0.00    -0.340 N 
HETATM   13  C   UNL     1       4.086  53.081  59.892  1.00  0.00     0.190 C 
HETATM   14  C   UNL     1       5.298  56.075  54.321  1.00  0.00     0.190 C 
HETATM   15  C   UNL     1       9.301  55.231  56.401  1.00  0.00     0.190 C 
HETATM   16  C   UNL     1       2.802  54.688  56.677  1.00  0.00     0.227 C 
HETATM   17  C   UNL     1       7.761  53.362  59.436  1.00  0.00     0.227 C 
HETATM   18  C   UNL     1       6.827  53.520  54.177  1.00  0.00     0.227 C 
HETATM   19  C   UNL     1       3.310  54.577  58.108  1.00  0.00     0.250 C 
HETATM   20  C   UNL     1       6.621  54.398  52.923  1.00  0.00     0.250 C 
HETATM   21  C   UNL     1       7.947  54.377  58.302  1.00  0.00     0.250 C 
HETATM   22  C   UNL     1       4.017  55.347  54.699  1.00  0.00     0.283 C 
HETATM   23  C   UNL     1       5.449  52.755  59.296  1.00  0.00     0.283 C 
HETATM   24  C   UNL     1       8.719  54.763  55.068  1.00  0.00     0.283 C 
HETATM   25  C   UNL     1       2.381  52.228  58.224  1.00  0.00     0.153 C 
HETATM   26  C   UNL     1       5.421  56.230  51.814  1.00  0.00     0.153 C 
HETATM   27  C   UNL     1       9.976  53.081  57.495  1.00  0.00     0.153 C 
ENDROOT
BRANCH  16  28
HETATM   28  C   UNL     1       1.481  55.435  56.631  1.00  0.00     0.016 C 
HETATM   29  C   UNL     1       1.659  56.873  57.114  1.00  0.00     0.012 C 
HETATM   30  C   UNL     1       0.426  54.716  57.470  1.00  0.00     0.012 C 
ENDBRANCH  16  28
BRANCH  14  31
HETATM   31  C   UNL     1       5.066  57.584  54.337  1.00  0.00     0.014 C 
HETATM   32  C   UNL     1       3.571  57.880  54.191  1.00  0.00     0.012 C 
BRANCH  31  33
HETATM   33  C   UNL     1       5.607  58.246  55.617  1.00  0.00     0.002 C 
HETATM   34  C   UNL     1       7.114  58.110  55.783  1.00  0.00     0.005 C 
ENDBRANCH  31  33
ENDBRANCH  14  31
BRANCH  13  35
HETATM   35  C   UNL     1       3.663  51.975  60.849  1.00  0.00     0.014 C 
HETATM   36  C   UNL     1       4.874  51.494  61.653  1.00  0.00     0.012 C 
BRANCH  35  37
HETATM   37  C   UNL     1       2.546  52.421  61.808  1.00  0.00     0.002 C 
HETATM   38  C   UNL     1       1.415  51.409  61.938  1.00  0.00     0.005 C 
ENDBRANCH  35  37
ENDBRANCH  13  35
BRANCH  18  39
HETATM   39  C   UNL     1       7.462  52.175  53.818  1.00  0.00     0.016 C 
HETATM   40  C   UNL     1       8.635  51.871  54.747  1.00  0.00     0.012 C 
HETATM   41  C   UNL     1       6.422  51.057  53.883  1.00  0.00     0.012 C 
ENDBRANCH  18  39
BRANCH  17  42
HETATM   42  C   UNL     1       8.699  53.686  60.590  1.00  0.00     0.016 C 
HETATM   43  C   UNL     1       9.249  52.404  61.215  1.00  0.00     0.012 C 
HETATM   44  C   UNL     1       7.987  54.532  61.644  1.00  0.00     0.012 C 
ENDBRANCH  17  42
BRANCH  15  45
HETATM   45  C   UNL     1      10.771  55.624  56.263  1.00  0.00     0.014 C 
HETATM   46  C   UNL     1      10.903  56.840  55.339  1.00  0.00     0.012 C 
BRANCH  45  47
HETATM   47  C   UNL     1      11.431  55.932  57.621  1.00  0.00     0.002 C 
HETATM   48  C   UNL     1      12.573  56.932  57.527  1.00  0.00     0.005 C 
ENDBRANCH  45  47
ENDBRANCH  15  45
TORSDOF 9
ENDMDL
MODEL 10
REMARK VINA RESULT:    -4.419     19.618     23.941
REMARK INTER + INTRA:          -6.398
REMARK INTER:                  -6.345
REMARK INTRA:                  -0.053
REMARK UNBOUND:                 0.346
REMARK  9 active torsions:
REMARK  status: ('A' for Active; 'I' for Inactive)
REMARK    1  A    between atoms: C_13  and  C_16 
REMARK    2  A    between atoms: C_14  and  C_17 
REMARK    3  A    between atoms: C_15  and  C_18 
REMARK    4  A    between atoms: C_16  and  C_22 
REMARK    5  A    between atoms: C_17  and  C_23 
REMARK    6  A    between atoms: C_18  and  C_24 
REMARK    7  A    between atoms: C_19  and  C_25 
REMARK    8  A    between atoms: C_20  and  C_26 
REMARK    9  A    between atoms: C_21  and  C_27 
ROOT
HETATM    1  O   UNL     1      22.191  54.602  41.044  1.00  0.00    -0.304 OA
HETATM    2  O   UNL     1      24.989  51.065  38.716  1.00  0.00    -0.304 OA
HETATM    3  O   UNL     1      25.825  53.775  42.642  1.00  0.00    -0.304 OA
HETATM    4  O   UNL     1      21.881  52.593  39.435  1.00  0.00    -0.270 OA
HETATM    5  O   UNL     1      25.892  56.600  44.618  1.00  0.00    -0.270 OA
HETATM    6  O   UNL     1      24.339  51.327  41.255  1.00  0.00    -0.270 OA
HETATM    7  O   UNL     1      22.549  56.780  41.713  1.00  0.00    -0.263 OA
HETATM    8  O   UNL     1      25.709  53.245  38.468  1.00  0.00    -0.263 OA
HETATM    9  O   UNL     1      26.319  53.523  44.876  1.00  0.00    -0.263 OA
HETATM   10  N   UNL     1      23.032  53.723  37.767  1.00  0.00    -0.340 N 
HETATM   11  N   UNL     1      23.790  55.826  44.015  1.00  0.00    -0.340 N 
HETATM   12  N   UNL     1      26.505  51.273  42.086  1.00  0.00    -0.340 N 
HETATM   13  C   UNL     1      23.694  52.476  37.333  1.00  0.00     0.190 C 
HETATM   14  C   UNL     1      22.922  54.912  43.244  1.00  0.00     0.190 C 
HETATM   15  C   UNL     1      26.048  51.559  43.466  1.00  0.00     0.190 C 
HETATM   16  C   UNL     1      21.984  54.969  39.664  1.00  0.00     0.227 C 
HETATM   17  C   UNL     1      26.042  50.786  39.661  1.00  0.00     0.227 C 
HETATM   18  C   UNL     1      25.831  55.205  42.658  1.00  0.00     0.227 C 
HETATM   19  C   UNL     1      22.264  53.660  38.939  1.00  0.00     0.250 C 
HETATM   20  C   UNL     1      25.182  55.926  43.861  1.00  0.00     0.250 C 
HETATM   21  C   UNL     1      25.549  51.156  41.065  1.00  0.00     0.250 C 
HETATM   22  C   UNL     1      22.538  55.578  41.932  1.00  0.00     0.283 C 
HETATM   23  C   UNL     1      24.921  52.339  38.225  1.00  0.00     0.283 C 
HETATM   24  C   UNL     1      26.128  53.057  43.760  1.00  0.00     0.283 C 
HETATM   25  C   UNL     1      23.321  54.966  37.049  1.00  0.00     0.153 C 
HETATM   26  C   UNL     1      23.151  56.689  45.008  1.00  0.00     0.153 C 
HETATM   27  C   UNL     1      27.955  51.205  41.879  1.00  0.00     0.153 C 
ENDROOT
BRANCH  16  28
HETATM   28  C   UNL     1      20.548  55.408  39.446  1.00  0.00     0.016 C 
HETATM   29  C   UNL     1      19.895  54.585  38.337  1.00  0.00     0.012 C 
HETATM   30  C   UNL     1      20.483  56.898  39.115  1.00  0.00     0.012 C 
ENDBRANCH  16  28
BRANCH  14  31
HETATM   31  C   UNL     1      21.669  54.438  43.978  1.00  0.00     0.014 C 
HETATM   32  C   UNL     1      20.422  54.852  43.192  1.00  0.00     0.012 C 
BRANCH  31  33
HETATM   33  C   UNL     1      21.663  52.916  44.203  1.00  0.00     0.002 C 
HETATM   34  C   UNL     1      22.687  52.448  45.226  1.00  0.00     0.005 C 
ENDBRANCH  31  33
ENDBRANCH  14  31
BRANCH  13  35
HETATM   35  C   UNL     1      24.109  52.399  35.870  1.00  0.00     0.014 C 
HETATM   36  C   UNL     1      25.204  51.344  35.697  1.00  0.00     0.012 C 
BRANCH  35  37
HETATM   37  C   UNL     1      22.927  52.080  34.939  1.00  0.00     0.002 C 
HETATM   38  C   UNL     1      23.175  52.467  33.487  1.00  0.00     0.005 C 
ENDBRANCH  35  37
ENDBRANCH  13  35
BRANCH  18  39
HETATM   39  C   UNL     1      27.274  55.663  42.444  1.00  0.00     0.016 C 
HETATM   40  C   UNL     1      27.999  54.722  41.486  1.00  0.00     0.012 C 
HETATM   41  C   UNL     1      27.310  57.097  41.919  1.00  0.00     0.012 C 
ENDBRANCH  18  39
BRANCH  17  42
HETATM   42  C   UNL     1      26.328  49.294  39.583  1.00  0.00     0.016 C 
HETATM   43  C   UNL     1      27.193  48.973  38.364  1.00  0.00     0.012 C 
HETATM   44  C   UNL     1      25.026  48.495  39.538  1.00  0.00     0.012 C 
ENDBRANCH  17  42
BRANCH  15  45
HETATM   45  C   UNL     1      26.780  50.741  44.529  1.00  0.00     0.014 C 
HETATM   46  C   UNL     1      26.000  50.779  45.848  1.00  0.00     0.012 C 
BRANCH  45  47
HETATM   47  C   UNL     1      27.000  49.277  44.101  1.00  0.00     0.002 C 
HETATM   48  C   UNL     1      25.763  48.406  44.258  1.00  0.00     0.005 C 
ENDBRANCH  45  47
ENDBRANCH  15  45
TORSDOF 9
ENDMDL
MODEL 11
REMARK VINA RESULT:    -4.362      3.532      6.283
REMARK INTER + INTRA:          -6.311
REMARK INTER:                  -6.880
REMARK INTRA:                   0.569
REMARK UNBOUND:                 0.346
REMARK  9 active torsions:
REMARK  status: ('A' for Active; 'I' for Inactive)
REMARK    1  A    between atoms: C_13  and  C_16 
REMARK    2  A    between atoms: C_14  and  C_17 
REMARK    3  A    between atoms: C_15  and  C_18 
REMARK    4  A    between atoms: C_16  and  C_22 
REMARK    5  A    between atoms: C_17  and  C_23 
REMARK    6  A    between atoms: C_18  and  C_24 
REMARK    7  A    between atoms: C_19  and  C_25 
REMARK    8  A    between atoms: C_20  and  C_26 
REMARK    9  A    between atoms: C_21  and  C_27 
ROOT
HETATM    1  O   UNL     1      23.817  42.921  55.571  1.00  0.00    -0.304 OA
HETATM    2  O   UNL     1      20.591  39.023  55.165  1.00  0.00    -0.304 OA
HETATM    3  O   UNL     1      20.340  43.177  57.643  1.00  0.00    -0.304 OA
HETATM    4  O   UNL     1      23.298  40.956  53.961  1.00  0.00    -0.270 OA
HETATM    5  O   UNL     1      21.416  45.775  59.637  1.00  0.00    -0.270 OA
HETATM    6  O   UNL     1      20.186  41.610  54.878  1.00  0.00    -0.270 OA
HETATM    7  O   UNL     1      24.786  44.055  57.330  1.00  0.00    -0.263 OA
HETATM    8  O   UNL     1      21.690  39.216  57.186  1.00  0.00    -0.263 OA
HETATM    9  O   UNL     1      18.987  45.029  57.832  1.00  0.00    -0.263 OA
HETATM   10  N   UNL     1      23.977  39.428  55.570  1.00  0.00    -0.340 N 
HETATM   11  N   UNL     1      22.464  45.569  57.579  1.00  0.00    -0.340 N 
HETATM   12  N   UNL     1      18.455  41.775  56.414  1.00  0.00    -0.340 N 
HETATM   13  C   UNL     1      22.894  38.498  55.192  1.00  0.00     0.190 C 
HETATM   14  C   UNL     1      22.702  44.836  56.318  1.00  0.00     0.190 C 
HETATM   15  C   UNL     1      18.395  43.250  56.282  1.00  0.00     0.190 C 
HETATM   16  C   UNL     1      24.733  41.809  55.670  1.00  0.00     0.227 C 
HETATM   17  C   UNL     1      19.370  39.530  55.739  1.00  0.00     0.227 C 
HETATM   18  C   UNL     1      21.288  43.595  58.630  1.00  0.00     0.227 C 
HETATM   19  C   UNL     1      23.963  40.696  54.972  1.00  0.00     0.250 C 
HETATM   20  C   UNL     1      21.710  45.080  58.657  1.00  0.00     0.250 C 
HETATM   21  C   UNL     1      19.380  41.060  55.639  1.00  0.00     0.250 C 
HETATM   22  C   UNL     1      23.904  43.920  56.495  1.00  0.00     0.283 C 
HETATM   23  C   UNL     1      21.678  38.950  55.990  1.00  0.00     0.283 C 
HETATM   24  C   UNL     1      19.233  43.922  57.371  1.00  0.00     0.283 C 
HETATM   25  C   UNL     1      24.906  39.041  56.634  1.00  0.00     0.153 C 
HETATM   26  C   UNL     1      23.057  46.900  57.710  1.00  0.00     0.153 C 
HETATM   27  C   UNL     1      17.573  41.174  57.420  1.00  0.00     0.153 C 
ENDROOT
BRANCH  16  28
HETATM   28  C   UNL     1      26.020  42.120  54.929  1.00  0.00     0.016 C 
HETATM   29  C   UNL     1      26.304  41.055  53.871  1.00  0.00     0.012 C 
HETATM   30  C   UNL     1      27.191  42.231  55.904  1.00  0.00     0.012 C 
ENDBRANCH  16  28
BRANCH  14  31
HETATM   31  C   UNL     1      22.892  45.716  55.084  1.00  0.00     0.014 C 
HETATM   32  C   UNL     1      24.165  45.300  54.343  1.00  0.00     0.012 C 
BRANCH  31  33
HETATM   33  C   UNL     1      21.687  45.652  54.129  1.00  0.00     0.002 C 
HETATM   34  C   UNL     1      20.422  46.274  54.702  1.00  0.00     0.005 C 
ENDBRANCH  31  33
ENDBRANCH  14  31
BRANCH  13  35
HETATM   35  C   UNL     1      23.152  37.018  55.438  1.00  0.00     0.014 C 
HETATM   36  C   UNL     1      21.821  36.285  55.631  1.00  0.00     0.012 C 
BRANCH  35  37
HETATM   37  C   UNL     1      23.947  36.361  54.296  1.00  0.00     0.002 C 
HETATM   38  C   UNL     1      24.939  35.309  54.773  1.00  0.00     0.005 C 
ENDBRANCH  35  37
ENDBRANCH  13  35
BRANCH  18  39
HETATM   39  C   UNL     1      20.764  43.137  59.993  1.00  0.00     0.016 C 
HETATM   40  C   UNL     1      20.040  41.799  59.868  1.00  0.00     0.012 C 
HETATM   41  C   UNL     1      21.908  43.037  61.001  1.00  0.00     0.012 C 
ENDBRANCH  18  39
BRANCH  17  42
HETATM   42  C   UNL     1      18.221  38.959  54.920  1.00  0.00     0.016 C 
HETATM   43  C   UNL     1      17.901  37.531  55.360  1.00  0.00     0.012 C 
HETATM   44  C   UNL     1      18.549  38.998  53.428  1.00  0.00     0.012 C 
ENDBRANCH  17  42
BRANCH  15  45
HETATM   45  C   UNL     1      16.971  43.800  56.252  1.00  0.00     0.014 C 
HETATM   46  C   UNL     1      16.253  43.328  54.982  1.00  0.00     0.012 C 
BRANCH  45  47
HETATM   47  C   UNL     1      16.152  43.390  57.491  1.00  0.00     0.002 C 
HETATM   48  C   UNL     1      15.189  44.468  57.966  1.00  0.00     0.005 C 
ENDBRANCH  45  47
ENDBRANCH  15  45
TORSDOF 9
ENDMDL
MODEL 12
REMARK VINA RESULT:    -4.283     19.696     23.788
REMARK INTER + INTRA:          -6.190
REMARK INTER:                  -6.315
REMARK INTRA:                   0.125
REMARK UNBOUND:                 0.346
REMARK  9 active torsions:
REMARK  status: ('A' for Active; 'I' for Inactive)
REMARK    1  A    between atoms: C_13  and  C_16 
REMARK    2  A    between atoms: C_14  and  C_17 
REMARK    3  A    between atoms: C_15  and  C_18 
REMARK    4  A    between atoms: C_16  and  C_22 
REMARK    5  A    between atoms: C_17  and  C_23 
REMARK    6  A    between atoms: C_18  and  C_24 
REMARK    7  A    between atoms: C_19  and  C_25 
REMARK    8  A    between atoms: C_20  and  C_26 
REMARK    9  A    between atoms: C_21  and  C_27 
ROOT
HETATM    1  O   UNL     1      10.417  57.186  55.418  1.00  0.00    -0.304 OA
HETATM    2  O   UNL     1       7.915  57.612  51.023  1.00  0.00    -0.304 OA
HETATM    3  O   UNL     1       7.025  55.002  55.004  1.00  0.00    -0.304 OA
HETATM    4  O   UNL     1      10.195  58.838  53.433  1.00  0.00    -0.270 OA
HETATM    5  O   UNL     1       7.697  52.962  57.701  1.00  0.00    -0.270 OA
HETATM    6  O   UNL     1       7.051  57.807  53.504  1.00  0.00    -0.270 OA
HETATM    7  O   UNL     1      11.233  55.423  56.662  1.00  0.00    -0.263 OA
HETATM    8  O   UNL     1       9.034  55.621  51.357  1.00  0.00    -0.263 OA
HETATM    9  O   UNL     1       5.375  54.714  56.582  1.00  0.00    -0.263 OA
HETATM   10  N   UNL     1      11.190  57.298  52.010  1.00  0.00    -0.340 N 
HETATM   11  N   UNL     1       8.691  55.057  57.735  1.00  0.00    -0.340 N 
HETATM   12  N   UNL     1       5.373  56.215  53.322  1.00  0.00    -0.340 N 
HETATM   13  C   UNL     1      10.274  57.671  50.913  1.00  0.00     0.190 C 
HETATM   14  C   UNL     1       9.010  56.346  57.087  1.00  0.00     0.190 C 
HETATM   15  C   UNL     1       5.051  56.300  54.765  1.00  0.00     0.190 C 
HETATM   16  C   UNL     1      11.517  57.148  54.484  1.00  0.00     0.227 C 
HETATM   17  C   UNL     1       6.645  56.986  51.292  1.00  0.00     0.227 C 
HETATM   18  C   UNL     1       7.919  54.031  55.558  1.00  0.00     0.227 C 
HETATM   19  C   UNL     1      10.931  57.857  53.270  1.00  0.00     0.250 C 
HETATM   20  C   UNL     1       8.074  53.971  57.093  1.00  0.00     0.250 C 
HETATM   21  C   UNL     1       6.382  57.040  52.801  1.00  0.00     0.250 C 
HETATM   22  C   UNL     1      10.359  56.234  56.394  1.00  0.00     0.283 C 
HETATM   23  C   UNL     1       9.027  56.823  51.123  1.00  0.00     0.283 C 
HETATM   24  C   UNL     1       5.795  55.217  55.548  1.00  0.00     0.283 C 
HETATM   25  C   UNL     1      12.209  56.276  51.767  1.00  0.00     0.153 C 
HETATM   26  C   UNL     1       9.045  54.903  59.146  1.00  0.00     0.153 C 
HETATM   27  C   UNL     1       4.647  55.202  52.549  1.00  0.00     0.153 C 
ENDROOT
BRANCH  16  28
HETATM   28  C   UNL     1      12.703  57.919  55.036  1.00  0.00     0.016 C 
HETATM   29  C   UNL     1      13.080  59.068  54.104  1.00  0.00     0.012 C 
HETATM   30  C   UNL     1      13.897  56.990  55.251  1.00  0.00     0.012 C 
ENDBRANCH  16  28
BRANCH  14  31
HETATM   31  C   UNL     1       8.998  57.558  58.017  1.00  0.00     0.014 C 
HETATM   32  C   UNL     1      10.420  58.102  58.176  1.00  0.00     0.012 C 
BRANCH  31  33
HETATM   33  C   UNL     1       8.066  58.673  57.512  1.00  0.00     0.002 C 
HETATM   34  C   UNL     1       6.595  58.285  57.513  1.00  0.00     0.005 C 
ENDBRANCH  31  33
ENDBRANCH  14  31
BRANCH  13  35
HETATM   35  C   UNL     1      10.797  57.479  49.496  1.00  0.00     0.014 C 
HETATM   36  C   UNL     1       9.626  57.468  48.509  1.00  0.00     0.012 C 
BRANCH  35  37
HETATM   37  C   UNL     1      11.810  58.563  49.090  1.00  0.00     0.002 C 
HETATM   38  C   UNL     1      12.996  58.023  48.303  1.00  0.00     0.005 C 
ENDBRANCH  35  37
ENDBRANCH  13  35
BRANCH  18  39
HETATM   39  C   UNL     1       7.533  52.667  54.982  1.00  0.00     0.016 C 
HETATM   40  C   UNL     1       6.849  52.832  53.626  1.00  0.00     0.012 C 
HETATM   41  C   UNL     1       8.762  51.770  54.858  1.00  0.00     0.012 C 
ENDBRANCH  18  39
BRANCH  17  42
HETATM   42  C   UNL     1       5.586  57.786  50.547  1.00  0.00     0.016 C 
HETATM   43  C   UNL     1       5.918  57.868  49.058  1.00  0.00     0.012 C 
HETATM   44  C   UNL     1       5.450  59.188  51.142  1.00  0.00     0.012 C 
ENDBRANCH  17  42
BRANCH  15  45
HETATM   45  C   UNL     1       3.552  56.269  55.055  1.00  0.00     0.014 C 
HETATM   46  C   UNL     1       3.293  56.648  56.518  1.00  0.00     0.012 C 
BRANCH  45  47
HETATM   47  C   UNL     1       2.751  57.204  54.129  1.00  0.00     0.002 C 
HETATM   48  C   UNL     1       1.244  57.075  54.294  1.00  0.00     0.005 C 
ENDBRANCH  45  47
ENDBRANCH  15  45
TORSDOF 9
ENDMDL
MODEL 13
REMARK VINA RESULT:    -4.228      3.178      5.296
REMARK INTER + INTRA:          -6.106
REMARK INTER:                  -6.860
REMARK INTRA:                   0.755
REMARK UNBOUND:                 0.346
REMARK  9 active torsions:
REMARK  status: ('A' for Active; 'I' for Inactive)
REMARK    1  A    between atoms: C_13  and  C_16 
REMARK    2  A    between atoms: C_14  and  C_17 
REMARK    3  A    between atoms: C_15  and  C_18 
REMARK    4  A    between atoms: C_16  and  C_22 
REMARK    5  A    between atoms: C_17  and  C_23 
REMARK    6  A    between atoms: C_18  and  C_24 
REMARK    7  A    between atoms: C_19  and  C_25 
REMARK    8  A    between atoms: C_20  and  C_26 
REMARK    9  A    between atoms: C_21  and  C_27 
ROOT
HETATM    1  O   UNL     1      21.235  43.509  56.369  1.00  0.00    -0.304 OA
HETATM    2  O   UNL     1      24.150  39.395  55.783  1.00  0.00    -0.304 OA
HETATM    3  O   UNL     1      19.830  40.020  57.883  1.00  0.00    -0.304 OA
HETATM    4  O   UNL     1      23.157  42.660  54.850  1.00  0.00    -0.270 OA
HETATM    5  O   UNL     1      17.408  41.530  59.816  1.00  0.00    -0.270 OA
HETATM    6  O   UNL     1      21.597  39.768  55.249  1.00  0.00    -0.270 OA
HETATM    7  O   UNL     1      20.212  44.537  58.163  1.00  0.00    -0.263 OA
HETATM    8  O   UNL     1      24.033  40.252  57.923  1.00  0.00    -0.263 OA
HETATM    9  O   UNL     1      17.676  39.226  57.734  1.00  0.00    -0.263 OA
HETATM   10  N   UNL     1      24.621  42.685  56.650  1.00  0.00    -0.340 N 
HETATM   11  N   UNL     1      18.115  42.719  57.954  1.00  0.00    -0.340 N 
HETATM   12  N   UNL     1      20.806  37.980  56.497  1.00  0.00    -0.340 N 
HETATM   13  C   UNL     1      25.264  41.439  56.187  1.00  0.00     0.190 C 
HETATM   14  C   UNL     1      19.022  42.893  56.801  1.00  0.00     0.190 C 
HETATM   15  C   UNL     1      19.393  38.352  56.249  1.00  0.00     0.190 C 
HETATM   16  C   UNL     1      22.533  44.059  56.684  1.00  0.00     0.227 C 
HETATM   17  C   UNL     1      23.274  38.305  56.132  1.00  0.00     0.227 C 
HETATM   18  C   UNL     1      19.573  40.919  58.965  1.00  0.00     0.227 C 
HETATM   19  C   UNL     1      23.470  43.098  55.964  1.00  0.00     0.250 C 
HETATM   20  C   UNL     1      18.261  41.734  58.944  1.00  0.00     0.250 C 
HETATM   21  C   UNL     1      21.824  38.755  55.921  1.00  0.00     0.250 C 
HETATM   22  C   UNL     1      20.199  43.760  57.219  1.00  0.00     0.283 C 
HETATM   23  C   UNL     1      24.418  40.311  56.762  1.00  0.00     0.283 C 
HETATM   24  C   UNL     1      18.852  39.206  57.396  1.00  0.00     0.283 C 
HETATM   25  C   UNL     1      25.122  43.333  57.864  1.00  0.00     0.153 C 
HETATM   26  C   UNL     1      16.985  43.641  58.073  1.00  0.00     0.153 C 
HETATM   27  C   UNL     1      21.033  36.850  57.404  1.00  0.00     0.153 C 
ENDROOT
BRANCH  16  28
HETATM   28  C   UNL     1      22.662  45.461  56.119  1.00  0.00     0.016 C 
HETATM   29  C   UNL     1      23.735  45.508  55.032  1.00  0.00     0.012 C 
HETATM   30  C   UNL     1      22.979  46.463  57.228  1.00  0.00     0.012 C 
ENDBRANCH  16  28
BRANCH  14  31
HETATM   31  C   UNL     1      18.368  43.469  55.546  1.00  0.00     0.014 C 
HETATM   32  C   UNL     1      19.294  44.508  54.910  1.00  0.00     0.012 C 
BRANCH  31  33
HETATM   33  C   UNL     1      18.019  42.381  54.516  1.00  0.00     0.002 C 
HETATM   34  C   UNL     1      16.893  42.775  53.571  1.00  0.00     0.005 C 
ENDBRANCH  31  33
ENDBRANCH  14  31
BRANCH  13  35
HETATM   35  C   UNL     1      26.723  41.240  56.577  1.00  0.00     0.014 C 
HETATM   36  C   UNL     1      26.850  40.032  57.510  1.00  0.00     0.012 C 
BRANCH  35  37
HETATM   37  C   UNL     1      27.638  41.052  55.355  1.00  0.00     0.002 C 
HETATM   38  C   UNL     1      27.313  39.810  54.536  1.00  0.00     0.005 C 
ENDBRANCH  35  37
ENDBRANCH  13  35
BRANCH  18  39
HETATM   39  C   UNL     1      19.719  40.128  60.266  1.00  0.00     0.016 C 
HETATM   40  C   UNL     1      20.820  39.078  60.136  1.00  0.00     0.012 C 
HETATM   41  C   UNL     1      20.009  41.067  61.436  1.00  0.00     0.012 C 
ENDBRANCH  18  39
BRANCH  17  42
HETATM   42  C   UNL     1      23.605  37.149  55.198  1.00  0.00     0.016 C 
HETATM   43  C   UNL     1      24.711  36.276  55.789  1.00  0.00     0.012 C 
HETATM   44  C   UNL     1      24.013  37.669  53.820  1.00  0.00     0.012 C 
ENDBRANCH  17  42
BRANCH  15  45
HETATM   45  C   UNL     1      18.490  37.153  55.970  1.00  0.00     0.014 C 
HETATM   46  C   UNL     1      17.735  36.756  57.244  1.00  0.00     0.012 C 
BRANCH  45  47
HETATM   47  C   UNL     1      17.483  37.422  54.835  1.00  0.00     0.002 C 
HETATM   48  C   UNL     1      17.901  38.554  53.909  1.00  0.00     0.005 C 
ENDBRANCH  45  47
ENDBRANCH  15  45
TORSDOF 9
ENDMDL
MODEL 14
REMARK VINA RESULT:    -4.196      2.158      6.511
REMARK INTER + INTRA:          -6.058
REMARK INTER:                  -6.884
REMARK INTRA:                   0.826
REMARK UNBOUND:                 0.346
REMARK  9 active torsions:
REMARK  status: ('A' for Active; 'I' for Inactive)
REMARK    1  A    between atoms: C_13  and  C_16 
REMARK    2  A    between atoms: C_14  and  C_17 
REMARK    3  A    between atoms: C_15  and  C_18 
REMARK    4  A    between atoms: C_16  and  C_22 
REMARK    5  A    between atoms: C_17  and  C_23 
REMARK    6  A    between atoms: C_18  and  C_24 
REMARK    7  A    between atoms: C_19  and  C_25 
REMARK    8  A    between atoms: C_20  and  C_26 
REMARK    9  A    between atoms: C_21  and  C_27 
ROOT
HETATM    1  O   UNL     1      19.525  37.392  58.982  1.00  0.00    -0.304 OA
HETATM    2  O   UNL     1      23.804  36.627  56.360  1.00  0.00    -0.304 OA
HETATM    3  O   UNL     1      20.540  40.204  56.242  1.00  0.00    -0.304 OA
HETATM    4  O   UNL     1      21.740  36.058  59.176  1.00  0.00    -0.270 OA
HETATM    5  O   UNL     1      17.428  41.689  56.227  1.00  0.00    -0.270 OA
HETATM    6  O   UNL     1      22.971  38.745  57.687  1.00  0.00    -0.270 OA
HETATM    7  O   UNL     1      17.333  37.842  58.425  1.00  0.00    -0.263 OA
HETATM    8  O   UNL     1      21.836  36.341  55.186  1.00  0.00    -0.263 OA
HETATM    9  O   UNL     1      20.428  42.487  56.510  1.00  0.00    -0.263 OA
HETATM   10  N   UNL     1      21.125  34.731  57.375  1.00  0.00    -0.340 N 
HETATM   11  N   UNL     1      17.996  40.531  58.155  1.00  0.00    -0.340 N 
HETATM   12  N   UNL     1      23.173  40.249  55.931  1.00  0.00    -0.340 N 
HETATM   13  C   UNL     1      22.513  34.715  56.871  1.00  0.00     0.190 C 
HETATM   14  C   UNL     1      18.908  39.646  58.909  1.00  0.00     0.190 C 
HETATM   15  C   UNL     1      22.567  41.347  56.719  1.00  0.00     0.190 C 
HETATM   16  C   UNL     1      19.403  35.985  58.684  1.00  0.00     0.227 C 
HETATM   17  C   UNL     1      24.043  37.897  55.721  1.00  0.00     0.227 C 
HETATM   18  C   UNL     1      19.148  40.028  55.962  1.00  0.00     0.227 C 
HETATM   19  C   UNL     1      20.854  35.578  58.459  1.00  0.00     0.250 C 
HETATM   20  C   UNL     1      18.127  40.837  56.790  1.00  0.00     0.250 C 
HETATM   21  C   UNL     1      23.345  38.994  56.534  1.00  0.00     0.250 C 
HETATM   22  C   UNL     1      18.457  38.204  58.738  1.00  0.00     0.283 C 
HETATM   23  C   UNL     1      22.650  35.974  56.025  1.00  0.00     0.283 C 
HETATM   24  C   UNL     1      21.067  41.445  56.441  1.00  0.00     0.283 C 
HETATM   25  C   UNL     1      20.096  33.990  56.644  1.00  0.00     0.153 C 
HETATM   26  C   UNL     1      16.877  41.130  58.883  1.00  0.00     0.153 C 
HETATM   27  C   UNL     1      23.484  40.547  54.529  1.00  0.00     0.153 C 
ENDROOT
BRANCH  16  28
HETATM   28  C   UNL     1      18.815  35.245  59.871  1.00  0.00     0.016 C 
HETATM   29  C   UNL     1      19.595  35.563  61.145  1.00  0.00     0.012 C 
HETATM   30  C   UNL     1      18.801  33.739  59.614  1.00  0.00     0.012 C 
ENDBRANCH  16  28
BRANCH  14  31
HETATM   31  C   UNL     1      19.050  39.978  60.393  1.00  0.00     0.014 C 
HETATM   32  C   UNL     1      18.248  38.976  61.226  1.00  0.00     0.012 C 
BRANCH  31  33
HETATM   33  C   UNL     1      20.518  39.983  60.854  1.00  0.00     0.002 C 
HETATM   34  C   UNL     1      21.367  41.047  60.172  1.00  0.00     0.005 C 
ENDBRANCH  31  33
ENDBRANCH  14  31
BRANCH  13  35
HETATM   35  C   UNL     1      22.926  33.498  56.054  1.00  0.00     0.014 C 
HETATM   36  C   UNL     1      24.176  33.825  55.232  1.00  0.00     0.012 C 
BRANCH  35  37
HETATM   37  C   UNL     1      23.189  32.262  56.932  1.00  0.00     0.002 C 
HETATM   38  C   UNL     1      23.799  31.094  56.169  1.00  0.00     0.005 C 
ENDBRANCH  35  37
ENDBRANCH  13  35
BRANCH  18  39
HETATM   39  C   UNL     1      18.949  40.247  54.461  1.00  0.00     0.016 C 
HETATM   40  C   UNL     1      20.078  39.592  53.669  1.00  0.00     0.012 C 
HETATM   41  C   UNL     1      17.594  39.702  54.014  1.00  0.00     0.012 C 
ENDBRANCH  18  39
BRANCH  17  42
HETATM   42  C   UNL     1      25.548  38.121  55.722  1.00  0.00     0.016 C 
HETATM   43  C   UNL     1      25.957  39.038  56.874  1.00  0.00     0.012 C 
HETATM   44  C   UNL     1      26.010  38.702  54.386  1.00  0.00     0.012 C 
ENDBRANCH  17  42
BRANCH  15  45
HETATM   45  C   UNL     1      23.262  42.692  56.521  1.00  0.00     0.014 C 
HETATM   46  C   UNL     1      22.821  43.675  57.611  1.00  0.00     0.012 C 
BRANCH  45  47
HETATM   47  C   UNL     1      24.798  42.571  56.524  1.00  0.00     0.002 C 
HETATM   48  C   UNL     1      25.401  42.546  57.921  1.00  0.00     0.005 C 
ENDBRANCH  45  47
ENDBRANCH  15  45
TORSDOF 9
ENDMDL
MODEL 15
REMARK VINA RESULT:    -4.164      1.336      2.038
REMARK INTER + INTRA:          -6.008
REMARK INTER:                  -7.115
REMARK INTRA:                   1.107
REMARK UNBOUND:                 0.346
REMARK  9 active torsions:
REMARK  status: ('A' for Active; 'I' for Inactive)
REMARK    1  A    between atoms: C_13  and  C_16 
REMARK    2  A    between atoms: C_14  and  C_17 
REMARK    3  A    between atoms: C_15  and  C_18 
REMARK    4  A    between atoms: C_16  and  C_22 
REMARK    5  A    between atoms: C_17  and  C_23 
REMARK    6  A    between atoms: C_18  and  C_24 
REMARK    7  A    between atoms: C_19  and  C_25 
REMARK    8  A    between atoms: C_20  and  C_26 
REMARK    9  A    between atoms: C_21  and  C_27 
ROOT
HETATM    1  O   UNL     1      22.016  37.193  55.946  1.00  0.00    -0.304 OA
HETATM    2  O   UNL     1      21.650  33.437  59.341  1.00  0.00    -0.304 OA
HETATM    3  O   UNL     1      19.503  37.770  59.077  1.00  0.00    -0.304 OA
HETATM    4  O   UNL     1      22.445  34.642  56.111  1.00  0.00    -0.270 OA
HETATM    5  O   UNL     1      19.219  41.167  58.561  1.00  0.00    -0.270 OA
HETATM    6  O   UNL     1      19.772  34.768  58.060  1.00  0.00    -0.270 OA
HETATM    7  O   UNL     1      22.454  39.455  56.063  1.00  0.00    -0.263 OA
HETATM    8  O   UNL     1      22.788  35.320  60.039  1.00  0.00    -0.263 OA
HETATM    9  O   UNL     1      17.391  38.680  58.994  1.00  0.00    -0.263 OA
HETATM   10  N   UNL     1      24.172  35.006  57.616  1.00  0.00    -0.340 N 
HETATM   11  N   UNL     1      19.782  39.898  56.704  1.00  0.00    -0.340 N 
HETATM   12  N   UNL     1      18.594  35.435  59.944  1.00  0.00    -0.340 N 
HETATM   13  C   UNL     1      23.784  33.817  58.400  1.00  0.00     0.190 C 
HETATM   14  C   UNL     1      20.161  38.610  56.086  1.00  0.00     0.190 C 
HETATM   15  C   UNL     1      17.665  36.267  59.144  1.00  0.00     0.190 C 
HETATM   16  C   UNL     1      23.406  36.829  56.087  1.00  0.00     0.227 C 
HETATM   17  C   UNL     1      20.497  33.798  60.126  1.00  0.00     0.227 C 
HETATM   18  C   UNL     1      20.196  39.022  59.038  1.00  0.00     0.227 C 
HETATM   19  C   UNL     1      23.312  35.390  56.578  1.00  0.00     0.250 C 
HETATM   20  C   UNL     1      19.672  40.119  58.086  1.00  0.00     0.250 C 
HETATM   21  C   UNL     1      19.597  34.710  59.283  1.00  0.00     0.250 C 
HETATM   22  C   UNL     1      21.677  38.512  56.029  1.00  0.00     0.283 C 
HETATM   23  C   UNL     1      22.709  34.302  59.364  1.00  0.00     0.283 C 
HETATM   24  C   UNL     1      18.142  37.720  59.105  1.00  0.00     0.283 C 
HETATM   25  C   UNL     1      25.333  35.790  58.043  1.00  0.00     0.153 C 
HETATM   26  C   UNL     1      19.503  41.022  55.810  1.00  0.00     0.153 C 
HETATM   27  C   UNL     1      18.434  35.494  61.400  1.00  0.00     0.153 C 
ENDROOT
BRANCH  16  28
HETATM   28  C   UNL     1      24.105  36.893  54.741  1.00  0.00     0.016 C 
HETATM   29  C   UNL     1      24.693  35.532  54.374  1.00  0.00     0.012 C 
HETATM   30  C   UNL     1      25.195  37.963  54.751  1.00  0.00     0.012 C 
ENDBRANCH  16  28
BRANCH  14  31
HETATM   31  C   UNL     1      19.567  38.358  54.701  1.00  0.00     0.014 C 
HETATM   32  C   UNL     1      18.047  38.530  54.750  1.00  0.00     0.012 C 
BRANCH  31  33
HETATM   33  C   UNL     1      20.164  39.290  53.631  1.00  0.00     0.002 C 
HETATM   34  C   UNL     1      21.264  38.640  52.803  1.00  0.00     0.005 C 
ENDBRANCH  31  33
ENDBRANCH  14  31
BRANCH  13  35
HETATM   35  C   UNL     1      24.895  33.121  59.176  1.00  0.00     0.014 C 
HETATM   36  C   UNL     1      24.337  32.554  60.484  1.00  0.00     0.012 C 
BRANCH  35  37
HETATM   37  C   UNL     1      25.564  31.997  58.365  1.00  0.00     0.002 C 
HETATM   38  C   UNL     1      24.864  31.700  57.045  1.00  0.00     0.005 C 
ENDBRANCH  35  37
ENDBRANCH  13  35
BRANCH  18  39
HETATM   39  C   UNL     1      20.303  39.533  60.476  1.00  0.00     0.016 C 
HETATM   40  C   UNL     1      20.508  38.372  61.445  1.00  0.00     0.012 C 
HETATM   41  C   UNL     1      21.441  40.545  60.601  1.00  0.00     0.012 C 
ENDBRANCH  18  39
BRANCH  17  42
HETATM   42  C   UNL     1      19.765  32.507  60.464  1.00  0.00     0.016 C 
HETATM   43  C   UNL     1      20.280  31.922  61.779  1.00  0.00     0.012 C 
HETATM   44  C   UNL     1      19.913  31.490  59.333  1.00  0.00     0.012 C 
ENDBRANCH  17  42
BRANCH  15  45
HETATM   45  C   UNL     1      16.212  36.168  59.604  1.00  0.00     0.014 C 
HETATM   46  C   UNL     1      15.270  36.464  58.431  1.00  0.00     0.012 C 
BRANCH  45  47
HETATM   47  C   UNL     1      15.874  34.789  60.203  1.00  0.00     0.002 C 
HETATM   48  C   UNL     1      14.454  34.693  60.740  1.00  0.00     0.005 C 
ENDBRANCH  45  47
ENDBRANCH  15  45
TORSDOF 9
ENDMDL
MODEL 16
REMARK VINA RESULT:    -4.150      5.858     11.710
REMARK INTER + INTRA:          -5.987
REMARK INTER:                  -6.277
REMARK INTRA:                   0.290
REMARK UNBOUND:                 0.346
REMARK  9 active torsions:
REMARK  status: ('A' for Active; 'I' for Inactive)
REMARK    1  A    between atoms: C_13  and  C_16 
REMARK    2  A    between atoms: C_14  and  C_17 
REMARK    3  A    between atoms: C_15  and  C_18 
REMARK    4  A    between atoms: C_16  and  C_22 
REMARK    5  A    between atoms: C_17  and  C_23 
REMARK    6  A    between atoms: C_18  and  C_24 
REMARK    7  A    between atoms: C_19  and  C_25 
REMARK    8  A    between atoms: C_20  and  C_26 
REMARK    9  A    between atoms: C_21  and  C_27 
ROOT
HETATM    1  O   UNL     1      17.572  43.512  57.331  1.00  0.00    -0.304 OA
HETATM    2  O   UNL     1      18.182  48.427  58.446  1.00  0.00    -0.304 OA
HETATM    3  O   UNL     1      21.324  45.022  57.033  1.00  0.00    -0.304 OA
HETATM    4  O   UNL     1      16.166  45.686  57.476  1.00  0.00    -0.270 OA
HETATM    5  O   UNL     1      22.842  41.929  56.916  1.00  0.00    -0.270 OA
HETATM    6  O   UNL     1      18.965  47.044  56.345  1.00  0.00    -0.270 OA
HETATM    7  O   UNL     1      18.567  41.551  58.024  1.00  0.00    -0.263 OA
HETATM    8  O   UNL     1      19.017  46.930  59.993  1.00  0.00    -0.263 OA
HETATM    9  O   UNL     1      22.836  44.621  55.346  1.00  0.00    -0.263 OA
HETATM   10  N   UNL     1      16.474  45.759  59.774  1.00  0.00    -0.340 N 
HETATM   11  N   UNL     1      20.632  42.008  56.214  1.00  0.00    -0.340 N 
HETATM   12  N   UNL     1      21.210  47.613  56.480  1.00  0.00    -0.340 N 
HETATM   13  C   UNL     1      16.611  47.229  59.742  1.00  0.00     0.190 C 
HETATM   14  C   UNL     1      19.358  42.735  56.038  1.00  0.00     0.190 C 
HETATM   15  C   UNL     1      21.573  46.700  55.371  1.00  0.00     0.190 C 
HETATM   16  C   UNL     1      16.754  43.617  58.516  1.00  0.00     0.227 C 
HETATM   17  C   UNL     1      19.507  48.724  57.963  1.00  0.00     0.227 C 
HETATM   18  C   UNL     1      21.568  43.799  57.733  1.00  0.00     0.227 C 
HETATM   19  C   UNL     1      16.410  45.101  58.538  1.00  0.00     0.250 C 
HETATM   20  C   UNL     1      21.748  42.506  56.907  1.00  0.00     0.250 C 
HETATM   21  C   UNL     1      19.864  47.717  56.863  1.00  0.00     0.250 C 
HETATM   22  C   UNL     1      18.474  42.493  57.251  1.00  0.00     0.283 C 
HETATM   23  C   UNL     1      18.080  47.490  59.437  1.00  0.00     0.283 C 
HETATM   24  C   UNL     1      22.031  45.347  55.916  1.00  0.00     0.283 C 
HETATM   25  C   UNL     1      16.555  45.066  61.062  1.00  0.00     0.153 C 
HETATM   26  C   UNL     1      20.737  40.673  55.626  1.00  0.00     0.153 C 
HETATM   27  C   UNL     1      22.321  48.295  57.153  1.00  0.00     0.153 C 
ENDROOT
BRANCH  16  28
HETATM   28  C   UNL     1      15.499  42.777  58.365  1.00  0.00     0.016 C 
HETATM   29  C   UNL     1      14.266  43.668  58.237  1.00  0.00     0.012 C 
HETATM   30  C   UNL     1      15.347  41.818  59.545  1.00  0.00     0.012 C 
ENDBRANCH  16  28
BRANCH  14  31
HETATM   31  C   UNL     1      18.595  42.400  54.758  1.00  0.00     0.014 C 
HETATM   32  C   UNL     1      17.501  41.373  55.062  1.00  0.00     0.012 C 
BRANCH  31  33
HETATM   33  C   UNL     1      17.973  43.646  54.104  1.00  0.00     0.002 C 
HETATM   34  C   UNL     1      16.471  43.535  53.887  1.00  0.00     0.005 C 
ENDBRANCH  31  33
ENDBRANCH  14  31
BRANCH  13  35
HETATM   35  C   UNL     1      16.206  47.978  61.005  1.00  0.00     0.014 C 
HETATM   36  C   UNL     1      16.875  49.355  61.028  1.00  0.00     0.012 C 
BRANCH  35  37
HETATM   37  C   UNL     1      14.681  48.138  61.130  1.00  0.00     0.002 C 
HETATM   38  C   UNL     1      14.193  49.553  60.848  1.00  0.00     0.005 C 
ENDBRANCH  35  37
ENDBRANCH  13  35
BRANCH  18  39
HETATM   39  C   UNL     1      22.755  44.032  58.670  1.00  0.00     0.016 C 
HETATM   40  C   UNL     1      22.722  45.451  59.232  1.00  0.00     0.012 C 
HETATM   41  C   UNL     1      22.755  43.006  59.802  1.00  0.00     0.012 C 
ENDBRANCH  18  39
BRANCH  17  42
HETATM   42  C   UNL     1      19.468  50.133  57.390  1.00  0.00     0.016 C 
HETATM   43  C   UNL     1      19.305  51.165  58.505  1.00  0.00     0.012 C 
HETATM   44  C   UNL     1      18.341  50.270  56.367  1.00  0.00     0.012 C 
ENDBRANCH  17  42
BRANCH  15  45
HETATM   45  C   UNL     1      22.599  47.293  54.408  1.00  0.00     0.014 C 
HETATM   46  C   UNL     1      22.602  46.503  53.094  1.00  0.00     0.012 C 
BRANCH  45  47
HETATM   47  C   UNL     1      22.343  48.784  54.114  1.00  0.00     0.002 C 
HETATM   48  C   UNL     1      22.590  49.167  52.663  1.00  0.00     0.005 C 
ENDBRANCH  45  47
ENDBRANCH  15  45
TORSDOF 9
ENDMDL
MODEL 17
REMARK VINA RESULT:    -4.127      2.633      6.606
REMARK INTER + INTRA:          -5.952
REMARK INTER:                  -6.876
REMARK INTRA:                   0.924
REMARK UNBOUND:                 0.346
REMARK  9 active torsions:
REMARK  status: ('A' for Active; 'I' for Inactive)
REMARK    1  A    between atoms: C_13  and  C_16 
REMARK    2  A    between atoms: C_14  and  C_17 
REMARK    3  A    between atoms: C_15  and  C_18 
REMARK    4  A    between atoms: C_16  and  C_22 
REMARK    5  A    between atoms: C_17  and  C_23 
REMARK    6  A    between atoms: C_18  and  C_24 
REMARK    7  A    between atoms: C_19  and  C_25 
REMARK    8  A    between atoms: C_20  and  C_26 
REMARK    9  A    between atoms: C_21  and  C_27 
ROOT
HETATM    1  O   UNL     1      19.226  40.479  56.519  1.00  0.00    -0.304 OA
HETATM    2  O   UNL     1      24.275  40.958  56.301  1.00  0.00    -0.304 OA
HETATM    3  O   UNL     1      21.438  37.382  57.921  1.00  0.00    -0.304 OA
HETATM    4  O   UNL     1      21.020  41.831  55.224  1.00  0.00    -0.270 OA
HETATM    5  O   UNL     1      18.796  35.899  59.566  1.00  0.00    -0.270 OA
HETATM    6  O   UNL     1      22.710  38.998  55.494  1.00  0.00    -0.270 OA
HETATM    7  O   UNL     1      17.710  39.965  58.179  1.00  0.00    -0.263 OA
HETATM    8  O   UNL     1      23.337  41.108  58.405  1.00  0.00    -0.263 OA
HETATM    9  O   UNL     1      21.054  35.143  57.555  1.00  0.00    -0.263 OA
HETATM   10  N   UNL     1      21.614  42.948  57.169  1.00  0.00    -0.340 N 
HETATM   11  N   UNL     1      18.244  37.264  57.774  1.00  0.00    -0.340 N 
HETATM   12  N   UNL     1      23.777  37.309  56.675  1.00  0.00    -0.340 N 
HETATM   13  C   UNL     1      23.042  42.912  56.794  1.00  0.00     0.190 C 
HETATM   14  C   UNL     1      18.622  38.229  56.721  1.00  0.00     0.190 C 
HETATM   15  C   UNL     1      22.765  36.305  56.273  1.00  0.00     0.190 C 
HETATM   16  C   UNL     1      19.381  41.844  56.962  1.00  0.00     0.227 C 
HETATM   17  C   UNL     1      24.755  39.626  56.570  1.00  0.00     0.227 C 
HETATM   18  C   UNL     1      20.462  37.523  58.958  1.00  0.00     0.227 C 
HETATM   19  C   UNL     1      20.726  42.226  56.359  1.00  0.00     0.250 C 
HETATM   20  C   UNL     1      19.104  36.809  58.787  1.00  0.00     0.250 C 
HETATM   21  C   UNL     1      23.655  38.624  56.200  1.00  0.00     0.250 C 
HETATM   22  C   UNL     1      18.436  39.642  57.251  1.00  0.00     0.283 C 
HETATM   23  C   UNL     1      23.555  41.567  57.291  1.00  0.00     0.283 C 
HETATM   24  C   UNL     1      21.683  36.173  57.345  1.00  0.00     0.283 C 
HETATM   25  C   UNL     1      21.226  43.602  58.421  1.00  0.00     0.153 C 
HETATM   26  C   UNL     1      16.875  36.748  57.759  1.00  0.00     0.153 C 
HETATM   27  C   UNL     1      24.807  36.858  57.616  1.00  0.00     0.153 C 
ENDROOT
BRANCH  16  28
HETATM   28  C   UNL     1      18.271  42.710  56.395  1.00  0.00     0.016 C 
HETATM   29  C   UNL     1      17.320  43.161  57.502  1.00  0.00     0.012 C 
HETATM   30  C   UNL     1      17.506  41.961  55.305  1.00  0.00     0.012 C 
ENDBRANCH  16  28
BRANCH  14  31
HETATM   31  C   UNL     1      17.880  38.064  55.396  1.00  0.00     0.014 C 
HETATM   32  C   UNL     1      18.735  38.612  54.252  1.00  0.00     0.012 C 
BRANCH  31  33
HETATM   33  C   UNL     1      17.506  36.599  55.113  1.00  0.00     0.002 C 
HETATM   34  C   UNL     1      16.472  36.436  54.009  1.00  0.00     0.005 C 
ENDBRANCH  31  33
ENDBRANCH  14  31
BRANCH  13  35
HETATM   35  C   UNL     1      23.917  44.031  57.339  1.00  0.00     0.014 C 
HETATM   36  C   UNL     1      25.367  43.550  57.447  1.00  0.00     0.012 C 
BRANCH  35  37
HETATM   37  C   UNL     1      23.854  45.303  56.475  1.00  0.00     0.002 C 
HETATM   38  C   UNL     1      23.538  45.027  55.010  1.00  0.00     0.005 C 
ENDBRANCH  35  37
ENDBRANCH  13  35
BRANCH  18  39
HETATM   39  C   UNL     1      21.133  37.139  60.278  1.00  0.00     0.016 C 
HETATM   40  C   UNL     1      22.595  37.580  60.285  1.00  0.00     0.012 C 
HETATM   41  C   UNL     1      20.382  37.750  61.460  1.00  0.00     0.012 C 
ENDBRANCH  18  39
BRANCH  17  42
HETATM   42  C   UNL     1      25.979  39.407  55.692  1.00  0.00     0.016 C 
HETATM   43  C   UNL     1      27.196  40.127  56.272  1.00  0.00     0.012 C 
HETATM   44  C   UNL     1      25.710  39.878  54.263  1.00  0.00     0.012 C 
ENDBRANCH  17  42
BRANCH  15  45
HETATM   45  C   UNL     1      23.367  34.947  55.916  1.00  0.00     0.014 C 
HETATM   46  C   UNL     1      22.256  33.972  55.509  1.00  0.00     0.012 C 
BRANCH  45  47
HETATM   47  C   UNL     1      24.411  35.041  54.787  1.00  0.00     0.002 C 
HETATM   48  C   UNL     1      25.363  33.856  54.741  1.00  0.00     0.005 C 
ENDBRANCH  45  47
ENDBRANCH  15  45
TORSDOF 9
ENDMDL
MODEL 18
REMARK VINA RESULT:    -4.043      2.558      7.411
REMARK INTER + INTRA:          -5.824
REMARK INTER:                  -6.287
REMARK INTRA:                   0.463
REMARK UNBOUND:                 0.346
REMARK  9 active torsions:
REMARK  status: ('A' for Active; 'I' for Inactive)
REMARK    1  A    between atoms: C_13  and  C_16 
REMARK    2  A    between atoms: C_14  and  C_17 
REMARK    3  A    between atoms: C_15  and  C_18 
REMARK    4  A    between atoms: C_16  and  C_22 
REMARK    5  A    between atoms: C_17  and  C_23 
REMARK    6  A    between atoms: C_18  and  C_24 
REMARK    7  A    between atoms: C_19  and  C_25 
REMARK    8  A    between atoms: C_20  and  C_26 
REMARK    9  A    between atoms: C_21  and  C_27 
ROOT
HETATM    1  O   UNL     1      23.531  40.132  58.903  1.00  0.00    -0.304 OA
HETATM    2  O   UNL     1      19.783  36.709  58.950  1.00  0.00    -0.304 OA
HETATM    3  O   UNL     1      23.569  37.312  55.989  1.00  0.00    -0.304 OA
HETATM    4  O   UNL     1      21.811  39.121  60.558  1.00  0.00    -0.270 OA
HETATM    5  O   UNL     1      25.854  38.991  54.029  1.00  0.00    -0.270 OA
HETATM    6  O   UNL     1      22.392  36.381  58.795  1.00  0.00    -0.270 OA
HETATM    7  O   UNL     1      24.400  41.573  57.325  1.00  0.00    -0.263 OA
HETATM    8  O   UNL     1      19.682  38.293  57.273  1.00  0.00    -0.263 OA
HETATM    9  O   UNL     1      25.402  36.149  55.226  1.00  0.00    -0.263 OA
HETATM   10  N   UNL     1      20.068  40.105  59.383  1.00  0.00    -0.340 N 
HETATM   11  N   UNL     1      25.909  39.471  56.298  1.00  0.00    -0.340 N 
HETATM   12  N   UNL     1      22.380  35.106  56.856  1.00  0.00    -0.340 N 
HETATM   13  C   UNL     1      19.218  38.914  59.583  1.00  0.00     0.190 C 
HETATM   14  C   UNL     1      25.348  39.345  57.659  1.00  0.00     0.190 C 
HETATM   15  C   UNL     1      23.860  35.092  56.782  1.00  0.00     0.190 C 
HETATM   16  C   UNL     1      22.400  40.984  59.183  1.00  0.00     0.227 C 
HETATM   17  C   UNL     1      20.231  35.702  58.021  1.00  0.00     0.227 C 
HETATM   18  C   UNL     1      23.832  38.498  55.235  1.00  0.00     0.227 C 
HETATM   19  C   UNL     1      21.406  40.005  59.794  1.00  0.00     0.250 C 
HETATM   20  C   UNL     1      25.292  38.991  55.131  1.00  0.00     0.250 C 
HETATM   21  C   UNL     1      21.760  35.766  57.928  1.00  0.00     0.250 C 
HETATM   22  C   UNL     1      24.395  40.502  57.914  1.00  0.00     0.283 C 
HETATM   23  C   UNL     1      19.580  37.965  58.448  1.00  0.00     0.283 C 
HETATM   24  C   UNL     1      24.363  36.211  55.871  1.00  0.00     0.283 C 
HETATM   25  C   UNL     1      19.524  41.251  58.653  1.00  0.00     0.153 C 
HETATM   26  C   UNL     1      27.199  40.147  56.157  1.00  0.00     0.153 C 
HETATM   27  C   UNL     1      21.665  34.477  55.741  1.00  0.00     0.153 C 
ENDROOT
BRANCH  16  28
HETATM   28  C   UNL     1      22.785  42.056  60.186  1.00  0.00     0.016 C 
HETATM   29  C   UNL     1      21.962  41.917  61.466  1.00  0.00     0.012 C 
HETATM   30  C   UNL     1      22.605  43.448  59.583  1.00  0.00     0.012 C 
ENDBRANCH  16  28
BRANCH  14  31
HETATM   31  C   UNL     1      26.382  39.261  58.779  1.00  0.00     0.014 C 
HETATM   32  C   UNL     1      26.347  40.544  59.613  1.00  0.00     0.012 C 
BRANCH  31  33
HETATM   33  C   UNL     1      26.161  38.041  59.690  1.00  0.00     0.002 C 
HETATM   34  C   UNL     1      27.421  37.584  60.412  1.00  0.00     0.005 C 
ENDBRANCH  31  33
ENDBRANCH  14  31
BRANCH  13  35
HETATM   35  C   UNL     1      17.713  39.148  59.600  1.00  0.00     0.014 C 
HETATM   36  C   UNL     1      16.982  37.843  59.274  1.00  0.00     0.012 C 
BRANCH  35  37
HETATM   37  C   UNL     1      17.218  39.699  60.948  1.00  0.00     0.002 C 
HETATM   38  C   UNL     1      16.017  38.949  61.508  1.00  0.00     0.005 C 
ENDBRANCH  35  37
ENDBRANCH  13  35
BRANCH  18  39
HETATM   39  C   UNL     1      23.205  38.314  53.852  1.00  0.00     0.016 C 
HETATM   40  C   UNL     1      21.978  37.410  53.936  1.00  0.00     0.012 C 
HETATM   41  C   UNL     1      22.835  39.666  53.246  1.00  0.00     0.012 C 
ENDBRANCH  18  39
BRANCH  17  42
HETATM   42  C   UNL     1      19.796  34.354  58.581  1.00  0.00     0.016 C 
HETATM   43  C   UNL     1      18.442  34.471  59.280  1.00  0.00     0.012 C 
HETATM   44  C   UNL     1      20.849  33.804  59.543  1.00  0.00     0.012 C 
ENDBRANCH  17  42
BRANCH  15  45
HETATM   45  C   UNL     1      24.434  33.737  56.375  1.00  0.00     0.014 C 
HETATM   46  C   UNL     1      25.944  33.706  56.640  1.00  0.00     0.012 C 
BRANCH  45  47
HETATM   47  C   UNL     1      23.757  32.562  57.105  1.00  0.00     0.002 C 
HETATM   48  C   UNL     1      23.648  31.303  56.259  1.00  0.00     0.005 C 
ENDBRANCH  45  47
ENDBRANCH  15  45
TORSDOF 9
ENDMDL
MODEL 19
REMARK VINA RESULT:    -3.957     20.190     24.435
REMARK INTER + INTRA:          -5.692
REMARK INTER:                  -5.961
REMARK INTRA:                   0.269
REMARK UNBOUND:                 0.346
REMARK  9 active torsions:
REMARK  status: ('A' for Active; 'I' for Inactive)
REMARK    1  A    between atoms: C_13  and  C_16 
REMARK    2  A    between atoms: C_14  and  C_17 
REMARK    3  A    between atoms: C_15  and  C_18 
REMARK    4  A    between atoms: C_16  and  C_22 
REMARK    5  A    between atoms: C_17  and  C_23 
REMARK    6  A    between atoms: C_18  and  C_24 
REMARK    7  A    between atoms: C_19  and  C_25 
REMARK    8  A    between atoms: C_20  and  C_26 
REMARK    9  A    between atoms: C_21  and  C_27 
ROOT
HETATM    1  O   UNL     1       9.411  56.639  54.551  1.00  0.00    -0.304 OA
HETATM    2  O   UNL     1       5.105  57.893  52.173  1.00  0.00    -0.304 OA
HETATM    3  O   UNL     1       6.029  54.735  55.727  1.00  0.00    -0.304 OA
HETATM    4  O   UNL     1       8.428  58.595  53.163  1.00  0.00    -0.270 OA
HETATM    5  O   UNL     1       7.706  52.259  57.443  1.00  0.00    -0.270 OA
HETATM    6  O   UNL     1       5.651  57.737  54.745  1.00  0.00    -0.270 OA
HETATM    7  O   UNL     1      10.510  54.659  54.990  1.00  0.00    -0.263 OA
HETATM    8  O   UNL     1       5.973  55.816  51.659  1.00  0.00    -0.263 OA
HETATM    9  O   UNL     1       5.384  54.289  57.890  1.00  0.00    -0.263 OA
HETATM   10  N   UNL     1       8.357  57.249  51.274  1.00  0.00    -0.340 N 
HETATM   11  N   UNL     1       8.839  54.265  57.181  1.00  0.00    -0.340 N 
HETATM   12  N   UNL     1       3.923  56.287  55.291  1.00  0.00    -0.340 N 
HETATM   13  C   UNL     1       7.069  57.841  50.860  1.00  0.00     0.190 C 
HETATM   14  C   UNL     1       8.948  55.622  56.605  1.00  0.00     0.190 C 
HETATM   15  C   UNL     1       4.391  56.159  56.691  1.00  0.00     0.190 C 
HETATM   16  C   UNL     1       9.870  56.691  53.183  1.00  0.00     0.227 C 
HETATM   17  C   UNL     1       4.078  57.301  52.993  1.00  0.00     0.227 C 
HETATM   18  C   UNL     1       6.946  53.641  55.627  1.00  0.00     0.227 C 
HETATM   19  C   UNL     1       8.847  57.614  52.536  1.00  0.00     0.250 C 
HETATM   20  C   UNL     1       7.848  53.330  56.841  1.00  0.00     0.250 C 
HETATM   21  C   UNL     1       4.626  57.128  54.415  1.00  0.00     0.250 C 
HETATM   22  C   UNL     1       9.733  55.549  55.305  1.00  0.00     0.283 C 
HETATM   23  C   UNL     1       6.002  57.039  51.594  1.00  0.00     0.283 C 
HETATM   24  C   UNL     1       5.282  54.927  56.850  1.00  0.00     0.283 C 
HETATM   25  C   UNL     1       8.972  56.225  50.427  1.00  0.00     0.153 C 
HETATM   26  C   UNL     1       9.836  53.870  58.176  1.00  0.00     0.153 C 
HETATM   27  C   UNL     1       2.783  55.450  54.904  1.00  0.00     0.153 C 
ENDROOT
BRANCH  16  28
HETATM   28  C   UNL     1      11.260  57.299  53.119  1.00  0.00     0.016 C 
HETATM   29  C   UNL     1      11.251  58.573  52.277  1.00  0.00     0.012 C 
HETATM   30  C   UNL     1      12.263  56.293  52.557  1.00  0.00     0.012 C 
ENDBRANCH  16  28
BRANCH  14  31
HETATM   31  C   UNL     1       9.564  56.669  57.531  1.00  0.00     0.014 C 
HETATM   32  C   UNL     1      10.943  57.078  57.005  1.00  0.00     0.012 C 
BRANCH  31  33
HETATM   33  C   UNL     1       8.673  57.914  57.681  1.00  0.00     0.002 C 
HETATM   34  C   UNL     1       7.423  57.672  58.514  1.00  0.00     0.005 C 
ENDBRANCH  31  33
ENDBRANCH  14  31
BRANCH  13  35
HETATM   35  C   UNL     1       6.772  57.848  49.367  1.00  0.00     0.014 C 
HETATM   36  C   UNL     1       5.300  58.202  49.133  1.00  0.00     0.012 C 
BRANCH  35  37
HETATM   37  C   UNL     1       7.672  58.827  48.592  1.00  0.00     0.002 C 
HETATM   38  C   UNL     1       8.103  58.307  47.228  1.00  0.00     0.005 C 
ENDBRANCH  35  37
ENDBRANCH  13  35
BRANCH  18  39
HETATM   39  C   UNL     1       6.150  52.410  55.192  1.00  0.00     0.016 C 
HETATM   40  C   UNL     1       4.771  52.816  54.679  1.00  0.00     0.012 C 
HETATM   41  C   UNL     1       6.912  51.629  54.123  1.00  0.00     0.012 C 
ENDBRANCH  18  39
BRANCH  17  42
HETATM   42  C   UNL     1       2.901  58.266  52.999  1.00  0.00     0.016 C 
HETATM   43  C   UNL     1       2.219  58.295  51.631  1.00  0.00     0.012 C 
HETATM   44  C   UNL     1       3.354  59.669  53.400  1.00  0.00     0.012 C 
ENDBRANCH  17  42
BRANCH  15  45
HETATM   45  C   UNL     1       3.255  56.163  57.713  1.00  0.00     0.014 C 
HETATM   46  C   UNL     1       3.809  56.460  59.111  1.00  0.00     0.012 C 
BRANCH  45  47
HETATM   47  C   UNL     1       2.152  57.182  57.367  1.00  0.00     0.002 C 
HETATM   48  C   UNL     1       1.226  57.492  58.533  1.00  0.00     0.005 C 
ENDBRANCH  45  47
ENDBRANCH  15  45
TORSDOF 9
ENDMDL
MODEL 20
REMARK VINA RESULT:    -3.789      4.529      9.527
REMARK INTER + INTRA:          -5.436
REMARK INTER:                  -6.062
REMARK INTRA:                   0.626
REMARK UNBOUND:                 0.346
REMARK  9 active torsions:
REMARK  status: ('A' for Active; 'I' for Inactive)
REMARK    1  A    between atoms: C_13  and  C_16 
REMARK    2  A    between atoms: C_14  and  C_17 
REMARK    3  A    between atoms: C_15  and  C_18 
REMARK    4  A    between atoms: C_16  and  C_22 
REMARK    5  A    between atoms: C_17  and  C_23 
REMARK    6  A    between atoms: C_18  and  C_24 
REMARK    7  A    between atoms: C_19  and  C_25 
REMARK    8  A    between atoms: C_20  and  C_26 
REMARK    9  A    between atoms: C_21  and  C_27 
ROOT
HETATM    1  O   UNL     1      24.068  39.834  55.661  1.00  0.00    -0.304 OA
HETATM    2  O   UNL     1      20.446  43.377  55.352  1.00  0.00    -0.304 OA
HETATM    3  O   UNL     1      24.491  43.117  58.004  1.00  0.00    -0.304 OA
HETATM    4  O   UNL     1      22.222  40.623  54.020  1.00  0.00    -0.270 OA
HETATM    5  O   UNL     1      26.908  41.695  60.010  1.00  0.00    -0.270 OA
HETATM    6  O   UNL     1      23.066  43.598  55.200  1.00  0.00    -0.270 OA
HETATM    7  O   UNL     1      25.045  38.651  57.383  1.00  0.00    -0.263 OA
HETATM    8  O   UNL     1      20.464  42.119  57.288  1.00  0.00    -0.263 OA
HETATM    9  O   UNL     1      26.428  44.302  58.371  1.00  0.00    -0.263 OA
HETATM   10  N   UNL     1      20.576  39.949  55.510  1.00  0.00    -0.340 N 
HETATM   11  N   UNL     1      26.717  40.823  57.870  1.00  0.00    -0.340 N 
HETATM   12  N   UNL     1      23.292  45.192  56.871  1.00  0.00    -0.340 N 
HETATM   13  C   UNL     1      19.749  41.126  55.181  1.00  0.00     0.190 C 
HETATM   14  C   UNL     1      26.025  40.737  56.567  1.00  0.00     0.190 C 
HETATM   15  C   UNL     1      24.771  45.145  56.802  1.00  0.00     0.190 C 
HETATM   16  C   UNL     1      22.887  39.003  55.645  1.00  0.00     0.227 C 
HETATM   17  C   UNL     1      21.017  44.509  56.039  1.00  0.00     0.227 C 
HETATM   18  C   UNL     1      24.791  42.069  58.931  1.00  0.00     0.227 C 
HETATM   19  C   UNL     1      21.868  39.908  54.965  1.00  0.00     0.250 C 
HETATM   20  C   UNL     1      26.237  41.531  58.984  1.00  0.00     0.250 C 
HETATM   21  C   UNL     1      22.545  44.386  55.998  1.00  0.00     0.250 C 
HETATM   22  C   UNL     1      25.015  39.601  56.614  1.00  0.00     0.283 C 
HETATM   23  C   UNL     1      20.254  42.241  56.088  1.00  0.00     0.283 C 
HETATM   24  C   UNL     1      25.328  44.180  57.848  1.00  0.00     0.283 C 
HETATM   25  C   UNL     1      20.073  38.976  56.482  1.00  0.00     0.153 C 
HETATM   26  C   UNL     1      27.992  40.119  58.007  1.00  0.00     0.153 C 
HETATM   27  C   UNL     1      22.714  46.042  57.917  1.00  0.00     0.153 C 
ENDROOT
BRANCH  16  28
HETATM   28  C   UNL     1      23.133  37.754  54.819  1.00  0.00     0.016 C 
HETATM   29  C   UNL     1      22.205  37.718  53.607  1.00  0.00     0.012 C 
HETATM   30  C   UNL     1      22.950  36.499  55.671  1.00  0.00     0.012 C 
ENDBRANCH  16  28
BRANCH  14  31
HETATM   31  C   UNL     1      26.943  40.571  55.357  1.00  0.00     0.014 C 
HETATM   32  C   UNL     1      26.640  39.245  54.656  1.00  0.00     0.012 C 
BRANCH  31  33
HETATM   33  C   UNL     1      26.810  41.733  54.358  1.00  0.00     0.002 C 
HETATM   34  C   UNL     1      27.316  43.062  54.898  1.00  0.00     0.005 C 
ENDBRANCH  31  33
ENDBRANCH  14  31
BRANCH  13  35
HETATM   35  C   UNL     1      18.244  40.968  55.348  1.00  0.00     0.014 C 
HETATM   36  C   UNL     1      17.713  42.040  56.304  1.00  0.00     0.012 C 
BRANCH  35  37
HETATM   37  C   UNL     1      17.491  41.047  54.008  1.00  0.00     0.002 C 
HETATM   38  C   UNL     1      17.116  42.467  53.604  1.00  0.00     0.005 C 
ENDBRANCH  35  37
ENDBRANCH  13  35
BRANCH  18  39
HETATM   39  C   UNL     1      24.313  42.524  60.311  1.00  0.00     0.016 C 
HETATM   40  C   UNL     1      23.019  43.325  60.194  1.00  0.00     0.012 C 
HETATM   41  C   UNL     1      24.119  41.323  61.235  1.00  0.00     0.012 C 
ENDBRANCH  18  39
BRANCH  17  42
HETATM   42  C   UNL     1      20.572  45.757  55.290  1.00  0.00     0.016 C 
HETATM   43  C   UNL     1      19.757  46.673  56.202  1.00  0.00     0.012 C 
HETATM   44  C   UNL     1      19.762  45.382  54.049  1.00  0.00     0.012 C 
ENDBRANCH  17  42
BRANCH  15  45
HETATM   45  C   UNL     1      25.427  46.521  56.904  1.00  0.00     0.014 C 
HETATM   46  C   UNL     1      24.974  47.406  55.738  1.00  0.00     0.012 C 
BRANCH  45  47
HETATM   47  C   UNL     1      25.119  47.226  58.239  1.00  0.00     0.002 C 
HETATM   48  C   UNL     1      25.452  48.710  58.231  1.00  0.00     0.005 C 
ENDBRANCH  45  47
ENDBRANCH  15  45
TORSDOF 9
ENDMDL
