MODEL 1
REMARK VINA RESULT:    -6.381      0.000      0.000
REMARK INTER + INTRA:          -9.085
REMARK INTER:                  -9.738
REMARK INTRA:                   0.653
REMARK UNBOUND:                 0.653
REMARK  9 active torsions:
REMARK  status: ('A' for Active; 'I' for Inactive)
REMARK    1  A    between atoms: C_13  and  C_16 
REMARK    2  A    between atoms: C_14  and  C_17 
REMARK    3  A    between atoms: C_15  and  C_18 
REMARK    4  A    between atoms: C_16  and  C_22 
REMARK    5  A    between atoms: C_17  and  C_23 
REMARK    6  A    between atoms: C_18  and  C_24 
REMARK    7  A    between atoms: C_19  and  C_25 
REMARK    8  A    between atoms: C_20  and  C_26 
REMARK    9  A    between atoms: C_21  and  C_27 
ROOT
HETATM    1  O   UNL     1      40.314  50.313  32.040  1.00  0.00    -0.304 OA
HETATM    2  O   UNL     1      41.378  52.525  27.596  1.00  0.00    -0.304 OA
HETATM    3  O   UNL     1      43.986  51.990  31.643  1.00  0.00    -0.304 OA
HETATM    4  O   UNL     1      39.521  50.254  29.572  1.00  0.00    -0.270 OA
HETATM    5  O   UNL     1      44.662  51.941  35.023  1.00  0.00    -0.270 OA
HETATM    6  O   UNL     1      42.740  50.752  28.989  1.00  0.00    -0.270 OA
HETATM    7  O   UNL     1      40.408  50.971  34.249  1.00  0.00    -0.263 OA
HETATM    8  O   UNL     1      41.031  53.953  29.377  1.00  0.00    -0.263 OA
HETATM    9  O   UNL     1      45.988  51.091  32.334  1.00  0.00    -0.263 OA
HETATM   10  N   UNL     1      38.710  52.420  29.757  1.00  0.00    -0.340 N 
HETATM   11  N   UNL     1      43.126  50.376  34.268  1.00  0.00    -0.340 N 
HETATM   12  N   UNL     1      44.716  51.964  29.094  1.00  0.00    -0.340 N 
HETATM   13  C   UNL     1      39.163  52.741  28.388  1.00  0.00     0.190 C 
HETATM   14  C   UNL     1      42.282  49.807  33.197  1.00  0.00     0.190 C 
HETATM   15  C   UNL     1      45.351  50.970  29.989  1.00  0.00     0.190 C 
HETATM   16  C   UNL     1      39.078  51.017  31.793  1.00  0.00     0.227 C 
HETATM   17  C   UNL     1      42.803  52.739  27.655  1.00  0.00     0.227 C 
HETATM   18  C   UNL     1      43.595  52.470  32.933  1.00  0.00     0.227 C 
HETATM   19  C   UNL     1      39.098  51.177  30.278  1.00  0.00     0.250 C 
HETATM   20  C   UNL     1      43.859  51.569  34.159  1.00  0.00     0.250 C 
HETATM   21  C   UNL     1      43.409  51.732  28.639  1.00  0.00     0.250 C 
HETATM   22  C   UNL     1      40.900  50.437  33.265  1.00  0.00     0.283 C 
HETATM   23  C   UNL     1      40.618  53.166  28.535  1.00  0.00     0.283 C 
HETATM   24  C   UNL     1      45.190  51.382  31.453  1.00  0.00     0.283 C 
HETATM   25  C   UNL     1      38.018  53.449  30.535  1.00  0.00     0.153 C 
HETATM   26  C   UNL     1      43.203  49.642  35.532  1.00  0.00     0.153 C 
HETATM   27  C   UNL     1      45.493  53.174  28.806  1.00  0.00     0.153 C 
ENDROOT
BRANCH  16  28
HETATM   28  C   UNL     1      37.896  50.170  32.228  1.00  0.00     0.016 C 
HETATM   29  C   UNL     1      36.953  49.916  31.053  1.00  0.00     0.012 C 
HETATM   30  C   UNL     1      37.148  50.841  33.379  1.00  0.00     0.012 C 
ENDBRANCH  16  28
BRANCH  14  31
HETATM   31  C   UNL     1      42.164  48.284  33.208  1.00  0.00     0.014 C 
HETATM   32  C   UNL     1      40.949  47.854  32.382  1.00  0.00     0.012 C 
BRANCH  31  33
HETATM   33  C   UNL     1      43.431  47.595  32.671  1.00  0.00     0.002 C 
HETATM   34  C   UNL     1      43.793  48.007  31.251  1.00  0.00     0.005 C 
ENDBRANCH  31  33
ENDBRANCH  14  31
BRANCH  13  35
HETATM   35  C   UNL     1      38.382  53.819  27.649  1.00  0.00     0.014 C 
HETATM   36  C   UNL     1      39.301  55.005  27.341  1.00  0.00     0.012 C 
BRANCH  35  37
HETATM   37  C   UNL     1      37.749  53.299  26.347  1.00  0.00     0.002 C 
HETATM   38  C   UNL     1      38.691  53.349  25.151  1.00  0.00     0.005 C 
ENDBRANCH  35  37
ENDBRANCH  13  35
BRANCH  18  39
HETATM   39  C   UNL     1      44.215  53.857  33.115  1.00  0.00     0.016 C 
HETATM   40  C   UNL     1      44.236  54.613  31.789  1.00  0.00     0.012 C 
HETATM   41  C   UNL     1      43.451  54.650  34.173  1.00  0.00     0.012 C 
ENDBRANCH  18  39
BRANCH  17  42
HETATM   42  C   UNL     1      43.348  52.497  26.255  1.00  0.00     0.016 C 
HETATM   43  C   UNL     1      44.147  53.706  25.769  1.00  0.00     0.012 C 
HETATM   44  C   UNL     1      42.214  52.179  25.281  1.00  0.00     0.012 C 
ENDBRANCH  17  42
BRANCH  15  45
HETATM   45  C   UNL     1      46.813  50.689  29.645  1.00  0.00     0.014 C 
HETATM   46  C   UNL     1      47.431  49.761  30.697  1.00  0.00     0.012 C 
BRANCH  45  47
HETATM   47  C   UNL     1      46.983  50.070  28.244  1.00  0.00     0.002 C 
HETATM   48  C   UNL     1      46.334  48.701  28.104  1.00  0.00     0.005 C 
ENDBRANCH  45  47
ENDBRANCH  15  45
TORSDOF 9
ENDMDL
MODEL 2
REMARK VINA RESULT:    -6.345      8.437     12.551
REMARK INTER + INTRA:          -9.030
REMARK INTER:                  -9.955
REMARK INTRA:                   0.925
REMARK UNBOUND:                 0.653
REMARK  9 active torsions:
REMARK  status: ('A' for Active; 'I' for Inactive)
REMARK    1  A    between atoms: C_13  and  C_16 
REMARK    2  A    between atoms: C_14  and  C_17 
REMARK    3  A    between atoms: C_15  and  C_18 
REMARK    4  A    between atoms: C_16  and  C_22 
REMARK    5  A    between atoms: C_17  and  C_23 
REMARK    6  A    between atoms: C_18  and  C_24 
REMARK    7  A    between atoms: C_19  and  C_25 
REMARK    8  A    between atoms: C_20  and  C_26 
REMARK    9  A    between atoms: C_21  and  C_27 
ROOT
HETATM    1  O   UNL     1      31.315  50.238  28.063  1.00  0.00    -0.304 OA
HETATM    2  O   UNL     1      28.357  51.301  24.077  1.00  0.00    -0.304 OA
HETATM    3  O   UNL     1      33.166  50.931  24.522  1.00  0.00    -0.304 OA
HETATM    4  O   UNL     1      28.861  49.913  27.292  1.00  0.00    -0.270 OA
HETATM    5  O   UNL     1      36.283  51.346  25.934  1.00  0.00    -0.270 OA
HETATM    6  O   UNL     1      30.306  49.548  24.337  1.00  0.00    -0.270 OA
HETATM    7  O   UNL     1      33.137  51.248  29.053  1.00  0.00    -0.263 OA
HETATM    8  O   UNL     1      29.564  53.071  24.938  1.00  0.00    -0.263 OA
HETATM    9  O   UNL     1      34.924  49.741  23.635  1.00  0.00    -0.263 OA
HETATM   10  N   UNL     1      28.503  52.203  27.389  1.00  0.00    -0.340 N 
HETATM   11  N   UNL     1      34.779  50.062  27.145  1.00  0.00    -0.340 N 
HETATM   12  N   UNL     1      31.554  50.276  22.521  1.00  0.00    -0.340 N 
HETATM   13  C   UNL     1      27.670  52.158  26.170  1.00  0.00     0.190 C 
HETATM   14  C   UNL     1      33.422  49.515  27.353  1.00  0.00     0.190 C 
HETATM   15  C   UNL     1      32.662  49.342  22.830  1.00  0.00     0.190 C 
HETATM   16  C   UNL     1      30.372  51.148  28.670  1.00  0.00     0.227 C 
HETATM   17  C   UNL     1      29.250  51.191  22.952  1.00  0.00     0.227 C 
HETATM   18  C   UNL     1      33.964  51.714  25.415  1.00  0.00     0.227 C 
HETATM   19  C   UNL     1      29.166  51.021  27.748  1.00  0.00     0.250 C 
HETATM   20  C   UNL     1      35.115  51.016  26.171  1.00  0.00     0.250 C 
HETATM   21  C   UNL     1      30.413  50.269  23.337  1.00  0.00     0.250 C 
HETATM   22  C   UNL     1      32.647  50.446  28.272  1.00  0.00     0.283 C 
HETATM   23  C   UNL     1      28.650  52.259  25.008  1.00  0.00     0.283 C 
HETATM   24  C   UNL     1      33.737  50.040  23.664  1.00  0.00     0.283 C 
HETATM   25  C   UNL     1      28.704  53.487  28.063  1.00  0.00     0.153 C 
HETATM   26  C   UNL     1      35.847  49.573  28.017  1.00  0.00     0.153 C 
HETATM   27  C   UNL     1      31.774  51.203  21.406  1.00  0.00     0.153 C 
ENDROOT
BRANCH  16  28
HETATM   28  C   UNL     1      30.026  50.688  30.074  1.00  0.00     0.016 C 
HETATM   29  C   UNL     1      28.534  50.382  30.189  1.00  0.00     0.012 C 
HETATM   30  C   UNL     1      30.437  51.740  31.103  1.00  0.00     0.012 C 
ENDBRANCH  16  28
BRANCH  14  31
HETATM   31  C   UNL     1      33.376  48.088  27.895  1.00  0.00     0.014 C 
HETATM   32  C   UNL     1      31.928  47.695  28.197  1.00  0.00     0.012 C 
BRANCH  31  33
HETATM   33  C   UNL     1      34.000  47.072  26.921  1.00  0.00     0.002 C 
HETATM   34  C   UNL     1      34.415  45.767  27.585  1.00  0.00     0.005 C 
ENDBRANCH  31  33
ENDBRANCH  14  31
BRANCH  13  35
HETATM   35  C   UNL     1      26.600  53.232  26.037  1.00  0.00     0.014 C 
HETATM   36  C   UNL     1      26.299  53.483  24.556  1.00  0.00     0.012 C 
BRANCH  35  37
HETATM   37  C   UNL     1      25.302  52.865  26.777  1.00  0.00     0.002 C 
HETATM   38  C   UNL     1      25.047  51.366  26.849  1.00  0.00     0.005 C 
ENDBRANCH  35  37
ENDBRANCH  13  35
BRANCH  18  39
HETATM   39  C   UNL     1      34.464  52.933  24.636  1.00  0.00     0.016 C 
HETATM   40  C   UNL     1      33.401  53.414  23.652  1.00  0.00     0.012 C 
HETATM   41  C   UNL     1      34.858  54.056  25.593  1.00  0.00     0.012 C 
ENDBRANCH  18  39
BRANCH  17  42
HETATM   42  C   UNL     1      28.454  50.580  21.808  1.00  0.00     0.016 C 
HETATM   43  C   UNL     1      28.162  51.626  20.732  1.00  0.00     0.012 C 
HETATM   44  C   UNL     1      27.152  49.967  22.323  1.00  0.00     0.012 C 
ENDBRANCH  17  42
BRANCH  15  45
HETATM   45  C   UNL     1      33.260  48.678  21.591  1.00  0.00     0.014 C 
HETATM   46  C   UNL     1      34.482  49.469  21.110  1.00  0.00     0.012 C 
BRANCH  45  47
HETATM   47  C   UNL     1      33.658  47.211  21.841  1.00  0.00     0.002 C 
HETATM   48  C   UNL     1      33.273  46.276  20.704  1.00  0.00     0.005 C 
ENDBRANCH  45  47
ENDBRANCH  15  45
TORSDOF 9
ENDMDL
MODEL 3
REMARK VINA RESULT:    -6.171      7.737     11.851
REMARK INTER + INTRA:          -8.764
REMARK INTER:                  -9.737
REMARK INTRA:                   0.973
REMARK UNBOUND:                 0.653
REMARK  9 active torsions:
REMARK  status: ('A' for Active; 'I' for Inactive)
REMARK    1  A    between atoms: C_13  and  C_16 
REMARK    2  A    between atoms: C_14  and  C_17 
REMARK    3  A    between atoms: C_15  and  C_18 
REMARK    4  A    between atoms: C_16  and  C_22 
REMARK    5  A    between atoms: C_17  and  C_23 
REMARK    6  A    between atoms: C_18  and  C_24 
REMARK    7  A    between atoms: C_19  and  C_25 
REMARK    8  A    between atoms: C_20  and  C_26 
REMARK    9  A    between atoms: C_21  and  C_27 
ROOT
HETATM    1  O   UNL     1      31.768  50.020  29.412  1.00  0.00    -0.304 OA
HETATM    2  O   UNL     1      28.747  51.448  25.592  1.00  0.00    -0.304 OA
HETATM    3  O   UNL     1      33.524  50.678  25.816  1.00  0.00    -0.304 OA
HETATM    4  O   UNL     1      29.267  49.918  28.738  1.00  0.00    -0.270 OA
HETATM    5  O   UNL     1      36.720  50.795  27.103  1.00  0.00    -0.270 OA
HETATM    6  O   UNL     1      30.556  49.537  25.714  1.00  0.00    -0.270 OA
HETATM    7  O   UNL     1      33.706  50.847  30.352  1.00  0.00    -0.263 OA
HETATM    8  O   UNL     1      30.129  53.086  26.451  1.00  0.00    -0.263 OA
HETATM    9  O   UNL     1      35.141  49.381  24.819  1.00  0.00    -0.263 OA
HETATM   10  N   UNL     1      29.101  52.226  28.919  1.00  0.00    -0.340 N 
HETATM   11  N   UNL     1      35.166  49.596  28.339  1.00  0.00    -0.340 N 
HETATM   12  N   UNL     1      31.784  50.221  23.868  1.00  0.00    -0.340 N 
HETATM   13  C   UNL     1      28.219  52.287  27.736  1.00  0.00     0.190 C 
HETATM   14  C   UNL     1      33.779  49.154  28.590  1.00  0.00     0.190 C 
HETATM   15  C   UNL     1      32.824  49.192  24.101  1.00  0.00     0.190 C 
HETATM   16  C   UNL     1      30.929  50.982  30.086  1.00  0.00     0.227 C 
HETATM   17  C   UNL     1      29.582  51.304  24.425  1.00  0.00     0.227 C 
HETATM   18  C   UNL     1      34.419  51.365  26.696  1.00  0.00     0.227 C 
HETATM   19  C   UNL     1      29.680  50.983  29.214  1.00  0.00     0.250 C 
HETATM   20  C   UNL     1      35.539  50.552  27.381  1.00  0.00     0.250 C 
HETATM   21  C   UNL     1      30.680  50.280  24.733  1.00  0.00     0.250 C 
HETATM   22  C   UNL     1      33.120  50.113  29.569  1.00  0.00     0.283 C 
HETATM   23  C   UNL     1      29.155  52.348  26.537  1.00  0.00     0.283 C 
HETATM   24  C   UNL     1      33.985  49.774  24.909  1.00  0.00     0.283 C 
HETATM   25  C   UNL     1      29.434  53.466  29.622  1.00  0.00     0.153 C 
HETATM   26  C   UNL     1      36.226  48.994  29.149  1.00  0.00     0.153 C 
HETATM   27  C   UNL     1      32.032  51.164  22.773  1.00  0.00     0.153 C 
ENDROOT
BRANCH  16  28
HETATM   28  C   UNL     1      30.604  50.505  31.490  1.00  0.00     0.016 C 
HETATM   29  C   UNL     1      29.093  50.420  31.694  1.00  0.00     0.012 C 
HETATM   30  C   UNL     1      31.235  51.427  32.532  1.00  0.00     0.012 C 
ENDBRANCH  16  28
BRANCH  14  31
HETATM   31  C   UNL     1      33.639  47.717  29.090  1.00  0.00     0.014 C 
HETATM   32  C   UNL     1      32.733  47.685  30.324  1.00  0.00     0.012 C 
BRANCH  31  33
HETATM   33  C   UNL     1      33.084  46.773  28.010  1.00  0.00     0.002 C 
HETATM   34  C   UNL     1      33.942  45.537  27.782  1.00  0.00     0.005 C 
ENDBRANCH  31  33
ENDBRANCH  14  31
BRANCH  13  35
HETATM   35  C   UNL     1      27.235  53.448  27.681  1.00  0.00     0.014 C 
HETATM   36  C   UNL     1      26.832  53.719  26.229  1.00  0.00     0.012 C 
BRANCH  35  37
HETATM   37  C   UNL     1      25.978  53.195  28.532  1.00  0.00     0.002 C 
HETATM   38  C   UNL     1      25.553  51.733  28.568  1.00  0.00     0.005 C 
ENDBRANCH  35  37
ENDBRANCH  13  35
BRANCH  18  39
HETATM   39  C   UNL     1      34.985  52.565  25.933  1.00  0.00     0.016 C 
HETATM   40  C   UNL     1      33.957  53.102  24.940  1.00  0.00     0.012 C 
HETATM   41  C   UNL     1      35.419  53.661  26.904  1.00  0.00     0.012 C 
ENDBRANCH  18  39
BRANCH  17  42
HETATM   42  C   UNL     1      28.692  50.797  23.299  1.00  0.00     0.016 C 
HETATM   43  C   UNL     1      28.875  51.646  22.042  1.00  0.00     0.012 C 
HETATM   44  C   UNL     1      27.226  50.791  23.731  1.00  0.00     0.012 C 
ENDBRANCH  17  42
BRANCH  15  45
HETATM   45  C   UNL     1      33.314  48.523  22.818  1.00  0.00     0.014 C 
HETATM   46  C   UNL     1      32.157  47.784  22.138  1.00  0.00     0.012 C 
BRANCH  45  47
HETATM   47  C   UNL     1      33.940  49.526  21.830  1.00  0.00     0.002 C 
HETATM   48  C   UNL     1      33.904  49.054  20.384  1.00  0.00     0.005 C 
ENDBRANCH  45  47
ENDBRANCH  15  45
TORSDOF 9
ENDMDL
MODEL 4
REMARK VINA RESULT:    -6.099      4.693      9.991
REMARK INTER + INTRA:          -8.654
REMARK INTER:                  -8.640
REMARK INTRA:                  -0.014
REMARK UNBOUND:                 0.653
REMARK  9 active torsions:
REMARK  status: ('A' for Active; 'I' for Inactive)
REMARK    1  A    between atoms: C_13  and  C_16 
REMARK    2  A    between atoms: C_14  and  C_17 
REMARK    3  A    between atoms: C_15  and  C_18 
REMARK    4  A    between atoms: C_16  and  C_22 
REMARK    5  A    between atoms: C_17  and  C_23 
REMARK    6  A    between atoms: C_18  and  C_24 
REMARK    7  A    between atoms: C_19  and  C_25 
REMARK    8  A    between atoms: C_20  and  C_26 
REMARK    9  A    between atoms: C_21  and  C_27 
ROOT
HETATM    1  O   UNL     1      34.284  50.217  31.618  1.00  0.00    -0.304 OA
HETATM    2  O   UNL     1      37.596  52.375  28.433  1.00  0.00    -0.304 OA
HETATM    3  O   UNL     1      33.626  49.713  27.648  1.00  0.00    -0.304 OA
HETATM    4  O   UNL     1      36.033  52.130  31.597  1.00  0.00    -0.270 OA
HETATM    5  O   UNL     1      31.365  47.147  28.082  1.00  0.00    -0.270 OA
HETATM    6  O   UNL     1      34.964  52.476  28.485  1.00  0.00    -0.270 OA
HETATM    7  O   UNL     1      33.433  48.090  31.886  1.00  0.00    -0.263 OA
HETATM    8  O   UNL     1      37.710  50.076  28.602  1.00  0.00    -0.263 OA
HETATM    9  O   UNL     1      31.603  49.857  26.561  1.00  0.00    -0.263 OA
HETATM   10  N   UNL     1      37.751  50.588  31.362  1.00  0.00    -0.340 N 
HETATM   11  N   UNL     1      31.595  48.615  29.862  1.00  0.00    -0.340 N 
HETATM   12  N   UNL     1      34.633  51.764  26.301  1.00  0.00    -0.340 N 
HETATM   13  C   UNL     1      38.474  51.485  30.438  1.00  0.00     0.190 C 
HETATM   14  C   UNL     1      32.272  49.752  30.520  1.00  0.00     0.190 C 
HETATM   15  C   UNL     1      33.162  51.723  26.472  1.00  0.00     0.190 C 
HETATM   16  C   UNL     1      35.529  49.895  32.274  1.00  0.00     0.227 C 
HETATM   17  C   UNL     1      36.943  52.285  27.151  1.00  0.00     0.227 C 
HETATM   18  C   UNL     1      33.428  48.383  28.137  1.00  0.00     0.227 C 
HETATM   19  C   UNL     1      36.459  50.978  31.745  1.00  0.00     0.250 C 
HETATM   20  C   UNL     1      32.031  48.003  28.676  1.00  0.00     0.250 C 
HETATM   21  C   UNL     1      35.430  52.181  27.378  1.00  0.00     0.250 C 
HETATM   22  C   UNL     1      33.374  49.220  31.424  1.00  0.00     0.283 C 
HETATM   23  C   UNL     1      37.892  51.197  29.060  1.00  0.00     0.283 C 
HETATM   24  C   UNL     1      32.702  50.315  26.849  1.00  0.00     0.283 C 
HETATM   25  C   UNL     1      38.348  49.297  31.711  1.00  0.00     0.153 C 
HETATM   26  C   UNL     1      30.385  48.090  30.495  1.00  0.00     0.153 C 
HETATM   27  C   UNL     1      35.154  51.284  25.017  1.00  0.00     0.153 C 
ENDROOT
BRANCH  16  28
HETATM   28  C   UNL     1      35.374  50.008  33.780  1.00  0.00     0.016 C 
HETATM   29  C   UNL     1      36.336  51.051  34.344  1.00  0.00     0.012 C 
HETATM   30  C   UNL     1      35.602  48.653  34.448  1.00  0.00     0.012 C 
ENDBRANCH  16  28
BRANCH  14  31
HETATM   31  C   UNL     1      31.353  50.684  31.307  1.00  0.00     0.014 C 
HETATM   32  C   UNL     1      31.669  50.581  32.801  1.00  0.00     0.012 C 
BRANCH  31  33
HETATM   33  C   UNL     1      31.471  52.147  30.848  1.00  0.00     0.002 C 
HETATM   34  C   UNL     1      30.978  52.382  29.427  1.00  0.00     0.005 C 
ENDBRANCH  31  33
ENDBRANCH  14  31
BRANCH  13  35
HETATM   35  C   UNL     1      39.989  51.342  30.397  1.00  0.00     0.014 C 
HETATM   36  C   UNL     1      40.541  52.030  29.146  1.00  0.00     0.012 C 
BRANCH  35  37
HETATM   37  C   UNL     1      40.668  51.920  31.651  1.00  0.00     0.002 C 
HETATM   38  C   UNL     1      41.677  50.973  32.288  1.00  0.00     0.005 C 
ENDBRANCH  35  37
ENDBRANCH  13  35
BRANCH  18  39
HETATM   39  C   UNL     1      33.887  47.417  27.043  1.00  0.00     0.016 C 
HETATM   40  C   UNL     1      34.901  48.091  26.122  1.00  0.00     0.012 C 
HETATM   41  C   UNL     1      34.480  46.152  27.660  1.00  0.00     0.012 C 
ENDBRANCH  18  39
BRANCH  17  42
HETATM   42  C   UNL     1      37.273  53.563  26.392  1.00  0.00     0.016 C 
HETATM   43  C   UNL     1      38.293  53.288  25.288  1.00  0.00     0.012 C 
HETATM   44  C   UNL     1      37.793  54.638  27.345  1.00  0.00     0.012 C 
ENDBRANCH  17  42
BRANCH  15  45
HETATM   45  C   UNL     1      32.395  52.258  25.263  1.00  0.00     0.014 C 
HETATM   46  C   UNL     1      30.919  52.454  25.624  1.00  0.00     0.012 C 
BRANCH  45  47
HETATM   47  C   UNL     1      32.978  53.581  24.731  1.00  0.00     0.002 C 
HETATM   48  C   UNL     1      32.950  53.689  23.214  1.00  0.00     0.005 C 
ENDBRANCH  45  47
ENDBRANCH  15  45
TORSDOF 9
ENDMDL
MODEL 5
REMARK VINA RESULT:    -5.958      4.531      8.636
REMARK INTER + INTRA:          -8.440
REMARK INTER:                  -8.975
REMARK INTRA:                   0.535
REMARK UNBOUND:                 0.653
REMARK  9 active torsions:
REMARK  status: ('A' for Active; 'I' for Inactive)
REMARK    1  A    between atoms: C_13  and  C_16 
REMARK    2  A    between atoms: C_14  and  C_17 
REMARK    3  A    between atoms: C_15  and  C_18 
REMARK    4  A    between atoms: C_16  and  C_22 
REMARK    5  A    between atoms: C_17  and  C_23 
REMARK    6  A    between atoms: C_18  and  C_24 
REMARK    7  A    between atoms: C_19  and  C_25 
REMARK    8  A    between atoms: C_20  and  C_26 
REMARK    9  A    between atoms: C_21  and  C_27 
ROOT
HETATM    1  O   UNL     1      33.910  49.997  28.001  1.00  0.00    -0.304 OA
HETATM    2  O   UNL     1      38.242  52.327  29.255  1.00  0.00    -0.304 OA
HETATM    3  O   UNL     1      34.498  50.814  31.930  1.00  0.00    -0.304 OA
HETATM    4  O   UNL     1      36.294  50.362  27.051  1.00  0.00    -0.270 OA
HETATM    5  O   UNL     1      31.206  50.282  32.803  1.00  0.00    -0.270 OA
HETATM    6  O   UNL     1      37.120  50.161  30.249  1.00  0.00    -0.270 OA
HETATM    7  O   UNL     1      31.673  50.397  28.397  1.00  0.00    -0.263 OA
HETATM    8  O   UNL     1      36.331  53.616  29.378  1.00  0.00    -0.263 OA
HETATM    9  O   UNL     1      34.061  49.416  33.704  1.00  0.00    -0.263 OA
HETATM   10  N   UNL     1      35.868  52.628  26.791  1.00  0.00    -0.340 N 
HETATM   11  N   UNL     1      31.943  49.193  30.892  1.00  0.00    -0.340 N 
HETATM   12  N   UNL     1      37.096  50.870  32.459  1.00  0.00    -0.340 N 
HETATM   13  C   UNL     1      37.242  52.969  27.213  1.00  0.00     0.190 C 
HETATM   14  C   UNL     1      32.976  48.941  29.866  1.00  0.00     0.190 C 
HETATM   15  C   UNL     1      36.342  49.673  32.899  1.00  0.00     0.190 C 
HETATM   16  C   UNL     1      33.990  50.986  26.953  1.00  0.00     0.227 C 
HETATM   17  C   UNL     1      38.294  52.201  30.690  1.00  0.00     0.227 C 
HETATM   18  C   UNL     1      33.145  51.243  31.753  1.00  0.00     0.227 C 
HETATM   19  C   UNL     1      35.483  51.285  26.908  1.00  0.00     0.250 C 
HETATM   20  C   UNL     1      32.022  50.190  31.878  1.00  0.00     0.250 C 
HETATM   21  C   UNL     1      37.449  50.990  31.106  1.00  0.00     0.250 C 
HETATM   22  C   UNL     1      32.736  49.862  28.681  1.00  0.00     0.283 C 
HETATM   23  C   UNL     1      37.192  53.032  28.734  1.00  0.00     0.283 C 
HETATM   24  C   UNL     1      34.842  49.967  32.940  1.00  0.00     0.283 C 
HETATM   25  C   UNL     1      34.953  53.708  26.417  1.00  0.00     0.153 C 
HETATM   26  C   UNL     1      30.753  48.341  30.879  1.00  0.00     0.153 C 
HETATM   27  C   UNL     1      37.355  51.891  33.479  1.00  0.00     0.153 C 
ENDROOT
BRANCH  16  28
HETATM   28  C   UNL     1      33.520  50.396  25.636  1.00  0.00     0.016 C 
HETATM   29  C   UNL     1      32.120  50.900  25.290  1.00  0.00     0.012 C 
HETATM   30  C   UNL     1      33.541  48.870  25.691  1.00  0.00     0.012 C 
ENDBRANCH  16  28
BRANCH  14  31
HETATM   31  C   UNL     1      33.075  47.492  29.392  1.00  0.00     0.014 C 
HETATM   32  C   UNL     1      32.048  47.239  28.285  1.00  0.00     0.012 C 
BRANCH  31  33
HETATM   33  C   UNL     1      34.485  47.137  28.887  1.00  0.00     0.002 C 
HETATM   34  C   UNL     1      34.503  45.987  27.890  1.00  0.00     0.005 C 
ENDBRANCH  31  33
ENDBRANCH  14  31
BRANCH  13  35
HETATM   35  C   UNL     1      37.821  54.264  26.662  1.00  0.00     0.014 C 
HETATM   36  C   UNL     1      39.091  54.634  27.435  1.00  0.00     0.012 C 
BRANCH  35  37
HETATM   37  C   UNL     1      38.135  54.176  25.158  1.00  0.00     0.002 C 
HETATM   38  C   UNL     1      38.896  52.916  24.768  1.00  0.00     0.005 C 
ENDBRANCH  35  37
ENDBRANCH  13  35
BRANCH  18  39
HETATM   39  C   UNL     1      32.910  52.426  32.694  1.00  0.00     0.016 C 
HETATM   40  C   UNL     1      34.164  53.290  32.793  1.00  0.00     0.012 C 
HETATM   41  C   UNL     1      31.719  53.258  32.222  1.00  0.00     0.012 C 
ENDBRANCH  18  39
BRANCH  17  42
HETATM   42  C   UNL     1      39.752  51.977  31.066  1.00  0.00     0.016 C 
HETATM   43  C   UNL     1      40.434  53.304  31.396  1.00  0.00     0.012 C 
HETATM   44  C   UNL     1      40.495  51.258  29.941  1.00  0.00     0.012 C 
ENDBRANCH  17  42
BRANCH  15  45
HETATM   45  C   UNL     1      36.836  49.099  34.226  1.00  0.00     0.014 C 
HETATM   46  C   UNL     1      35.936  47.937  34.661  1.00  0.00     0.012 C 
BRANCH  45  47
HETATM   47  C   UNL     1      38.300  48.623  34.156  1.00  0.00     0.002 C 
HETATM   48  C   UNL     1      38.486  47.175  34.582  1.00  0.00     0.005 C 
ENDBRANCH  45  47
ENDBRANCH  15  45
TORSDOF 9
ENDMDL
MODEL 6
REMARK VINA RESULT:    -5.753      9.378     14.633
REMARK INTER + INTRA:          -8.126
REMARK INTER:                  -8.572
REMARK INTRA:                   0.445
REMARK UNBOUND:                 0.653
REMARK  9 active torsions:
REMARK  status: ('A' for Active; 'I' for Inactive)
REMARK    1  A    between atoms: C_13  and  C_16 
REMARK    2  A    between atoms: C_14  and  C_17 
REMARK    3  A    between atoms: C_15  and  C_18 
REMARK    4  A    between atoms: C_16  and  C_22 
REMARK    5  A    between atoms: C_17  and  C_23 
REMARK    6  A    between atoms: C_18  and  C_24 
REMARK    7  A    between atoms: C_19  and  C_25 
REMARK    8  A    between atoms: C_20  and  C_26 
REMARK    9  A    between atoms: C_21  and  C_27 
ROOT
HETATM    1  O   UNL     1      31.527  50.747  23.441  1.00  0.00    -0.304 OA
HETATM    2  O   UNL     1      31.582  49.226  28.284  1.00  0.00    -0.304 OA
HETATM    3  O   UNL     1      29.857  53.232  26.177  1.00  0.00    -0.304 OA
HETATM    4  O   UNL     1      31.735  48.557  24.814  1.00  0.00    -0.270 OA
HETATM    5  O   UNL     1      29.792  55.949  24.056  1.00  0.00    -0.270 OA
HETATM    6  O   UNL     1      29.599  50.122  26.799  1.00  0.00    -0.270 OA
HETATM    7  O   UNL     1      32.195  52.652  22.326  1.00  0.00    -0.263 OA
HETATM    8  O   UNL     1      33.024  50.948  27.751  1.00  0.00    -0.263 OA
HETATM    9  O   UNL     1      27.879  54.387  25.958  1.00  0.00    -0.263 OA
HETATM   10  N   UNL     1      33.786  49.249  25.649  1.00  0.00    -0.340 N 
HETATM   11  N   UNL     1      29.793  53.864  23.041  1.00  0.00    -0.340 N 
HETATM   12  N   UNL     1      28.949  51.826  28.234  1.00  0.00    -0.340 N 
HETATM   13  C   UNL     1      33.474  48.682  26.977  1.00  0.00     0.190 C 
HETATM   14  C   UNL     1      29.897  52.391  23.115  1.00  0.00     0.190 C 
HETATM   15  C   UNL     1      27.947  52.339  27.270  1.00  0.00     0.190 C 
HETATM   16  C   UNL     1      32.871  50.229  23.540  1.00  0.00     0.227 C 
HETATM   17  C   UNL     1      30.677  50.138  28.938  1.00  0.00     0.227 C 
HETATM   18  C   UNL     1      30.640  54.148  25.406  1.00  0.00     0.227 C 
HETATM   19  C   UNL     1      32.753  49.251  24.701  1.00  0.00     0.250 C 
HETATM   20  C   UNL     1      30.022  54.735  24.118  1.00  0.00     0.250 C 
HETATM   21  C   UNL     1      29.701  50.692  27.893  1.00  0.00     0.250 C 
HETATM   22  C   UNL     1      31.344  51.982  22.892  1.00  0.00     0.283 C 
HETATM   23  C   UNL     1      32.696  49.769  27.707  1.00  0.00     0.283 C 
HETATM   24  C   UNL     1      28.540  53.470  26.428  1.00  0.00     0.283 C 
HETATM   25  C   UNL     1      35.083  49.896  25.442  1.00  0.00     0.153 C 
HETATM   26  C   UNL     1      29.428  54.453  21.753  1.00  0.00     0.153 C 
HETATM   27  C   UNL     1      29.130  52.605  29.463  1.00  0.00     0.153 C 
ENDROOT
BRANCH  16  28
HETATM   28  C   UNL     1      33.249  49.503  22.262  1.00  0.00     0.016 C 
HETATM   29  C   UNL     1      33.346  47.998  22.505  1.00  0.00     0.012 C 
HETATM   30  C   UNL     1      34.566  50.041  21.705  1.00  0.00     0.012 C 
ENDBRANCH  16  28
BRANCH  14  31
HETATM   31  C   UNL     1      28.983  51.630  22.156  1.00  0.00     0.014 C 
HETATM   32  C   UNL     1      29.829  50.834  21.159  1.00  0.00     0.012 C 
BRANCH  31  33
HETATM   33  C   UNL     1      28.017  50.686  22.892  1.00  0.00     0.002 C 
HETATM   34  C   UNL     1      27.057  49.954  21.966  1.00  0.00     0.005 C 
ENDBRANCH  31  33
ENDBRANCH  14  31
BRANCH  13  35
HETATM   35  C   UNL     1      34.659  48.239  27.823  1.00  0.00     0.014 C 
HETATM   36  C   UNL     1      34.620  48.945  29.181  1.00  0.00     0.012 C 
BRANCH  35  37
HETATM   37  C   UNL     1      34.696  46.714  28.031  1.00  0.00     0.002 C 
HETATM   38  C   UNL     1      33.689  46.216  29.059  1.00  0.00     0.005 C 
ENDBRANCH  35  37
ENDBRANCH  13  35
BRANCH  18  39
HETATM   39  C   UNL     1      31.120  55.253  26.350  1.00  0.00     0.016 C 
HETATM   40  C   UNL     1      31.428  54.681  27.732  1.00  0.00     0.012 C 
HETATM   41  C   UNL     1      32.347  55.955  25.773  1.00  0.00     0.012 C 
ENDBRANCH  18  39
BRANCH  17  42
HETATM   42  C   UNL     1      29.920  49.338  29.989  1.00  0.00     0.016 C 
HETATM   43  C   UNL     1      30.011  50.019  31.354  1.00  0.00     0.012 C 
HETATM   44  C   UNL     1      30.455  47.909  30.068  1.00  0.00     0.012 C 
ENDBRANCH  17  42
BRANCH  15  45
HETATM   45  C   UNL     1      26.633  52.760  27.926  1.00  0.00     0.014 C 
HETATM   46  C   UNL     1      25.562  52.988  26.854  1.00  0.00     0.012 C 
BRANCH  45  47
HETATM   47  C   UNL     1      26.127  51.728  28.952  1.00  0.00     0.002 C 
HETATM   48  C   UNL     1      25.605  50.448  28.318  1.00  0.00     0.005 C 
ENDBRANCH  45  47
ENDBRANCH  15  45
TORSDOF 9
ENDMDL
MODEL 7
REMARK VINA RESULT:    -5.517     19.004     23.027
REMARK INTER + INTRA:          -7.767
REMARK INTER:                  -7.813
REMARK INTRA:                   0.047
REMARK UNBOUND:                 0.653
REMARK  9 active torsions:
REMARK  status: ('A' for Active; 'I' for Inactive)
REMARK    1  A    between atoms: C_13  and  C_16 
REMARK    2  A    between atoms: C_14  and  C_17 
REMARK    3  A    between atoms: C_15  and  C_18 
REMARK    4  A    between atoms: C_16  and  C_22 
REMARK    5  A    between atoms: C_17  and  C_23 
REMARK    6  A    between atoms: C_18  and  C_24 
REMARK    7  A    between atoms: C_19  and  C_25 
REMARK    8  A    between atoms: C_20  and  C_26 
REMARK    9  A    between atoms: C_21  and  C_27 
ROOT
HETATM    1  O   UNL     1      28.796  47.253  16.028  1.00  0.00    -0.304 OA
HETATM    2  O   UNL     1      30.054  46.896  11.124  1.00  0.00    -0.304 OA
HETATM    3  O   UNL     1      26.391  49.138  13.362  1.00  0.00    -0.304 OA
HETATM    4  O   UNL     1      30.874  46.751  14.562  1.00  0.00    -0.270 OA
HETATM    5  O   UNL     1      23.811  49.581  15.606  1.00  0.00    -0.270 OA
HETATM    6  O   UNL     1      29.474  49.008  12.587  1.00  0.00    -0.270 OA
HETATM    7  O   UNL     1      26.884  46.845  17.252  1.00  0.00    -0.263 OA
HETATM    8  O   UNL     1      28.203  45.683  11.781  1.00  0.00    -0.263 OA
HETATM    9  O   UNL     1      25.490  51.245  13.575  1.00  0.00    -0.263 OA
HETATM   10  N   UNL     1      29.904  44.777  13.823  1.00  0.00    -0.340 N 
HETATM   11  N   UNL     1      25.930  49.355  16.521  1.00  0.00    -0.340 N 
HETATM   12  N   UNL     1      27.788  49.821  11.215  1.00  0.00    -0.340 N 
HETATM   13  C   UNL     1      30.437  44.986  12.462  1.00  0.00     0.190 C 
HETATM   14  C   UNL     1      27.374  49.075  16.381  1.00  0.00     0.190 C 
HETATM   15  C   UNL     1      27.446  50.900  12.170  1.00  0.00     0.190 C 
HETATM   16  C   UNL     1      29.146  45.855  15.947  1.00  0.00     0.227 C 
HETATM   17  C   UNL     1      29.224  47.887  10.486  1.00  0.00     0.227 C 
HETATM   18  C   UNL     1      25.429  48.490  14.199  1.00  0.00     0.227 C 
HETATM   19  C   UNL     1      30.072  45.826  14.738  1.00  0.00     0.250 C 
HETATM   20  C   UNL     1      24.984  49.206  15.494  1.00  0.00     0.250 C 
HETATM   21  C   UNL     1      28.842  48.947  11.525  1.00  0.00     0.250 C 
HETATM   22  C   UNL     1      27.621  47.596  16.630  1.00  0.00     0.283 C 
HETATM   23  C   UNL     1      29.413  45.869  11.760  1.00  0.00     0.283 C 
HETATM   24  C   UNL     1      26.298  50.468  13.082  1.00  0.00     0.283 C 
HETATM   25  C   UNL     1      29.120  43.572  14.101  1.00  0.00     0.153 C 
HETATM   26  C   UNL     1      25.453  49.821  17.823  1.00  0.00     0.153 C 
HETATM   27  C   UNL     1      26.933  49.703  10.030  1.00  0.00     0.153 C 
ENDROOT
BRANCH  16  28
HETATM   28  C   UNL     1      29.886  45.425  17.201  1.00  0.00     0.016 C 
HETATM   29  C   UNL     1      31.006  46.410  17.531  1.00  0.00     0.012 C 
HETATM   30  C   UNL     1      30.446  44.012  17.039  1.00  0.00     0.012 C 
ENDBRANCH  16  28
BRANCH  14  31
HETATM   31  C   UNL     1      28.285  49.915  17.275  1.00  0.00     0.014 C 
HETATM   32  C   UNL     1      28.717  49.093  18.491  1.00  0.00     0.012 C 
BRANCH  31  33
HETATM   33  C   UNL     1      29.525  50.432  16.526  1.00  0.00     0.002 C 
HETATM   34  C   UNL     1      29.193  51.347  15.356  1.00  0.00     0.005 C 
ENDBRANCH  31  33
ENDBRANCH  14  31
BRANCH  13  35
HETATM   35  C   UNL     1      30.694  43.736  11.632  1.00  0.00     0.014 C 
HETATM   36  C   UNL     1      30.706  44.094  10.143  1.00  0.00     0.012 C 
BRANCH  35  37
HETATM   37  C   UNL     1      32.013  43.040  12.010  1.00  0.00     0.002 C 
HETATM   38  C   UNL     1      33.108  43.203  10.964  1.00  0.00     0.005 C 
ENDBRANCH  35  37
ENDBRANCH  13  35
BRANCH  18  39
HETATM   39  C   UNL     1      24.229  48.122  13.324  1.00  0.00     0.016 C 
HETATM   40  C   UNL     1      24.686  47.761  11.913  1.00  0.00     0.012 C 
HETATM   41  C   UNL     1      23.444  46.969  13.946  1.00  0.00     0.012 C 
ENDBRANCH  18  39
BRANCH  17  42
HETATM   42  C   UNL     1      30.053  48.516   9.375  1.00  0.00     0.016 C 
HETATM   43  C   UNL     1      29.532  48.089   8.004  1.00  0.00     0.012 C 
HETATM   44  C   UNL     1      31.528  48.144   9.526  1.00  0.00     0.012 C 
ENDBRANCH  17  42
BRANCH  15  45
HETATM   45  C   UNL     1      27.151  52.238  11.495  1.00  0.00     0.014 C 
HETATM   46  C   UNL     1      27.020  53.341  12.551  1.00  0.00     0.012 C 
BRANCH  45  47
HETATM   47  C   UNL     1      28.229  52.632  10.466  1.00  0.00     0.002 C 
HETATM   48  C   UNL     1      29.616  52.790  11.072  1.00  0.00     0.005 C 
ENDBRANCH  45  47
ENDBRANCH  15  45
TORSDOF 9
ENDMDL
MODEL 8
REMARK VINA RESULT:    -5.352     11.744     16.581
REMARK INTER + INTRA:          -7.514
REMARK INTER:                  -7.633
REMARK INTRA:                   0.119
REMARK UNBOUND:                 0.653
REMARK  9 active torsions:
REMARK  status: ('A' for Active; 'I' for Inactive)
REMARK    1  A    between atoms: C_13  and  C_16 
REMARK    2  A    between atoms: C_14  and  C_17 
REMARK    3  A    between atoms: C_15  and  C_18 
REMARK    4  A    between atoms: C_16  and  C_22 
REMARK    5  A    between atoms: C_17  and  C_23 
REMARK    6  A    between atoms: C_18  and  C_24 
REMARK    7  A    between atoms: C_19  and  C_25 
REMARK    8  A    between atoms: C_20  and  C_26 
REMARK    9  A    between atoms: C_21  and  C_27 
ROOT
HETATM    1  O   UNL     1      27.630  52.261  20.543  1.00  0.00    -0.304 OA
HETATM    2  O   UNL     1      29.774  47.768  19.554  1.00  0.00    -0.304 OA
HETATM    3  O   UNL     1      31.538  51.822  21.533  1.00  0.00    -0.304 OA
HETATM    4  O   UNL     1      26.935  49.797  20.136  1.00  0.00    -0.270 OA
HETATM    5  O   UNL     1      32.087  55.201  21.935  1.00  0.00    -0.270 OA
HETATM    6  O   UNL     1      29.752  49.198  21.766  1.00  0.00    -0.270 OA
HETATM    7  O   UNL     1      28.146  54.455  20.051  1.00  0.00    -0.263 OA
HETATM    8  O   UNL     1      30.421  49.516  18.192  1.00  0.00    -0.263 OA
HETATM    9  O   UNL     1      32.552  52.530  23.473  1.00  0.00    -0.263 OA
HETATM   10  N   UNL     1      27.656  49.934  17.934  1.00  0.00    -0.340 N 
HETATM   11  N   UNL     1      29.899  54.484  22.213  1.00  0.00    -0.340 N 
HETATM   12  N   UNL     1      32.054  49.273  22.051  1.00  0.00    -0.340 N 
HETATM   13  C   UNL     1      28.190  48.558  17.989  1.00  0.00     0.190 C 
HETATM   14  C   UNL     1      28.868  53.427  22.148  1.00  0.00     0.190 C 
HETATM   15  C   UNL     1      31.943  50.189  23.209  1.00  0.00     0.190 C 
HETATM   16  C   UNL     1      27.099  52.000  19.226  1.00  0.00     0.227 C 
HETATM   17  C   UNL     1      31.021  47.820  20.275  1.00  0.00     0.227 C 
HETATM   18  C   UNL     1      31.552  53.101  20.892  1.00  0.00     0.227 C 
HETATM   19  C   UNL     1      27.192  50.482  19.139  1.00  0.00     0.250 C 
HETATM   20  C   UNL     1      31.214  54.347  21.740  1.00  0.00     0.250 C 
HETATM   21  C   UNL     1      30.881  48.825  21.424  1.00  0.00     0.250 C 
HETATM   22  C   UNL     1      28.183  53.483  20.792  1.00  0.00     0.283 C 
HETATM   23  C   UNL     1      29.594  48.692  18.563  1.00  0.00     0.283 C 
HETATM   24  C   UNL     1      32.096  51.643  22.762  1.00  0.00     0.283 C 
HETATM   25  C   UNL     1      27.769  50.690  16.686  1.00  0.00     0.153 C 
HETATM   26  C   UNL     1      29.520  55.763  22.813  1.00  0.00     0.153 C 
HETATM   27  C   UNL     1      33.412  48.957  21.596  1.00  0.00     0.153 C 
ENDROOT
BRANCH  16  28
HETATM   28  C   UNL     1      25.654  52.456  19.142  1.00  0.00     0.016 C 
HETATM   29  C   UNL     1      24.868  51.986  20.365  1.00  0.00     0.012 C 
HETATM   30  C   UNL     1      25.001  51.946  17.858  1.00  0.00     0.012 C 
ENDBRANCH  16  28
BRANCH  14  31
HETATM   31  C   UNL     1      27.825  53.472  23.263  1.00  0.00     0.014 C 
HETATM   32  C   UNL     1      26.540  54.120  22.744  1.00  0.00     0.012 C 
BRANCH  31  33
HETATM   33  C   UNL     1      27.514  52.075  23.830  1.00  0.00     0.002 C 
HETATM   34  C   UNL     1      28.720  51.391  24.459  1.00  0.00     0.005 C 
ENDBRANCH  31  33
ENDBRANCH  14  31
BRANCH  13  35
HETATM   35  C   UNL     1      28.242  47.795  16.672  1.00  0.00     0.014 C 
HETATM   36  C   UNL     1      29.255  46.652  16.775  1.00  0.00     0.012 C 
BRANCH  35  37
HETATM   37  C   UNL     1      26.868  47.238  16.260  1.00  0.00     0.002 C 
HETATM   38  C   UNL     1      26.485  47.564  14.823  1.00  0.00     0.005 C 
ENDBRANCH  35  37
ENDBRANCH  13  35
BRANCH  18  39
HETATM   39  C   UNL     1      32.904  53.251  20.192  1.00  0.00     0.016 C 
HETATM   40  C   UNL     1      33.446  51.886  19.773  1.00  0.00     0.012 C 
HETATM   41  C   UNL     1      32.782  54.175  18.982  1.00  0.00     0.012 C 
ENDBRANCH  18  39
BRANCH  17  42
HETATM   42  C   UNL     1      31.275  46.424  20.828  1.00  0.00     0.016 C 
HETATM   43  C   UNL     1      32.369  45.717  20.030  1.00  0.00     0.012 C 
HETATM   44  C   UNL     1      29.989  45.598  20.821  1.00  0.00     0.012 C 
ENDBRANCH  17  42
BRANCH  15  45
HETATM   45  C   UNL     1      32.905  49.849  24.346  1.00  0.00     0.014 C 
HETATM   46  C   UNL     1      32.391  50.444  25.662  1.00  0.00     0.012 C 
BRANCH  45  47
HETATM   47  C   UNL     1      33.114  48.332  24.511  1.00  0.00     0.002 C 
HETATM   48  C   UNL     1      34.328  47.975  25.355  1.00  0.00     0.005 C 
ENDBRANCH  45  47
ENDBRANCH  15  45
TORSDOF 9
ENDMDL
MODEL 9
REMARK VINA RESULT:    -5.350      8.468     13.151
REMARK INTER + INTRA:          -7.512
REMARK INTER:                  -8.471
REMARK INTRA:                   0.960
REMARK UNBOUND:                 0.653
REMARK  9 active torsions:
REMARK  status: ('A' for Active; 'I' for Inactive)
REMARK    1  A    between atoms: C_13  and  C_16 
REMARK    2  A    between atoms: C_14  and  C_17 
REMARK    3  A    between atoms: C_15  and  C_18 
REMARK    4  A    between atoms: C_16  and  C_22 
REMARK    5  A    between atoms: C_17  and  C_23 
REMARK    6  A    between atoms: C_18  and  C_24 
REMARK    7  A    between atoms: C_19  and  C_25 
REMARK    8  A    between atoms: C_20  and  C_26 
REMARK    9  A    between atoms: C_21  and  C_27 
ROOT
HETATM    1  O   UNL     1      32.173  49.686  29.903  1.00  0.00    -0.304 OA
HETATM    2  O   UNL     1      27.321  50.894  29.031  1.00  0.00    -0.304 OA
HETATM    3  O   UNL     1      31.392  51.947  26.628  1.00  0.00    -0.304 OA
HETATM    4  O   UNL     1      29.797  48.847  30.512  1.00  0.00    -0.270 OA
HETATM    5  O   UNL     1      34.677  52.887  26.170  1.00  0.00    -0.270 OA
HETATM    6  O   UNL     1      29.134  49.853  27.429  1.00  0.00    -0.270 OA
HETATM    7  O   UNL     1      34.140  50.878  30.083  1.00  0.00    -0.263 OA
HETATM    8  O   UNL     1      28.671  52.614  29.770  1.00  0.00    -0.263 OA
HETATM    9  O   UNL     1      32.309  51.693  24.533  1.00  0.00    -0.263 OA
HETATM   10  N   UNL     1      29.412  50.769  31.753  1.00  0.00    -0.340 N 
HETATM   11  N   UNL     1      34.336  50.895  27.307  1.00  0.00    -0.340 N 
HETATM   12  N   UNL     1      28.942  51.442  25.749  1.00  0.00    -0.340 N 
HETATM   13  C   UNL     1      28.011  50.828  31.290  1.00  0.00     0.190 C 
HETATM   14  C   UNL     1      33.440  49.912  27.950  1.00  0.00     0.190 C 
HETATM   15  C   UNL     1      30.068  50.859  24.984  1.00  0.00     0.190 C 
HETATM   16  C   UNL     1      31.743  50.028  31.238  1.00  0.00     0.227 C 
HETATM   17  C   UNL     1      27.335  51.412  27.686  1.00  0.00     0.227 C 
HETATM   18  C   UNL     1      32.512  52.640  27.187  1.00  0.00     0.227 C 
HETATM   19  C   UNL     1      30.238  49.807  31.156  1.00  0.00     0.250 C 
HETATM   20  C   UNL     1      33.931  52.150  26.825  1.00  0.00     0.250 C 
HETATM   21  C   UNL     1      28.550  50.833  26.951  1.00  0.00     0.250 C 
HETATM   22  C   UNL     1      33.331  50.232  29.433  1.00  0.00     0.283 C 
HETATM   23  C   UNL     1      28.056  51.573  29.962  1.00  0.00     0.283 C 
HETATM   24  C   UNL     1      31.375  51.580  25.316  1.00  0.00     0.283 C 
HETATM   25  C   UNL     1      29.893  51.790  32.686  1.00  0.00     0.153 C 
HETATM   26  C   UNL     1      35.746  50.532  27.163  1.00  0.00     0.153 C 
HETATM   27  C   UNL     1      28.360  52.678  25.216  1.00  0.00     0.153 C 
ENDROOT
BRANCH  16  28
HETATM   28  C   UNL     1      32.370  49.087  32.250  1.00  0.00     0.016 C 
HETATM   29  C   UNL     1      33.579  49.742  32.917  1.00  0.00     0.012 C 
HETATM   30  C   UNL     1      32.773  47.772  31.586  1.00  0.00     0.012 C 
ENDBRANCH  16  28
BRANCH  14  31
HETATM   31  C   UNL     1      33.840  48.450  27.759  1.00  0.00     0.014 C 
HETATM   32  C   UNL     1      34.878  48.056  28.812  1.00  0.00     0.012 C 
BRANCH  31  33
HETATM   33  C   UNL     1      32.633  47.498  27.834  1.00  0.00     0.002 C 
HETATM   34  C   UNL     1      32.999  46.082  28.253  1.00  0.00     0.005 C 
ENDBRANCH  31  33
ENDBRANCH  14  31
BRANCH  13  35
HETATM   35  C   UNL     1      27.012  51.498  32.224  1.00  0.00     0.014 C 
HETATM   36  C   UNL     1      25.793  51.971  31.427  1.00  0.00     0.012 C 
BRANCH  35  37
HETATM   37  C   UNL     1      26.560  50.570  33.365  1.00  0.00     0.002 C 
HETATM   38  C   UNL     1      25.143  50.039  33.191  1.00  0.00     0.005 C 
ENDBRANCH  35  37
ENDBRANCH  13  35
BRANCH  18  39
HETATM   39  C   UNL     1      32.337  54.127  26.873  1.00  0.00     0.016 C 
HETATM   40  C   UNL     1      30.860  54.513  26.909  1.00  0.00     0.012 C 
HETATM   41  C   UNL     1      33.139  54.980  27.855  1.00  0.00     0.012 C 
ENDBRANCH  18  39
BRANCH  17  42
HETATM   42  C   UNL     1      26.049  50.949  27.016  1.00  0.00     0.016 C 
HETATM   43  C   UNL     1      25.296  52.135  26.413  1.00  0.00     0.012 C 
HETATM   44  C   UNL     1      25.161  50.201  28.010  1.00  0.00     0.012 C 
ENDBRANCH  17  42
BRANCH  15  45
HETATM   45  C   UNL     1      29.820  50.817  23.477  1.00  0.00     0.014 C 
HETATM   46  C   UNL     1      30.455  52.041  22.807  1.00  0.00     0.012 C 
BRANCH  45  47
HETATM   47  C   UNL     1      30.362  49.531  22.824  1.00  0.00     0.002 C 
HETATM   48  C   UNL     1      31.056  49.773  21.492  1.00  0.00     0.005 C 
ENDBRANCH  45  47
ENDBRANCH  15  45
TORSDOF 9
ENDMDL
MODEL 10
REMARK VINA RESULT:    -5.319      6.951     11.823
REMARK INTER + INTRA:          -7.464
REMARK INTER:                  -7.720
REMARK INTRA:                   0.256
REMARK UNBOUND:                 0.653
REMARK  9 active torsions:
REMARK  status: ('A' for Active; 'I' for Inactive)
REMARK    1  A    between atoms: C_13  and  C_16 
REMARK    2  A    between atoms: C_14  and  C_17 
REMARK    3  A    between atoms: C_15  and  C_18 
REMARK    4  A    between atoms: C_16  and  C_22 
REMARK    5  A    between atoms: C_17  and  C_23 
REMARK    6  A    between atoms: C_18  and  C_24 
REMARK    7  A    between atoms: C_19  and  C_25 
REMARK    8  A    between atoms: C_20  and  C_26 
REMARK    9  A    between atoms: C_21  and  C_27 
ROOT
HETATM    1  O   UNL     1      35.280  52.169  27.586  1.00  0.00    -0.304 OA
HETATM    2  O   UNL     1      31.222  51.764  24.563  1.00  0.00    -0.304 OA
HETATM    3  O   UNL     1      32.160  49.976  28.965  1.00  0.00    -0.304 OA
HETATM    4  O   UNL     1      34.178  53.411  25.594  1.00  0.00    -0.270 OA
HETATM    5  O   UNL     1      33.982  48.487  31.486  1.00  0.00    -0.270 OA
HETATM    6  O   UNL     1      31.397  52.440  27.103  1.00  0.00    -0.270 OA
HETATM    7  O   UNL     1      36.640  50.671  28.693  1.00  0.00    -0.263 OA
HETATM    8  O   UNL     1      32.518  49.865  24.772  1.00  0.00    -0.263 OA
HETATM    9  O   UNL     1      31.291  50.011  31.096  1.00  0.00    -0.263 OA
HETATM   10  N   UNL     1      34.634  51.617  24.195  1.00  0.00    -0.340 N 
HETATM   11  N   UNL     1      34.760  50.541  30.741  1.00  0.00    -0.340 N 
HETATM   12  N   UNL     1      29.898  50.857  27.898  1.00  0.00    -0.340 N 
HETATM   13  C   UNL     1      33.337  51.781  23.508  1.00  0.00     0.190 C 
HETATM   14  C   UNL     1      34.708  51.678  29.799  1.00  0.00     0.190 C 
HETATM   15  C   UNL     1      30.167  51.221  29.309  1.00  0.00     0.190 C 
HETATM   16  C   UNL     1      35.921  51.943  26.313  1.00  0.00     0.227 C 
HETATM   17  C   UNL     1      30.208  51.212  25.426  1.00  0.00     0.227 C 
HETATM   18  C   UNL     1      33.264  49.122  29.279  1.00  0.00     0.227 C 
HETATM   19  C   UNL     1      34.856  52.410  25.330  1.00  0.00     0.250 C 
HETATM   20  C   UNL     1      34.017  49.357  30.607  1.00  0.00     0.250 C 
HETATM   21  C   UNL     1      30.560  51.558  26.878  1.00  0.00     0.250 C 
HETATM   22  C   UNL     1      35.678  51.424  28.657  1.00  0.00     0.283 C 
HETATM   23  C   UNL     1      32.335  50.999  24.349  1.00  0.00     0.283 C 
HETATM   24  C   UNL     1      31.232  50.302  29.908  1.00  0.00     0.283 C 
HETATM   25  C   UNL     1      35.543  50.559  23.751  1.00  0.00     0.153 C 
HETATM   26  C   UNL     1      35.653  50.658  31.895  1.00  0.00     0.153 C 
HETATM   27  C   UNL     1      28.998  49.721  27.677  1.00  0.00     0.153 C 
ENDROOT
BRANCH  16  28
HETATM   28  C   UNL     1      37.172  52.795  26.195  1.00  0.00     0.016 C 
HETATM   29  C   UNL     1      36.908  54.212  26.701  1.00  0.00     0.012 C 
HETATM   30  C   UNL     1      37.670  52.826  24.751  1.00  0.00     0.012 C 
ENDBRANCH  16  28
BRANCH  14  31
HETATM   31  C   UNL     1      34.980  53.046  30.422  1.00  0.00     0.014 C 
HETATM   32  C   UNL     1      36.427  53.461  30.148  1.00  0.00     0.012 C 
BRANCH  31  33
HETATM   33  C   UNL     1      34.019  54.129  29.900  1.00  0.00     0.002 C 
HETATM   34  C   UNL     1      32.555  53.843  30.207  1.00  0.00     0.005 C 
ENDBRANCH  31  33
ENDBRANCH  14  31
BRANCH  13  35
HETATM   35  C   UNL     1      33.269  51.314  22.061  1.00  0.00     0.014 C 
HETATM   36  C   UNL     1      32.270  50.161  21.933  1.00  0.00     0.012 C 
BRANCH  35  37
HETATM   37  C   UNL     1      32.881  52.448  21.095  1.00  0.00     0.002 C 
HETATM   38  C   UNL     1      31.425  52.879  21.217  1.00  0.00     0.005 C 
ENDBRANCH  35  37
ENDBRANCH  13  35
BRANCH  18  39
HETATM   39  C   UNL     1      32.777  47.676  29.161  1.00  0.00     0.016 C 
HETATM   40  C   UNL     1      31.819  47.528  27.982  1.00  0.00     0.012 C 
HETATM   41  C   UNL     1      33.961  46.722  29.015  1.00  0.00     0.012 C 
ENDBRANCH  18  39
BRANCH  17  42
HETATM   42  C   UNL     1      28.888  51.864  25.038  1.00  0.00     0.016 C 
HETATM   43  C   UNL     1      28.323  51.224  23.770  1.00  0.00     0.012 C 
HETATM   44  C   UNL     1      29.066  53.369  24.843  1.00  0.00     0.012 C 
ENDBRANCH  17  42
BRANCH  15  45
HETATM   45  C   UNL     1      28.910  51.259  30.176  1.00  0.00     0.014 C 
HETATM   46  C   UNL     1      29.195  52.013  31.479  1.00  0.00     0.012 C 
BRANCH  45  47
HETATM   47  C   UNL     1      27.713  51.908  29.454  1.00  0.00     0.002 C 
HETATM   48  C   UNL     1      26.367  51.351  29.891  1.00  0.00     0.005 C 
ENDBRANCH  45  47
ENDBRANCH  15  45
TORSDOF 9
ENDMDL
MODEL 11
REMARK VINA RESULT:    -5.214      6.024     10.658
REMARK INTER + INTRA:          -7.304
REMARK INTER:                  -7.927
REMARK INTRA:                   0.623
REMARK UNBOUND:                 0.653
REMARK  9 active torsions:
REMARK  status: ('A' for Active; 'I' for Inactive)
REMARK    1  A    between atoms: C_13  and  C_16 
REMARK    2  A    between atoms: C_14  and  C_17 
REMARK    3  A    between atoms: C_15  and  C_18 
REMARK    4  A    between atoms: C_16  and  C_22 
REMARK    5  A    between atoms: C_17  and  C_23 
REMARK    6  A    between atoms: C_18  and  C_24 
REMARK    7  A    between atoms: C_19  and  C_25 
REMARK    8  A    between atoms: C_20  and  C_26 
REMARK    9  A    between atoms: C_21  and  C_27 
ROOT
HETATM    1  O   UNL     1      34.928  51.535  30.515  1.00  0.00    -0.304 OA
HETATM    2  O   UNL     1      34.773  53.391  25.793  1.00  0.00    -0.304 OA
HETATM    3  O   UNL     1      32.804  49.433  27.773  1.00  0.00    -0.304 OA
HETATM    4  O   UNL     1      35.259  53.787  29.275  1.00  0.00    -0.270 OA
HETATM    5  O   UNL     1      32.616  46.589  29.713  1.00  0.00    -0.270 OA
HETATM    6  O   UNL     1      32.826  52.590  27.377  1.00  0.00    -0.270 OA
HETATM    7  O   UNL     1      35.476  49.497  31.446  1.00  0.00    -0.263 OA
HETATM    8  O   UNL     1      36.063  51.500  26.092  1.00  0.00    -0.263 OA
HETATM    9  O   UNL     1      30.738  48.467  28.082  1.00  0.00    -0.263 OA
HETATM   10  N   UNL     1      37.156  52.958  28.228  1.00  0.00    -0.340 N 
HETATM   11  N   UNL     1      32.914  48.585  30.856  1.00  0.00    -0.340 N 
HETATM   12  N   UNL     1      31.893  51.067  25.895  1.00  0.00    -0.340 N 
HETATM   13  C   UNL     1      36.805  53.648  26.971  1.00  0.00     0.190 C 
HETATM   14  C   UNL     1      33.164  50.041  30.869  1.00  0.00     0.190 C 
HETATM   15  C   UNL     1      30.920  50.588  26.903  1.00  0.00     0.190 C 
HETATM   16  C   UNL     1      36.307  51.923  30.339  1.00  0.00     0.227 C 
HETATM   17  C   UNL     1      33.730  52.623  25.160  1.00  0.00     0.227 C 
HETATM   18  C   UNL     1      33.543  48.390  28.416  1.00  0.00     0.227 C 
HETATM   19  C   UNL     1      36.204  52.990  29.257  1.00  0.00     0.250 C 
HETATM   20  C   UNL     1      32.967  47.775  29.710  1.00  0.00     0.250 C 
HETATM   21  C   UNL     1      32.784  52.094  26.244  1.00  0.00     0.250 C 
HETATM   22  C   UNL     1      34.659  50.288  30.998  1.00  0.00     0.283 C 
HETATM   23  C   UNL     1      35.865  52.699  26.239  1.00  0.00     0.283 C 
HETATM   24  C   UNL     1      31.454  49.346  27.618  1.00  0.00     0.283 C 
HETATM   25  C   UNL     1      38.391  52.172  28.285  1.00  0.00     0.153 C 
HETATM   26  C   UNL     1      32.588  47.942  32.130  1.00  0.00     0.153 C 
HETATM   27  C   UNL     1      31.898  50.366  24.607  1.00  0.00     0.153 C 
ENDROOT
BRANCH  16  28
HETATM   28  C   UNL     1      36.856  52.513  31.626  1.00  0.00     0.016 C 
HETATM   29  C   UNL     1      37.723  51.492  32.359  1.00  0.00     0.012 C 
HETATM   30  C   UNL     1      35.719  52.995  32.526  1.00  0.00     0.012 C 
ENDBRANCH  16  28
BRANCH  14  31
HETATM   31  C   UNL     1      32.411  50.817  31.949  1.00  0.00     0.014 C 
HETATM   32  C   UNL     1      33.274  50.920  33.209  1.00  0.00     0.012 C 
BRANCH  31  33
HETATM   33  C   UNL     1      32.002  52.224  31.480  1.00  0.00     0.002 C 
HETATM   34  C   UNL     1      30.991  52.216  30.342  1.00  0.00     0.005 C 
ENDBRANCH  31  33
ENDBRANCH  14  31
BRANCH  13  35
HETATM   35  C   UNL     1      37.962  54.032  26.059  1.00  0.00     0.014 C 
HETATM   36  C   UNL     1      37.962  53.138  24.816  1.00  0.00     0.012 C 
BRANCH  35  37
HETATM   37  C   UNL     1      37.912  55.511  25.636  1.00  0.00     0.002 C 
HETATM   38  C   UNL     1      37.104  56.388  26.583  1.00  0.00     0.005 C 
ENDBRANCH  35  37
ENDBRANCH  13  35
BRANCH  18  39
HETATM   39  C   UNL     1      33.831  47.315  27.366  1.00  0.00     0.016 C 
HETATM   40  C   UNL     1      34.421  47.941  26.105  1.00  0.00     0.012 C 
HETATM   41  C   UNL     1      34.774  46.254  27.930  1.00  0.00     0.012 C 
ENDBRANCH  18  39
BRANCH  17  42
HETATM   42  C   UNL     1      32.983  53.568  24.229  1.00  0.00     0.016 C 
HETATM   43  C   UNL     1      33.017  53.049  22.792  1.00  0.00     0.012 C 
HETATM   44  C   UNL     1      33.572  54.976  24.303  1.00  0.00     0.012 C 
ENDBRANCH  17  42
BRANCH  15  45
HETATM   45  C   UNL     1      29.523  50.348  26.333  1.00  0.00     0.014 C 
HETATM   46  C   UNL     1      28.500  50.266  27.471  1.00  0.00     0.012 C 
BRANCH  45  47
HETATM   47  C   UNL     1      29.097  51.440  25.332  1.00  0.00     0.002 C 
HETATM   48  C   UNL     1      28.027  52.375  25.874  1.00  0.00     0.005 C 
ENDBRANCH  45  47
ENDBRANCH  15  45
TORSDOF 9
ENDMDL
MODEL 12
REMARK VINA RESULT:    -5.151      9.471     14.616
REMARK INTER + INTRA:          -7.208
REMARK INTER:                  -7.565
REMARK INTRA:                   0.357
REMARK UNBOUND:                 0.653
REMARK  9 active torsions:
REMARK  status: ('A' for Active; 'I' for Inactive)
REMARK    1  A    between atoms: C_13  and  C_16 
REMARK    2  A    between atoms: C_14  and  C_17 
REMARK    3  A    between atoms: C_15  and  C_18 
REMARK    4  A    between atoms: C_16  and  C_22 
REMARK    5  A    between atoms: C_17  and  C_23 
REMARK    6  A    between atoms: C_18  and  C_24 
REMARK    7  A    between atoms: C_19  and  C_25 
REMARK    8  A    between atoms: C_20  and  C_26 
REMARK    9  A    between atoms: C_21  and  C_27 
ROOT
HETATM    1  O   UNL     1      32.690  49.663  25.300  1.00  0.00    -0.304 OA
HETATM    2  O   UNL     1      28.715  51.228  28.043  1.00  0.00    -0.304 OA
HETATM    3  O   UNL     1      30.418  52.634  23.732  1.00  0.00    -0.304 OA
HETATM    4  O   UNL     1      31.149  48.803  27.200  1.00  0.00    -0.270 OA
HETATM    5  O   UNL     1      32.754  53.523  21.357  1.00  0.00    -0.270 OA
HETATM    6  O   UNL     1      28.865  50.504  25.514  1.00  0.00    -0.270 OA
HETATM    7  O   UNL     1      34.490  50.705  24.303  1.00  0.00    -0.263 OA
HETATM    8  O   UNL     1      30.505  52.682  27.941  1.00  0.00    -0.263 OA
HETATM    9  O   UNL     1      29.722  52.824  21.547  1.00  0.00    -0.263 OA
HETATM   10  N   UNL     1      31.996  50.409  28.645  1.00  0.00    -0.340 N 
HETATM   11  N   UNL     1      32.868  51.340  22.133  1.00  0.00    -0.340 N 
HETATM   12  N   UNL     1      27.932  52.438  24.634  1.00  0.00    -0.340 N 
HETATM   13  C   UNL     1      30.661  50.625  29.239  1.00  0.00     0.190 C 
HETATM   14  C   UNL     1      32.432  50.273  23.058  1.00  0.00     0.190 C 
HETATM   15  C   UNL     1      28.183  52.000  23.241  1.00  0.00     0.190 C 
HETATM   16  C   UNL     1      33.280  49.711  26.617  1.00  0.00     0.227 C 
HETATM   17  C   UNL     1      27.959  52.035  27.118  1.00  0.00     0.227 C 
HETATM   18  C   UNL     1      31.737  53.138  23.503  1.00  0.00     0.227 C 
HETATM   19  C   UNL     1      32.062  49.574  27.520  1.00  0.00     0.250 C 
HETATM   20  C   UNL     1      32.481  52.687  22.227  1.00  0.00     0.250 C 
HETATM   21  C   UNL     1      28.298  51.590  25.690  1.00  0.00     0.250 C 
HETATM   22  C   UNL     1      33.354  50.255  24.267  1.00  0.00     0.283 C 
HETATM   23  C   UNL     1      29.981  51.649  28.340  1.00  0.00     0.283 C 
HETATM   24  C   UNL     1      29.503  52.574  22.725  1.00  0.00     0.283 C 
HETATM   25  C   UNL     1      33.134  51.172  29.160  1.00  0.00     0.153 C 
HETATM   26  C   UNL     1      33.767  50.964  21.042  1.00  0.00     0.153 C 
HETATM   27  C   UNL     1      27.377  53.785  24.804  1.00  0.00     0.153 C 
ENDROOT
BRANCH  16  28
HETATM   28  C   UNL     1      34.228  48.542  26.811  1.00  0.00     0.016 C 
HETATM   29  C   UNL     1      33.489  47.341  27.398  1.00  0.00     0.012 C 
HETATM   30  C   UNL     1      35.399  48.940  27.708  1.00  0.00     0.012 C 
ENDBRANCH  16  28
BRANCH  14  31
HETATM   31  C   UNL     1      32.348  48.878  22.442  1.00  0.00     0.014 C 
HETATM   32  C   UNL     1      33.371  47.956  23.110  1.00  0.00     0.012 C 
BRANCH  31  33
HETATM   33  C   UNL     1      30.940  48.269  22.561  1.00  0.00     0.002 C 
HETATM   34  C   UNL     1      29.880  49.028  21.776  1.00  0.00     0.005 C 
ENDBRANCH  31  33
ENDBRANCH  14  31
BRANCH  13  35
HETATM   35  C   UNL     1      30.629  51.106  30.683  1.00  0.00     0.014 C 
HETATM   36  C   UNL     1      29.927  52.464  30.762  1.00  0.00     0.012 C 
BRANCH  35  37
HETATM   37  C   UNL     1      29.933  50.105  31.622  1.00  0.00     0.002 C 
HETATM   38  C   UNL     1      29.120  50.769  32.724  1.00  0.00     0.005 C 
ENDBRANCH  35  37
ENDBRANCH  13  35
BRANCH  18  39
HETATM   39  C   UNL     1      31.672  54.664  23.602  1.00  0.00     0.016 C 
HETATM   40  C   UNL     1      30.718  55.088  24.715  1.00  0.00     0.012 C 
HETATM   41  C   UNL     1      33.064  55.246  23.835  1.00  0.00     0.012 C 
ENDBRANCH  18  39
BRANCH  17  42
HETATM   42  C   UNL     1      26.486  51.787  27.409  1.00  0.00     0.016 C 
HETATM   43  C   UNL     1      26.034  52.589  28.628  1.00  0.00     0.012 C 
HETATM   44  C   UNL     1      26.221  50.296  27.621  1.00  0.00     0.012 C 
ENDBRANCH  17  42
BRANCH  15  45
HETATM   45  C   UNL     1      27.028  52.309  22.290  1.00  0.00     0.014 C 
HETATM   46  C   UNL     1      27.296  51.679  20.919  1.00  0.00     0.012 C 
BRANCH  45  47
HETATM   47  C   UNL     1      25.670  51.818  22.829  1.00  0.00     0.002 C 
HETATM   48  C   UNL     1      25.626  50.320  23.088  1.00  0.00     0.005 C 
ENDBRANCH  45  47
ENDBRANCH  15  45
TORSDOF 9
ENDMDL
MODEL 13
REMARK VINA RESULT:    -5.085     17.131     21.856
REMARK INTER + INTRA:          -7.108
REMARK INTER:                  -8.654
REMARK INTRA:                   1.546
REMARK UNBOUND:                 0.653
REMARK  9 active torsions:
REMARK  status: ('A' for Active; 'I' for Inactive)
REMARK    1  A    between atoms: C_13  and  C_16 
REMARK    2  A    between atoms: C_14  and  C_17 
REMARK    3  A    between atoms: C_15  and  C_18 
REMARK    4  A    between atoms: C_16  and  C_22 
REMARK    5  A    between atoms: C_17  and  C_23 
REMARK    6  A    between atoms: C_18  and  C_24 
REMARK    7  A    between atoms: C_19  and  C_25 
REMARK    8  A    between atoms: C_20  and  C_26 
REMARK    9  A    between atoms: C_21  and  C_27 
ROOT
HETATM    1  O   UNL     1      29.889  46.486  16.695  1.00  0.00    -0.304 OA
HETATM    2  O   UNL     1      30.928  45.708  11.788  1.00  0.00    -0.304 OA
HETATM    3  O   UNL     1      27.998  48.862  14.007  1.00  0.00    -0.304 OA
HETATM    4  O   UNL     1      31.744  45.437  15.219  1.00  0.00    -0.270 OA
HETATM    5  O   UNL     1      25.655  49.999  16.266  1.00  0.00    -0.270 OA
HETATM    6  O   UNL     1      30.932  47.931  13.201  1.00  0.00    -0.270 OA
HETATM    7  O   UNL     1      27.957  46.607  17.950  1.00  0.00    -0.263 OA
HETATM    8  O   UNL     1      28.841  45.024  12.497  1.00  0.00    -0.263 OA
HETATM    9  O   UNL     1      27.668  51.133  14.174  1.00  0.00    -0.263 OA
HETATM   10  N   UNL     1      30.290  43.759  14.543  1.00  0.00    -0.340 N 
HETATM   11  N   UNL     1      27.662  49.261  17.163  1.00  0.00    -0.340 N 
HETATM   12  N   UNL     1      29.486  49.116  11.827  1.00  0.00    -0.340 N 
HETATM   13  C   UNL     1      30.835  43.795  13.171  1.00  0.00     0.190 C 
HETATM   14  C   UNL     1      28.985  48.618  17.015  1.00  0.00     0.190 C 
HETATM   15  C   UNL     1      29.447  50.268  12.757  1.00  0.00     0.190 C 
HETATM   16  C   UNL     1      29.869  45.043  16.647  1.00  0.00     0.227 C 
HETATM   17  C   UNL     1      30.367  46.864  11.133  1.00  0.00     0.227 C 
HETATM   18  C   UNL     1      26.917  48.500  14.871  1.00  0.00     0.227 C 
HETATM   19  C   UNL     1      30.736  44.752  15.429  1.00  0.00     0.250 C 
HETATM   20  C   UNL     1      26.692  49.335  16.151  1.00  0.00     0.250 C 
HETATM   21  C   UNL     1      30.287  48.010  12.149  1.00  0.00     0.250 C 
HETATM   22  C   UNL     1      28.850  47.131  17.300  1.00  0.00     0.283 C 
HETATM   23  C   UNL     1      30.058  44.894  12.458  1.00  0.00     0.283 C 
HETATM   24  C   UNL     1      28.242  50.165  13.693  1.00  0.00     0.283 C 
HETATM   25  C   UNL     1      29.230  42.802  14.862  1.00  0.00     0.153 C 
HETATM   26  C   UNL     1      27.343  49.862  18.458  1.00  0.00     0.153 C 
HETATM   27  C   UNL     1      28.608  49.194  10.655  1.00  0.00     0.153 C 
ENDROOT
BRANCH  16  28
HETATM   28  C   UNL     1      30.496  44.467  17.903  1.00  0.00     0.016 C 
HETATM   29  C   UNL     1      29.419  43.945  18.852  1.00  0.00     0.012 C 
HETATM   30  C   UNL     1      31.364  45.513  18.601  1.00  0.00     0.012 C 
ENDBRANCH  16  28
BRANCH  14  31
HETATM   31  C   UNL     1      30.095  49.218  17.877  1.00  0.00     0.014 C 
HETATM   32  C   UNL     1      30.084  50.743  17.746  1.00  0.00     0.012 C 
BRANCH  31  33
HETATM   33  C   UNL     1      29.966  48.820  19.357  1.00  0.00     0.002 C 
HETATM   34  C   UNL     1      30.631  49.801  20.312  1.00  0.00     0.005 C 
ENDBRANCH  31  33
ENDBRANCH  14  31
BRANCH  13  35
HETATM   35  C   UNL     1      30.750  42.502  12.372  1.00  0.00     0.014 C 
HETATM   36  C   UNL     1      31.700  42.570  11.173  1.00  0.00     0.012 C 
BRANCH  35  37
HETATM   37  C   UNL     1      31.074  41.262  13.223  1.00  0.00     0.002 C 
HETATM   38  C   UNL     1      30.020  40.166  13.128  1.00  0.00     0.005 C 
ENDBRANCH  35  37
ENDBRANCH  13  35
BRANCH  18  39
HETATM   39  C   UNL     1      25.648  48.431  14.019  1.00  0.00     0.016 C 
HETATM   40  C   UNL     1      25.963  47.873  12.633  1.00  0.00     0.012 C 
HETATM   41  C   UNL     1      24.583  47.582  14.710  1.00  0.00     0.012 C 
ENDBRANCH  18  39
BRANCH  17  42
HETATM   42  C   UNL     1      31.310  47.235   9.998  1.00  0.00     0.016 C 
HETATM   43  C   UNL     1      30.839  46.618   8.681  1.00  0.00     0.012 C 
HETATM   44  C   UNL     1      32.738  46.792  10.314  1.00  0.00     0.012 C 
ENDBRANCH  17  42
BRANCH  15  45
HETATM   45  C   UNL     1      29.491  51.622  12.050  1.00  0.00     0.014 C 
HETATM   46  C   UNL     1      29.851  52.725  13.051  1.00  0.00     0.012 C 
BRANCH  45  47
HETATM   47  C   UNL     1      30.488  51.643  10.875  1.00  0.00     0.002 C 
HETATM   48  C   UNL     1      30.149  52.675   9.811  1.00  0.00     0.005 C 
ENDBRANCH  45  47
ENDBRANCH  15  45
TORSDOF 9
ENDMDL
MODEL 14
REMARK VINA RESULT:    -5.083      9.107     12.761
REMARK INTER + INTRA:          -7.103
REMARK INTER:                  -7.531
REMARK INTRA:                   0.428
REMARK UNBOUND:                 0.653
REMARK  9 active torsions:
REMARK  status: ('A' for Active; 'I' for Inactive)
REMARK    1  A    between atoms: C_13  and  C_16 
REMARK    2  A    between atoms: C_14  and  C_17 
REMARK    3  A    between atoms: C_15  and  C_18 
REMARK    4  A    between atoms: C_16  and  C_22 
REMARK    5  A    between atoms: C_17  and  C_23 
REMARK    6  A    between atoms: C_18  and  C_24 
REMARK    7  A    between atoms: C_19  and  C_25 
REMARK    8  A    between atoms: C_20  and  C_26 
REMARK    9  A    between atoms: C_21  and  C_27 
ROOT
HETATM    1  O   UNL     1      32.688  49.661  27.770  1.00  0.00    -0.304 OA
HETATM    2  O   UNL     1      32.258  52.952  23.928  1.00  0.00    -0.304 OA
HETATM    3  O   UNL     1      29.650  52.341  27.964  1.00  0.00    -0.304 OA
HETATM    4  O   UNL     1      34.145  50.690  25.888  1.00  0.00    -0.270 OA
HETATM    5  O   UNL     1      27.969  50.650  30.454  1.00  0.00    -0.270 OA
HETATM    6  O   UNL     1      32.301  53.362  26.530  1.00  0.00    -0.270 OA
HETATM    7  O   UNL     1      31.260  48.179  28.810  1.00  0.00    -0.263 OA
HETATM    8  O   UNL     1      30.660  51.287  24.015  1.00  0.00    -0.263 OA
HETATM    9  O   UNL     1      28.982  53.528  29.818  1.00  0.00    -0.263 OA
HETATM   10  N   UNL     1      32.883  49.592  24.280  1.00  0.00    -0.340 N 
HETATM   11  N   UNL     1      30.256  50.280  30.335  1.00  0.00    -0.340 N 
HETATM   12  N   UNL     1      30.306  54.543  26.640  1.00  0.00    -0.340 N 
HETATM   13  C   UNL     1      32.953  50.761  23.380  1.00  0.00     0.190 C 
HETATM   14  C   UNL     1      31.559  50.451  29.659  1.00  0.00     0.190 C 
HETATM   15  C   UNL     1      30.352  54.604  28.120  1.00  0.00     0.190 C 
HETATM   16  C   UNL     1      32.918  48.785  26.646  1.00  0.00     0.227 C 
HETATM   17  C   UNL     1      31.320  53.929  24.421  1.00  0.00     0.227 C 
HETATM   18  C   UNL     1      28.980  51.129  28.325  1.00  0.00     0.227 C 
HETATM   19  C   UNL     1      33.396  49.757  25.575  1.00  0.00     0.250 C 
HETATM   20  C   UNL     1      29.020  50.683  29.803  1.00  0.00     0.250 C 
HETATM   21  C   UNL     1      31.355  53.913  25.953  1.00  0.00     0.250 C 
HETATM   22  C   UNL     1      31.793  49.275  28.724  1.00  0.00     0.283 C 
HETATM   23  C   UNL     1      31.806  51.667  23.806  1.00  0.00     0.283 C 
HETATM   24  C   UNL     1      29.542  53.461  28.731  1.00  0.00     0.283 C 
HETATM   25  C   UNL     1      32.169  48.394  23.834  1.00  0.00     0.153 C 
HETATM   26  C   UNL     1      30.255  49.643  31.652  1.00  0.00     0.153 C 
HETATM   27  C   UNL     1      29.106  55.093  26.002  1.00  0.00     0.153 C 
ENDROOT
BRANCH  16  28
HETATM   28  C   UNL     1      34.001  47.776  26.978  1.00  0.00     0.016 C 
HETATM   29  C   UNL     1      34.862  47.485  25.751  1.00  0.00     0.012 C 
HETATM   30  C   UNL     1      33.388  46.485  27.519  1.00  0.00     0.012 C 
ENDBRANCH  16  28
BRANCH  14  31
HETATM   31  C   UNL     1      32.754  50.623  30.594  1.00  0.00     0.014 C 
HETATM   32  C   UNL     1      33.633  49.371  30.546  1.00  0.00     0.012 C 
BRANCH  31  33
HETATM   33  C   UNL     1      33.595  51.864  30.247  1.00  0.00     0.002 C 
HETATM   34  C   UNL     1      34.971  51.531  29.690  1.00  0.00     0.005 C 
ENDBRANCH  31  33
ENDBRANCH  14  31
BRANCH  13  35
HETATM   35  C   UNL     1      32.859  50.477  21.887  1.00  0.00     0.014 C 
HETATM   36  C   UNL     1      32.625  51.783  21.124  1.00  0.00     0.012 C 
BRANCH  35  37
HETATM   37  C   UNL     1      34.114  49.773  21.342  1.00  0.00     0.002 C 
HETATM   38  C   UNL     1      33.803  48.631  20.383  1.00  0.00     0.005 C 
ENDBRANCH  35  37
ENDBRANCH  13  35
BRANCH  18  39
HETATM   39  C   UNL     1      27.543  51.226  27.809  1.00  0.00     0.016 C 
HETATM   40  C   UNL     1      27.496  52.001  26.495  1.00  0.00     0.012 C 
HETATM   41  C   UNL     1      26.941  49.833  27.633  1.00  0.00     0.012 C 
ENDBRANCH  18  39
BRANCH  17  42
HETATM   42  C   UNL     1      31.775  55.285  23.900  1.00  0.00     0.016 C 
HETATM   43  C   UNL     1      31.087  55.614  22.575  1.00  0.00     0.012 C 
HETATM   44  C   UNL     1      33.294  55.320  23.737  1.00  0.00     0.012 C 
ENDBRANCH  17  42
BRANCH  15  45
HETATM   45  C   UNL     1      29.925  55.957  28.685  1.00  0.00     0.014 C 
HETATM   46  C   UNL     1      30.417  56.100  30.130  1.00  0.00     0.012 C 
BRANCH  45  47
HETATM   47  C   UNL     1      30.442  57.140  27.843  1.00  0.00     0.002 C 
HETATM   48  C   UNL     1      29.644  58.420  28.042  1.00  0.00     0.005 C 
ENDBRANCH  45  47
ENDBRANCH  15  45
TORSDOF 9
ENDMDL
MODEL 15
REMARK VINA RESULT:    -5.056     12.867     17.668
REMARK INTER + INTRA:          -7.062
REMARK INTER:                  -7.435
REMARK INTRA:                   0.372
REMARK UNBOUND:                 0.653
REMARK  9 active torsions:
REMARK  status: ('A' for Active; 'I' for Inactive)
REMARK    1  A    between atoms: C_13  and  C_16 
REMARK    2  A    between atoms: C_14  and  C_17 
REMARK    3  A    between atoms: C_15  and  C_18 
REMARK    4  A    between atoms: C_16  and  C_22 
REMARK    5  A    between atoms: C_17  and  C_23 
REMARK    6  A    between atoms: C_18  and  C_24 
REMARK    7  A    between atoms: C_19  and  C_25 
REMARK    8  A    between atoms: C_20  and  C_26 
REMARK    9  A    between atoms: C_21  and  C_27 
ROOT
HETATM    1  O   UNL     1      31.621  50.079  21.516  1.00  0.00    -0.304 OA
HETATM    2  O   UNL     1      29.790  48.744  16.974  1.00  0.00    -0.304 OA
HETATM    3  O   UNL     1      28.194  51.877  20.305  1.00  0.00    -0.304 OA
HETATM    4  O   UNL     1      32.444  49.021  19.297  1.00  0.00    -0.270 OA
HETATM    5  O   UNL     1      27.410  53.083  23.439  1.00  0.00    -0.270 OA
HETATM    6  O   UNL     1      30.250  51.129  17.995  1.00  0.00    -0.270 OA
HETATM    7  O   UNL     1      30.757  50.186  23.652  1.00  0.00    -0.263 OA
HETATM    8  O   UNL     1      28.616  47.967  18.803  1.00  0.00    -0.263 OA
HETATM    9  O   UNL     1      27.667  54.108  20.506  1.00  0.00    -0.263 OA
HETATM   10  N   UNL     1      31.147  47.136  19.689  1.00  0.00    -0.340 N 
HETATM   11  N   UNL     1      29.656  52.668  23.038  1.00  0.00    -0.340 N 
HETATM   12  N   UNL     1      28.115  51.973  17.656  1.00  0.00    -0.340 N 
HETATM   13  C   UNL     1      30.801  47.037  18.257  1.00  0.00     0.190 C 
HETATM   14  C   UNL     1      30.740  52.140  22.184  1.00  0.00     0.190 C 
HETATM   15  C   UNL     1      28.433  53.232  18.369  1.00  0.00     0.190 C 
HETATM   16  C   UNL     1      31.804  48.648  21.568  1.00  0.00     0.227 C 
HETATM   17  C   UNL     1      28.784  49.742  16.706  1.00  0.00     0.227 C 
HETATM   18  C   UNL     1      27.869  51.534  21.656  1.00  0.00     0.227 C 
HETATM   19  C   UNL     1      31.856  48.278  20.092  1.00  0.00     0.250 C 
HETATM   20  C   UNL     1      28.285  52.510  22.778  1.00  0.00     0.250 C 
HETATM   21  C   UNL     1      29.118  51.002  17.512  1.00  0.00     0.250 C 
HETATM   22  C   UNL     1      31.026  50.699  22.576  1.00  0.00     0.283 C 
HETATM   23  C   UNL     1      29.596  47.949  18.069  1.00  0.00     0.283 C 
HETATM   24  C   UNL     1      28.009  53.142  19.836  1.00  0.00     0.283 C 
HETATM   25  C   UNL     1      30.622  46.134  20.618  1.00  0.00     0.153 C 
HETATM   26  C   UNL     1      30.041  53.406  24.241  1.00  0.00     0.153 C 
HETATM   27  C   UNL     1      26.727  51.807  17.212  1.00  0.00     0.153 C 
ENDROOT
BRANCH  16  28
HETATM   28  C   UNL     1      33.115  48.310  22.254  1.00  0.00     0.016 C 
HETATM   29  C   UNL     1      33.749  47.071  21.624  1.00  0.00     0.012 C 
HETATM   30  C   UNL     1      32.902  48.099  23.752  1.00  0.00     0.012 C 
ENDBRANCH  16  28
BRANCH  14  31
HETATM   31  C   UNL     1      32.033  52.954  22.203  1.00  0.00     0.014 C 
HETATM   32  C   UNL     1      33.116  52.187  22.966  1.00  0.00     0.012 C 
BRANCH  31  33
HETATM   33  C   UNL     1      32.533  53.292  20.787  1.00  0.00     0.002 C 
HETATM   34  C   UNL     1      31.604  54.222  20.020  1.00  0.00     0.005 C 
ENDBRANCH  31  33
ENDBRANCH  14  31
BRANCH  13  35
HETATM   35  C   UNL     1      30.480  45.645  17.730  1.00  0.00     0.014 C 
HETATM   36  C   UNL     1      29.548  45.751  16.519  1.00  0.00     0.012 C 
BRANCH  35  37
HETATM   37  C   UNL     1      31.743  44.855  17.346  1.00  0.00     0.002 C 
HETATM   38  C   UNL     1      31.472  43.698  16.394  1.00  0.00     0.005 C 
ENDBRANCH  35  37
ENDBRANCH  13  35
BRANCH  18  39
HETATM   39  C   UNL     1      26.371  51.230  21.707  1.00  0.00     0.016 C 
HETATM   40  C   UNL     1      25.892  50.669  20.370  1.00  0.00     0.012 C 
HETATM   41  C   UNL     1      26.060  50.255  22.841  1.00  0.00     0.012 C 
ENDBRANCH  18  39
BRANCH  17  42
HETATM   42  C   UNL     1      28.841  50.043  15.215  1.00  0.00     0.016 C 
HETATM   43  C   UNL     1      27.669  49.387  14.486  1.00  0.00     0.012 C 
HETATM   44  C   UNL     1      30.169  49.576  14.619  1.00  0.00     0.012 C 
ENDBRANCH  17  42
BRANCH  15  45
HETATM   45  C   UNL     1      27.855  54.475  17.695  1.00  0.00     0.014 C 
HETATM   46  C   UNL     1      28.517  55.735  18.262  1.00  0.00     0.012 C 
BRANCH  45  47
HETATM   47  C   UNL     1      28.020  54.447  16.163  1.00  0.00     0.002 C 
HETATM   48  C   UNL     1      27.801  55.802  15.506  1.00  0.00     0.005 C 
ENDBRANCH  45  47
ENDBRANCH  15  45
TORSDOF 9
ENDMDL
MODEL 16
REMARK VINA RESULT:    -5.032      6.869     11.885
REMARK INTER + INTRA:          -7.027
REMARK INTER:                  -7.639
REMARK INTRA:                   0.613
REMARK UNBOUND:                 0.653
REMARK  9 active torsions:
REMARK  status: ('A' for Active; 'I' for Inactive)
REMARK    1  A    between atoms: C_13  and  C_16 
REMARK    2  A    between atoms: C_14  and  C_17 
REMARK    3  A    between atoms: C_15  and  C_18 
REMARK    4  A    between atoms: C_16  and  C_22 
REMARK    5  A    between atoms: C_17  and  C_23 
REMARK    6  A    between atoms: C_18  and  C_24 
REMARK    7  A    between atoms: C_19  and  C_25 
REMARK    8  A    between atoms: C_20  and  C_26 
REMARK    9  A    between atoms: C_21  and  C_27 
ROOT
HETATM    1  O   UNL     1      31.265  51.554  27.230  1.00  0.00    -0.304 OA
HETATM    2  O   UNL     1      30.486  51.287  32.239  1.00  0.00    -0.304 OA
HETATM    3  O   UNL     1      33.846  49.284  29.383  1.00  0.00    -0.304 OA
HETATM    4  O   UNL     1      30.082  52.890  29.112  1.00  0.00    -0.270 OA
HETATM    5  O   UNL     1      35.145  47.678  26.623  1.00  0.00    -0.270 OA
HETATM    6  O   UNL     1      32.674  51.836  30.879  1.00  0.00    -0.270 OA
HETATM    7  O   UNL     1      31.534  50.007  25.541  1.00  0.00    -0.263 OA
HETATM    8  O   UNL     1      29.975  49.384  31.036  1.00  0.00    -0.263 OA
HETATM    9  O   UNL     1      36.134  49.211  29.150  1.00  0.00    -0.263 OA
HETATM   10  N   UNL     1      28.552  51.170  29.403  1.00  0.00    -0.340 N 
HETATM   11  N   UNL     1      34.216  49.769  26.242  1.00  0.00    -0.340 N 
HETATM   12  N   UNL     1      34.007  50.210  31.862  1.00  0.00    -0.340 N 
HETATM   13  C   UNL     1      28.564  51.363  30.867  1.00  0.00     0.190 C 
HETATM   14  C   UNL     1      33.462  50.951  26.708  1.00  0.00     0.190 C 
HETATM   15  C   UNL     1      35.141  50.504  30.956  1.00  0.00     0.190 C 
HETATM   16  C   UNL     1      29.830  51.394  27.266  1.00  0.00     0.227 C 
HETATM   17  C   UNL     1      31.698  50.689  32.741  1.00  0.00     0.227 C 
HETATM   18  C   UNL     1      33.565  48.419  28.278  1.00  0.00     0.227 C 
HETATM   19  C   UNL     1      29.485  51.906  28.658  1.00  0.00     0.250 C 
HETATM   20  C   UNL     1      34.393  48.591  26.986  1.00  0.00     0.250 C 
HETATM   21  C   UNL     1      32.828  50.963  31.742  1.00  0.00     0.250 C 
HETATM   22  C   UNL     1      31.988  50.757  26.392  1.00  0.00     0.283 C 
HETATM   23  C   UNL     1      29.739  50.537  31.373  1.00  0.00     0.283 C 
HETATM   24  C   UNL     1      35.127  49.560  29.753  1.00  0.00     0.283 C 
HETATM   25  C   UNL     1      27.686  50.138  28.830  1.00  0.00     0.153 C 
HETATM   26  C   UNL     1      34.820  49.831  24.911  1.00  0.00     0.153 C 
HETATM   27  C   UNL     1      34.182  49.083  32.784  1.00  0.00     0.153 C 
ENDROOT
BRANCH  16  28
HETATM   28  C   UNL     1      29.178  52.255  26.199  1.00  0.00     0.016 C 
HETATM   29  C   UNL     1      28.238  53.278  26.833  1.00  0.00     0.012 C 
HETATM   30  C   UNL     1      28.425  51.388  25.192  1.00  0.00     0.012 C 
ENDBRANCH  16  28
BRANCH  14  31
HETATM   31  C   UNL     1      33.946  52.288  26.147  1.00  0.00     0.014 C 
HETATM   32  C   UNL     1      32.746  53.129  25.707  1.00  0.00     0.012 C 
BRANCH  31  33
HETATM   33  C   UNL     1      34.792  53.076  27.162  1.00  0.00     0.002 C 
HETATM   34  C   UNL     1      34.181  53.126  28.555  1.00  0.00     0.005 C 
ENDBRANCH  31  33
ENDBRANCH  14  31
BRANCH  13  35
HETATM   35  C   UNL     1      27.298  50.970  31.615  1.00  0.00     0.014 C 
HETATM   36  C   UNL     1      27.578  50.921  33.120  1.00  0.00     0.012 C 
BRANCH  35  37
HETATM   37  C   UNL     1      26.127  51.928  31.335  1.00  0.00     0.002 C 
HETATM   38  C   UNL     1      24.819  51.214  31.019  1.00  0.00     0.005 C 
ENDBRANCH  35  37
ENDBRANCH  13  35
BRANCH  18  39
HETATM   39  C   UNL     1      33.623  46.980  28.793  1.00  0.00     0.016 C 
HETATM   40  C   UNL     1      32.955  46.872  30.161  1.00  0.00     0.012 C 
HETATM   41  C   UNL     1      32.965  46.027  27.797  1.00  0.00     0.012 C 
ENDBRANCH  18  39
BRANCH  17  42
HETATM   42  C   UNL     1      32.004  51.355  34.075  1.00  0.00     0.016 C 
HETATM   43  C   UNL     1      30.713  51.699  34.817  1.00  0.00     0.012 C 
HETATM   44  C   UNL     1      32.853  52.609  33.871  1.00  0.00     0.012 C 
ENDBRANCH  17  42
BRANCH  15  45
HETATM   45  C   UNL     1      36.497  50.495  31.659  1.00  0.00     0.014 C 
HETATM   46  C   UNL     1      37.531  51.246  30.811  1.00  0.00     0.012 C 
BRANCH  45  47
HETATM   47  C   UNL     1      36.437  51.113  33.069  1.00  0.00     0.002 C 
HETATM   48  C   UNL     1      37.403  50.471  34.053  1.00  0.00     0.005 C 
ENDBRANCH  45  47
ENDBRANCH  15  45
TORSDOF 9
ENDMDL
MODEL 17
REMARK VINA RESULT:    -4.997     16.074     21.256
REMARK INTER + INTRA:          -6.973
REMARK INTER:                  -8.023
REMARK INTRA:                   1.049
REMARK UNBOUND:                 0.653
REMARK  9 active torsions:
REMARK  status: ('A' for Active; 'I' for Inactive)
REMARK    1  A    between atoms: C_13  and  C_16 
REMARK    2  A    between atoms: C_14  and  C_17 
REMARK    3  A    between atoms: C_15  and  C_18 
REMARK    4  A    between atoms: C_16  and  C_22 
REMARK    5  A    between atoms: C_17  and  C_23 
REMARK    6  A    between atoms: C_18  and  C_24 
REMARK    7  A    between atoms: C_19  and  C_25 
REMARK    8  A    between atoms: C_20  and  C_26 
REMARK    9  A    between atoms: C_21  and  C_27 
ROOT
HETATM    1  O   UNL     1      30.225  45.517  16.633  1.00  0.00    -0.304 OA
HETATM    2  O   UNL     1      27.523  49.682  17.688  1.00  0.00    -0.304 OA
HETATM    3  O   UNL     1      29.399  48.014  13.546  1.00  0.00    -0.304 OA
HETATM    4  O   UNL     1      28.585  46.393  18.440  1.00  0.00    -0.270 OA
HETATM    5  O   UNL     1      31.735  46.604  11.438  1.00  0.00    -0.270 OA
HETATM    6  O   UNL     1      27.182  47.854  15.823  1.00  0.00    -0.270 OA
HETATM    7  O   UNL     1      32.235  45.104  15.578  1.00  0.00    -0.263 OA
HETATM    8  O   UNL     1      29.760  50.020  17.229  1.00  0.00    -0.263 OA
HETATM    9  O   UNL     1      28.724  47.407  11.432  1.00  0.00    -0.263 OA
HETATM   10  N   UNL     1      30.140  47.976  19.117  1.00  0.00    -0.340 N 
HETATM   11  N   UNL     1      30.926  45.234  13.125  1.00  0.00    -0.340 N 
HETATM   12  N   UNL     1      27.142  49.320  14.025  1.00  0.00    -0.340 N 
HETATM   13  C   UNL     1      29.076  48.980  19.324  1.00  0.00     0.190 C 
HETATM   14  C   UNL     1      30.123  45.028  14.349  1.00  0.00     0.190 C 
HETATM   15  C   UNL     1      27.087  48.212  13.043  1.00  0.00     0.190 C 
HETATM   16  C   UNL     1      30.858  45.937  17.861  1.00  0.00     0.227 C 
HETATM   17  C   UNL     1      27.144  50.180  16.390  1.00  0.00     0.227 C 
HETATM   18  C   UNL     1      30.789  47.749  13.330  1.00  0.00     0.227 C 
HETATM   19  C   UNL     1      29.762  46.765  18.519  1.00  0.00     0.250 C 
HETATM   20  C   UNL     1      31.178  46.483  12.536  1.00  0.00     0.250 C 
HETATM   21  C   UNL     1      27.162  49.014  15.394  1.00  0.00     0.250 C 
HETATM   22  C   UNL     1      31.017  45.208  15.566  1.00  0.00     0.283 C 
HETATM   23  C   UNL     1      28.861  49.627  17.962  1.00  0.00     0.283 C 
HETATM   24  C   UNL     1      28.490  47.865  12.543  1.00  0.00     0.283 C 
HETATM   25  C   UNL     1      31.527  48.342  19.406  1.00  0.00     0.153 C 
HETATM   26  C   UNL     1      31.498  44.050  12.484  1.00  0.00     0.153 C 
HETATM   27  C   UNL     1      27.247  50.675  13.474  1.00  0.00     0.153 C 
ENDROOT
BRANCH  16  28
HETATM   28  C   UNL     1      31.205  44.731  18.714  1.00  0.00     0.016 C 
HETATM   29  C   UNL     1      30.301  43.549  18.368  1.00  0.00     0.012 C 
HETATM   30  C   UNL     1      31.096  45.071  20.199  1.00  0.00     0.012 C 
ENDBRANCH  16  28
BRANCH  14  31
HETATM   31  C   UNL     1      29.397  43.686  14.427  1.00  0.00     0.014 C 
HETATM   32  C   UNL     1      28.466  43.531  13.222  1.00  0.00     0.012 C 
BRANCH  31  33
HETATM   33  C   UNL     1      30.370  42.496  14.492  1.00  0.00     0.002 C 
HETATM   34  C   UNL     1      29.836  41.236  13.826  1.00  0.00     0.005 C 
ENDBRANCH  31  33
ENDBRANCH  14  31
BRANCH  13  35
HETATM   35  C   UNL     1      29.349  50.054  20.368  1.00  0.00     0.014 C 
HETATM   36  C   UNL     1      28.484  51.285  20.083  1.00  0.00     0.012 C 
BRANCH  35  37
HETATM   37  C   UNL     1      29.094  49.559  21.802  1.00  0.00     0.002 C 
HETATM   38  C   UNL     1      30.350  49.511  22.662  1.00  0.00     0.005 C 
ENDBRANCH  35  37
ENDBRANCH  13  35
BRANCH  18  39
HETATM   39  C   UNL     1      31.407  49.006  12.715  1.00  0.00     0.016 C 
HETATM   40  C   UNL     1      30.783  50.262  13.320  1.00  0.00     0.012 C 
HETATM   41  C   UNL     1      32.922  49.011  12.913  1.00  0.00     0.012 C 
ENDBRANCH  18  39
BRANCH  17  42
HETATM   42  C   UNL     1      25.732  50.736  16.520  1.00  0.00     0.016 C 
HETATM   43  C   UNL     1      25.767  52.237  16.803  1.00  0.00     0.012 C 
HETATM   44  C   UNL     1      24.962  50.002  17.617  1.00  0.00     0.012 C 
ENDBRANCH  17  42
BRANCH  15  45
HETATM   45  C   UNL     1      26.130  48.476  11.882  1.00  0.00     0.014 C 
HETATM   46  C   UNL     1      26.130  47.283  10.920  1.00  0.00     0.012 C 
BRANCH  45  47
HETATM   47  C   UNL     1      24.691  48.759  12.355  1.00  0.00     0.002 C 
HETATM   48  C   UNL     1      24.087  47.626  13.171  1.00  0.00     0.005 C 
ENDBRANCH  45  47
ENDBRANCH  15  45
TORSDOF 9
ENDMDL
MODEL 18
REMARK VINA RESULT:    -4.987      6.718     12.036
REMARK INTER + INTRA:          -6.957
REMARK INTER:                  -7.172
REMARK INTRA:                   0.215
REMARK UNBOUND:                 0.653
REMARK  9 active torsions:
REMARK  status: ('A' for Active; 'I' for Inactive)
REMARK    1  A    between atoms: C_13  and  C_16 
REMARK    2  A    between atoms: C_14  and  C_17 
REMARK    3  A    between atoms: C_15  and  C_18 
REMARK    4  A    between atoms: C_16  and  C_22 
REMARK    5  A    between atoms: C_17  and  C_23 
REMARK    6  A    between atoms: C_18  and  C_24 
REMARK    7  A    between atoms: C_19  and  C_25 
REMARK    8  A    between atoms: C_20  and  C_26 
REMARK    9  A    between atoms: C_21  and  C_27 
ROOT
HETATM    1  O   UNL     1      32.062  52.441  24.728  1.00  0.00    -0.304 OA
HETATM    2  O   UNL     1      35.884  52.138  28.054  1.00  0.00    -0.304 OA
HETATM    3  O   UNL     1      31.080  51.911  28.626  1.00  0.00    -0.304 OA
HETATM    4  O   UNL     1      34.595  51.891  24.769  1.00  0.00    -0.270 OA
HETATM    5  O   UNL     1      27.768  52.755  28.178  1.00  0.00    -0.270 OA
HETATM    6  O   UNL     1      33.806  50.560  27.695  1.00  0.00    -0.270 OA
HETATM    7  O   UNL     1      30.145  53.713  24.563  1.00  0.00    -0.263 OA
HETATM    8  O   UNL     1      34.648  54.086  28.113  1.00  0.00    -0.263 OA
HETATM    9  O   UNL     1      29.477  50.485  29.458  1.00  0.00    -0.263 OA
HETATM   10  N   UNL     1      35.086  54.085  25.340  1.00  0.00    -0.340 N 
HETATM   11  N   UNL     1      28.877  51.952  26.307  1.00  0.00    -0.340 N 
HETATM   12  N   UNL     1      33.037  50.638  29.883  1.00  0.00    -0.340 N 
HETATM   13  C   UNL     1      36.159  53.643  26.254  1.00  0.00     0.190 C 
HETATM   14  C   UNL     1      30.114  51.513  25.628  1.00  0.00     0.190 C 
HETATM   15  C   UNL     1      31.825  49.854  29.551  1.00  0.00     0.190 C 
HETATM   16  C   UNL     1      32.913  53.505  24.250  1.00  0.00     0.227 C 
HETATM   17  C   UNL     1      35.252  51.656  29.257  1.00  0.00     0.227 C 
HETATM   18  C   UNL     1      30.165  52.942  28.244  1.00  0.00     0.227 C 
HETATM   19  C   UNL     1      34.278  53.086  24.779  1.00  0.00     0.250 C 
HETATM   20  C   UNL     1      28.830  52.528  27.587  1.00  0.00     0.250 C 
HETATM   21  C   UNL     1      33.970  50.908  28.870  1.00  0.00     0.250 C 
HETATM   22  C   UNL     1      30.735  52.699  24.908  1.00  0.00     0.283 C 
HETATM   23  C   UNL     1      35.464  53.348  27.577  1.00  0.00     0.283 C 
HETATM   24  C   UNL     1      30.647  50.784  29.256  1.00  0.00     0.283 C 
HETATM   25  C   UNL     1      34.835  55.519  25.183  1.00  0.00     0.153 C 
HETATM   26  C   UNL     1      27.613  51.775  25.592  1.00  0.00     0.153 C 
HETATM   27  C   UNL     1      33.132  51.142  31.257  1.00  0.00     0.153 C 
ENDROOT
BRANCH  16  28
HETATM   28  C   UNL     1      32.911  53.538  22.732  1.00  0.00     0.016 C 
HETATM   29  C   UNL     1      32.011  54.661  22.219  1.00  0.00     0.012 C 
HETATM   30  C   UNL     1      32.465  52.192  22.164  1.00  0.00     0.012 C 
ENDBRANCH  16  28
BRANCH  14  31
HETATM   31  C   UNL     1      29.939  50.345  24.658  1.00  0.00     0.014 C 
HETATM   32  C   UNL     1      29.598  50.878  23.264  1.00  0.00     0.012 C 
BRANCH  31  33
HETATM   33  C   UNL     1      31.191  49.453  24.584  1.00  0.00     0.002 C 
HETATM   34  C   UNL     1      31.598  48.863  25.927  1.00  0.00     0.005 C 
ENDBRANCH  31  33
ENDBRANCH  14  31
BRANCH  13  35
HETATM   35  C   UNL     1      37.306  54.618  26.479  1.00  0.00     0.014 C 
HETATM   36  C   UNL     1      38.018  54.286  27.794  1.00  0.00     0.012 C 
BRANCH  35  37
HETATM   37  C   UNL     1      38.320  54.611  25.322  1.00  0.00     0.002 C 
HETATM   38  C   UNL     1      38.510  53.239  24.688  1.00  0.00     0.005 C 
ENDBRANCH  35  37
ENDBRANCH  13  35
BRANCH  18  39
HETATM   39  C   UNL     1      29.934  53.831  29.467  1.00  0.00     0.016 C 
HETATM   40  C   UNL     1      31.214  53.955  30.289  1.00  0.00     0.012 C 
HETATM   41  C   UNL     1      29.433  55.210  29.041  1.00  0.00     0.012 C 
ENDBRANCH  18  39
BRANCH  17  42
HETATM   42  C   UNL     1      36.233  50.704  29.927  1.00  0.00     0.016 C 
HETATM   43  C   UNL     1      36.836  51.342  31.178  1.00  0.00     0.012 C 
HETATM   44  C   UNL     1      37.335  50.291  28.952  1.00  0.00     0.012 C 
ENDBRANCH  17  42
BRANCH  15  45
HETATM   45  C   UNL     1      31.466  48.813  30.609  1.00  0.00     0.014 C 
HETATM   46  C   UNL     1      30.321  47.927  30.106  1.00  0.00     0.012 C 
BRANCH  45  47
HETATM   47  C   UNL     1      32.667  47.933  31.006  1.00  0.00     0.002 C 
HETATM   48  C   UNL     1      32.802  47.734  32.507  1.00  0.00     0.005 C 
ENDBRANCH  45  47
ENDBRANCH  15  45
TORSDOF 9
ENDMDL
MODEL 19
REMARK VINA RESULT:    -4.804     16.677     22.140
REMARK INTER + INTRA:          -6.678
REMARK INTER:                  -8.163
REMARK INTRA:                   1.485
REMARK UNBOUND:                 0.653
REMARK  9 active torsions:
REMARK  status: ('A' for Active; 'I' for Inactive)
REMARK    1  A    between atoms: C_13  and  C_16 
REMARK    2  A    between atoms: C_14  and  C_17 
REMARK    3  A    between atoms: C_15  and  C_18 
REMARK    4  A    between atoms: C_16  and  C_22 
REMARK    5  A    between atoms: C_17  and  C_23 
REMARK    6  A    between atoms: C_18  and  C_24 
REMARK    7  A    between atoms: C_19  and  C_25 
REMARK    8  A    between atoms: C_20  and  C_26 
REMARK    9  A    between atoms: C_21  and  C_27 
ROOT
HETATM    1  O   UNL     1      29.657  47.408  16.545  1.00  0.00    -0.304 OA
HETATM    2  O   UNL     1      25.659  49.849  18.503  1.00  0.00    -0.304 OA
HETATM    3  O   UNL     1      26.728  48.519  13.969  1.00  0.00    -0.304 OA
HETATM    4  O   UNL     1      28.462  47.715  18.826  1.00  0.00    -0.270 OA
HETATM    5  O   UNL     1      28.659  48.037  11.154  1.00  0.00    -0.270 OA
HETATM    6  O   UNL     1      25.767  47.757  16.905  1.00  0.00    -0.270 OA
HETATM    7  O   UNL     1      31.134  47.825  14.824  1.00  0.00    -0.263 OA
HETATM    8  O   UNL     1      27.110  51.133  17.247  1.00  0.00    -0.263 OA
HETATM    9  O   UNL     1      25.851  47.255  12.258  1.00  0.00    -0.263 OA
HETATM   10  N   UNL     1      29.073  49.953  18.871  1.00  0.00    -0.340 N 
HETATM   11  N   UNL     1      29.264  46.812  13.028  1.00  0.00    -0.340 N 
HETATM   12  N   UNL     1      24.404  48.629  15.242  1.00  0.00    -0.340 N 
HETATM   13  C   UNL     1      27.769  50.331  19.452  1.00  0.00     0.190 C 
HETATM   14  C   UNL     1      29.119  46.489  14.463  1.00  0.00     0.190 C 
HETATM   15  C   UNL     1      24.636  47.464  14.356  1.00  0.00     0.190 C 
HETATM   16  C   UNL     1      30.320  48.317  17.450  1.00  0.00     0.227 C 
HETATM   17  C   UNL     1      24.692  49.830  17.434  1.00  0.00     0.227 C 
HETATM   18  C   UNL     1      27.899  48.927  13.256  1.00  0.00     0.227 C 
HETATM   19  C   UNL     1      29.222  48.620  18.462  1.00  0.00     0.250 C 
HETATM   20  C   UNL     1      28.624  47.881  12.381  1.00  0.00     0.250 C 
HETATM   21  C   UNL     1      25.008  48.650  16.508  1.00  0.00     0.250 C 
HETATM   22  C   UNL     1      30.112  47.319  15.263  1.00  0.00     0.283 C 
HETATM   23  C   UNL     1      26.834  50.507  18.262  1.00  0.00     0.283 C 
HETATM   24  C   UNL     1      25.772  47.752  13.375  1.00  0.00     0.283 C 
HETATM   25  C   UNL     1      30.069  50.996  18.625  1.00  0.00     0.153 C 
HETATM   26  C   UNL     1      30.139  45.956  12.227  1.00  0.00     0.153 C 
HETATM   27  C   UNL     1      23.604  49.724  14.684  1.00  0.00     0.153 C 
ENDROOT
BRANCH  16  28
HETATM   28  C   UNL     1      31.494  47.628  18.120  1.00  0.00     0.016 C 
HETATM   29  C   UNL     1      31.232  46.130  18.260  1.00  0.00     0.012 C 
HETATM   30  C   UNL     1      31.778  48.252  19.486  1.00  0.00     0.012 C 
ENDBRANCH  16  28
BRANCH  14  31
HETATM   31  C   UNL     1      29.273  45.010  14.812  1.00  0.00     0.014 C 
HETATM   32  C   UNL     1      28.527  44.156  13.784  1.00  0.00     0.012 C 
BRANCH  31  33
HETATM   33  C   UNL     1      30.747  44.575  14.881  1.00  0.00     0.002 C 
HETATM   34  C   UNL     1      30.985  43.372  15.783  1.00  0.00     0.005 C 
ENDBRANCH  31  33
ENDBRANCH  14  31
BRANCH  13  35
HETATM   35  C   UNL     1      27.746  51.585  20.315  1.00  0.00     0.014 C 
HETATM   36  C   UNL     1      26.346  52.205  20.292  1.00  0.00     0.012 C 
BRANCH  35  37
HETATM   37  C   UNL     1      28.168  51.307  21.768  1.00  0.00     0.002 C 
HETATM   38  C   UNL     1      29.483  51.969  22.158  1.00  0.00     0.005 C 
ENDBRANCH  35  37
ENDBRANCH  13  35
BRANCH  18  39
HETATM   39  C   UNL     1      27.536  50.175  12.449  1.00  0.00     0.016 C 
HETATM   40  C   UNL     1      26.541  51.040  13.218  1.00  0.00     0.012 C 
HETATM   41  C   UNL     1      28.791  50.976  12.107  1.00  0.00     0.012 C 
ENDBRANCH  18  39
BRANCH  17  42
HETATM   42  C   UNL     1      23.324  49.643  18.073  1.00  0.00     0.016 C 
HETATM   43  C   UNL     1      22.413  50.829  17.758  1.00  0.00     0.012 C 
HETATM   44  C   UNL     1      23.455  49.457  19.585  1.00  0.00     0.012 C 
ENDBRANCH  17  42
BRANCH  15  45
HETATM   45  C   UNL     1      23.376  46.993  13.630  1.00  0.00     0.014 C 
HETATM   46  C   UNL     1      22.307  46.582  14.649  1.00  0.00     0.012 C 
BRANCH  45  47
HETATM   47  C   UNL     1      22.803  48.065  12.683  1.00  0.00     0.002 C 
HETATM   48  C   UNL     1      21.298  47.960  12.489  1.00  0.00     0.005 C 
ENDBRANCH  45  47
ENDBRANCH  15  45
TORSDOF 9
ENDMDL
MODEL 20
REMARK VINA RESULT:    -4.746      7.683     12.738
REMARK INTER + INTRA:          -6.590
REMARK INTER:                  -6.704
REMARK INTRA:                   0.114
REMARK UNBOUND:                 0.653
REMARK  9 active torsions:
REMARK  status: ('A' for Active; 'I' for Inactive)
REMARK    1  A    between atoms: C_13  and  C_16 
REMARK    2  A    between atoms: C_14  and  C_17 
REMARK    3  A    between atoms: C_15  and  C_18 
REMARK    4  A    between atoms: C_16  and  C_22 
REMARK    5  A    between atoms: C_17  and  C_23 
REMARK    6  A    between atoms: C_18  and  C_24 
REMARK    7  A    between atoms: C_19  and  C_25 
REMARK    8  A    between atoms: C_20  and  C_26 
REMARK    9  A    between atoms: C_21  and  C_27 
ROOT
HETATM    1  O   UNL     1      33.527  51.464  25.258  1.00  0.00    -0.304 OA
HETATM    2  O   UNL     1      28.625  52.359  26.225  1.00  0.00    -0.304 OA
HETATM    3  O   UNL     1      32.201  50.633  28.999  1.00  0.00    -0.304 OA
HETATM    4  O   UNL     1      31.568  52.891  24.337  1.00  0.00    -0.270 OA
HETATM    5  O   UNL     1      34.963  48.750  29.843  1.00  0.00    -0.270 OA
HETATM    6  O   UNL     1      30.786  53.085  27.547  1.00  0.00    -0.270 OA
HETATM    7  O   UNL     1      34.929  49.649  25.504  1.00  0.00    -0.263 OA
HETATM    8  O   UNL     1      29.231  50.138  26.058  1.00  0.00    -0.263 OA
HETATM    9  O   UNL     1      33.277  51.113  30.976  1.00  0.00    -0.263 OA
HETATM   10  N   UNL     1      30.451  50.970  23.670  1.00  0.00    -0.340 N 
HETATM   11  N   UNL     1      35.279  50.334  28.179  1.00  0.00    -0.340 N 
HETATM   12  N   UNL     1      30.148  52.202  29.595  1.00  0.00    -0.340 N 
HETATM   13  C   UNL     1      29.152  51.546  24.071  1.00  0.00     0.190 C 
HETATM   14  C   UNL     1      34.750  51.352  27.247  1.00  0.00     0.190 C 
HETATM   15  C   UNL     1      31.453  52.532  30.214  1.00  0.00     0.190 C 
HETATM   16  C   UNL     1      32.921  50.942  24.055  1.00  0.00     0.227 C 
HETATM   17  C   UNL     1      28.539  52.265  27.661  1.00  0.00     0.227 C 
HETATM   18  C   UNL     1      32.966  49.460  28.705  1.00  0.00     0.227 C 
HETATM   19  C   UNL     1      31.601  51.699  24.008  1.00  0.00     0.250 C 
HETATM   20  C   UNL     1      34.486  49.492  28.975  1.00  0.00     0.250 C 
HETATM   21  C   UNL     1      29.923  52.551  28.255  1.00  0.00     0.250 C 
HETATM   22  C   UNL     1      34.443  50.694  25.911  1.00  0.00     0.283 C 
HETATM   23  C   UNL     1      29.013  51.233  25.555  1.00  0.00     0.283 C 
HETATM   24  C   UNL     1      32.397  51.331  30.153  1.00  0.00     0.283 C 
HETATM   25  C   UNL     1      30.482  49.629  23.082  1.00  0.00     0.153 C 
HETATM   26  C   UNL     1      36.732  50.194  28.275  1.00  0.00     0.153 C 
HETATM   27  C   UNL     1      29.201  51.455  30.429  1.00  0.00     0.153 C 
ENDROOT
BRANCH  16  28
HETATM   28  C   UNL     1      33.777  51.277  22.848  1.00  0.00     0.016 C 
HETATM   29  C   UNL     1      32.985  52.106  21.839  1.00  0.00     0.012 C 
HETATM   30  C   UNL     1      34.308  50.003  22.193  1.00  0.00     0.012 C 
ENDBRANCH  16  28
BRANCH  14  31
HETATM   31  C   UNL     1      35.653  52.566  27.037  1.00  0.00     0.014 C 
HETATM   32  C   UNL     1      36.381  52.444  25.696  1.00  0.00     0.012 C 
BRANCH  31  33
HETATM   33  C   UNL     1      34.873  53.891  27.089  1.00  0.00     0.002 C 
HETATM   34  C   UNL     1      34.910  54.672  25.783  1.00  0.00     0.005 C 
ENDBRANCH  31  33
ENDBRANCH  14  31
BRANCH  13  35
HETATM   35  C   UNL     1      27.925  51.046  23.321  1.00  0.00     0.014 C 
HETATM   36  C   UNL     1      26.667  51.305  24.153  1.00  0.00     0.012 C 
BRANCH  35  37
HETATM   37  C   UNL     1      27.776  51.699  21.935  1.00  0.00     0.002 C 
HETATM   38  C   UNL     1      26.640  51.113  21.106  1.00  0.00     0.005 C 
ENDBRANCH  35  37
ENDBRANCH  13  35
BRANCH  18  39
HETATM   39  C   UNL     1      32.296  48.283  29.417  1.00  0.00     0.016 C 
HETATM   40  C   UNL     1      30.776  48.414  29.354  1.00  0.00     0.012 C 
HETATM   41  C   UNL     1      32.747  46.959  28.803  1.00  0.00     0.012 C 
ENDBRANCH  18  39
BRANCH  17  42
HETATM   42  C   UNL     1      27.544  53.323  28.119  1.00  0.00     0.016 C 
HETATM   43  C   UNL     1      26.200  52.685  28.469  1.00  0.00     0.012 C 
HETATM   44  C   UNL     1      27.363  54.395  27.045  1.00  0.00     0.012 C 
ENDBRANCH  17  42
BRANCH  15  45
HETATM   45  C   UNL     1      31.330  53.076  31.636  1.00  0.00     0.014 C 
HETATM   46  C   UNL     1      32.633  53.772  32.045  1.00  0.00     0.012 C 
BRANCH  45  47
HETATM   47  C   UNL     1      30.149  54.052  31.797  1.00  0.00     0.002 C 
HETATM   48  C   UNL     1      29.514  54.013  33.178  1.00  0.00     0.005 C 
ENDBRANCH  45  47
ENDBRANCH  15  45
TORSDOF 9
ENDMDL
