MODEL 1
REMARK VINA RESULT:    -6.421      0.000      0.000
REMARK INTER + INTRA:          -9.803
REMARK INTER:                  -9.800
REMARK INTRA:                  -0.003
REMARK UNBOUND:                -0.003
REMARK  9 active torsions:
REMARK  status: ('A' for Active; 'I' for Inactive)
REMARK    1  A    between atoms: C_13  and  C_16 
REMARK    2  A    between atoms: C_14  and  C_17 
REMARK    3  A    between atoms: C_15  and  C_18 
REMARK    4  A    between atoms: C_16  and  C_22 
REMARK    5  A    between atoms: C_17  and  C_23 
REMARK    6  A    between atoms: C_18  and  C_24 
REMARK    7  A    between atoms: C_19  and  C_25 
REMARK    8  A    between atoms: C_20  and  C_26 
REMARK    9  A    between atoms: C_21  and  C_27 
ROOT
HETATM    1  O   UNL     1       5.571  23.444  15.948  1.00  0.00    -0.304 OA
HETATM    2  O   UNL     1       6.428  18.452  16.291  1.00  0.00    -0.304 OA
HETATM    3  O   UNL     1       4.361  21.144  12.835  1.00  0.00    -0.304 OA
HETATM    4  O   UNL     1       7.118  21.796  17.218  1.00  0.00    -0.270 OA
HETATM    5  O   UNL     1       2.358  23.592  11.464  1.00  0.00    -0.270 OA
HETATM    6  O   UNL     1       6.975  20.149  14.351  1.00  0.00    -0.270 OA
HETATM    7  O   UNL     1       3.720  24.752  15.518  1.00  0.00    -0.263 OA
HETATM    8  O   UNL     1       4.229  19.117  16.522  1.00  0.00    -0.263 OA
HETATM    9  O   UNL     1       4.610  21.619  10.597  1.00  0.00    -0.263 OA
HETATM   10  N   UNL     1       5.296  20.940  18.372  1.00  0.00    -0.340 N 
HETATM   11  N   UNL     1       4.107  24.333  12.794  1.00  0.00    -0.340 N 
HETATM   12  N   UNL     1       5.886  18.980  12.668  1.00  0.00    -0.340 N 
HETATM   13  C   UNL     1       5.845  19.571  18.289  1.00  0.00     0.190 C 
HETATM   14  C   UNL     1       5.228  24.067  13.721  1.00  0.00     0.190 C 
HETATM   15  C   UNL     1       6.128  20.056  11.679  1.00  0.00     0.190 C 
HETATM   16  C   UNL     1       5.191  23.205  17.320  1.00  0.00     0.227 C 
HETATM   17  C   UNL     1       6.181  17.972  14.955  1.00  0.00     0.227 C 
HETATM   18  C   UNL     1       3.216  21.979  13.029  1.00  0.00     0.227 C 
HETATM   19  C   UNL     1       5.968  21.938  17.652  1.00  0.00     0.250 C 
HETATM   20  C   UNL     1       3.196  23.363  12.345  1.00  0.00     0.250 C 
HETATM   21  C   UNL     1       6.381  19.132  13.973  1.00  0.00     0.250 C 
HETATM   22  C   UNL     1       4.722  24.155  15.152  1.00  0.00     0.283 C 
HETATM   23  C   UNL     1       5.375  19.030  16.945  1.00  0.00     0.283 C 
HETATM   24  C   UNL     1       4.927  20.999  11.604  1.00  0.00     0.283 C 
HETATM   25  C   UNL     1       4.026  21.154  19.069  1.00  0.00     0.153 C 
HETATM   26  C   UNL     1       3.937  25.704  12.313  1.00  0.00     0.153 C 
HETATM   27  C   UNL     1       5.067  17.851  12.216  1.00  0.00     0.153 C 
ENDROOT
BRANCH  16  28
HETATM   28  C   UNL     1       5.642  24.358  18.199  1.00  0.00     0.016 C 
HETATM   29  C   UNL     1       6.705  23.894  19.192  1.00  0.00     0.012 C 
HETATM   30  C   UNL     1       4.452  24.971  18.936  1.00  0.00     0.012 C 
ENDBRANCH  16  28
BRANCH  14  31
HETATM   31  C   UNL     1       6.444  24.973  13.539  1.00  0.00     0.014 C 
HETATM   32  C   UNL     1       6.471  26.031  14.645  1.00  0.00     0.012 C 
BRANCH  31  33
HETATM   33  C   UNL     1       7.766  24.185  13.539  1.00  0.00     0.002 C 
HETATM   34  C   UNL     1       7.797  23.049  12.526  1.00  0.00     0.005 C 
ENDBRANCH  31  33
ENDBRANCH  14  31
BRANCH  13  35
HETATM   35  C   UNL     1       5.446  18.610  19.400  1.00  0.00     0.014 C 
HETATM   36  C   UNL     1       5.499  17.169  18.883  1.00  0.00     0.012 C 
BRANCH  35  37
HETATM   37  C   UNL     1       6.337  18.749  20.646  1.00  0.00     0.002 C 
HETATM   38  C   UNL     1       6.335  17.513  21.537  1.00  0.00     0.005 C 
ENDBRANCH  35  37
ENDBRANCH  13  35
BRANCH  18  39
HETATM   39  C   UNL     1       1.979  21.157  12.663  1.00  0.00     0.016 C 
HETATM   40  C   UNL     1       2.161  19.699  13.078  1.00  0.00     0.012 C 
HETATM   41  C   UNL     1       0.730  21.748  13.314  1.00  0.00     0.012 C 
ENDBRANCH  18  39
BRANCH  17  42
HETATM   42  C   UNL     1       7.197  16.872  14.681  1.00  0.00     0.016 C 
HETATM   43  C   UNL     1       6.992  15.697  15.636  1.00  0.00     0.012 C 
HETATM   44  C   UNL     1       8.622  17.413  14.797  1.00  0.00     0.012 C 
ENDBRANCH  17  42
BRANCH  15  45
HETATM   45  C   UNL     1       6.517  19.534  10.298  1.00  0.00     0.014 C 
HETATM   46  C   UNL     1       7.240  20.631   9.507  1.00  0.00     0.012 C 
BRANCH  45  47
HETATM   47  C   UNL     1       7.404  18.276  10.368  1.00  0.00     0.002 C 
HETATM   48  C   UNL     1       8.832  18.565  10.807  1.00  0.00     0.005 C 
ENDBRANCH  45  47
ENDBRANCH  15  45
TORSDOF 9
ENDMDL
MODEL 2
REMARK VINA RESULT:    -5.394     17.400     22.833
REMARK INTER + INTRA:          -8.235
REMARK INTER:                  -9.167
REMARK INTRA:                   0.932
REMARK UNBOUND:                -0.003
REMARK  9 active torsions:
REMARK  status: ('A' for Active; 'I' for Inactive)
REMARK    1  A    between atoms: C_13  and  C_16 
REMARK    2  A    between atoms: C_14  and  C_17 
REMARK    3  A    between atoms: C_15  and  C_18 
REMARK    4  A    between atoms: C_16  and  C_22 
REMARK    5  A    between atoms: C_17  and  C_23 
REMARK    6  A    between atoms: C_18  and  C_24 
REMARK    7  A    between atoms: C_19  and  C_25 
REMARK    8  A    between atoms: C_20  and  C_26 
REMARK    9  A    between atoms: C_21  and  C_27 
ROOT
HETATM    1  O   UNL     1      14.709   7.717  32.763  1.00  0.00    -0.304 OA
HETATM    2  O   UNL     1       9.803   6.772  31.862  1.00  0.00    -0.304 OA
HETATM    3  O   UNL     1      12.389  10.865  31.687  1.00  0.00    -0.304 OA
HETATM    4  O   UNL     1      13.171   5.725  32.142  1.00  0.00    -0.270 OA
HETATM    5  O   UNL     1      14.687  13.235  32.681  1.00  0.00    -0.270 OA
HETATM    6  O   UNL     1      11.587   8.061  30.414  1.00  0.00    -0.270 OA
HETATM    7  O   UNL     1      15.861   9.204  34.098  1.00  0.00    -0.263 OA
HETATM    8  O   UNL     1      10.269   7.914  33.814  1.00  0.00    -0.263 OA
HETATM    9  O   UNL     1      12.938  12.531  30.199  1.00  0.00    -0.263 OA
HETATM   10  N   UNL     1      12.132   5.852  34.213  1.00  0.00    -0.340 N 
HETATM   11  N   UNL     1      15.544  11.150  32.134  1.00  0.00    -0.340 N 
HETATM   12  N   UNL     1      10.370  10.024  30.187  1.00  0.00    -0.340 N 
HETATM   13  C   UNL     1      10.818   5.549  33.610  1.00  0.00     0.190 C 
HETATM   14  C   UNL     1      15.354   9.732  31.766  1.00  0.00     0.190 C 
HETATM   15  C   UNL     1      11.487  10.709  29.496  1.00  0.00     0.190 C 
HETATM   16  C   UNL     1      14.404   6.832  33.863  1.00  0.00     0.227 C 
HETATM   17  C   UNL     1       9.336   7.978  31.225  1.00  0.00     0.227 C 
HETATM   18  C   UNL     1      13.116  11.416  32.789  1.00  0.00     0.227 C 
HETATM   19  C   UNL     1      13.202   6.064  33.332  1.00  0.00     0.250 C 
HETATM   20  C   UNL     1      14.510  12.022  32.515  1.00  0.00     0.250 C 
HETATM   21  C   UNL     1      10.533   8.686  30.579  1.00  0.00     0.250 C 
HETATM   22  C   UNL     1      15.363   8.884  33.029  1.00  0.00     0.283 C 
HETATM   23  C   UNL     1      10.271   6.891  33.141  1.00  0.00     0.283 C 
HETATM   24  C   UNL     1      12.324  11.513  30.491  1.00  0.00     0.283 C 
HETATM   25  C   UNL     1      12.218   6.053  35.661  1.00  0.00     0.153 C 
HETATM   26  C   UNL     1      16.906  11.682  32.100  1.00  0.00     0.153 C 
HETATM   27  C   UNL     1       9.186  10.837  30.478  1.00  0.00     0.153 C 
ENDROOT
BRANCH  16  28
HETATM   28  C   UNL     1      15.570   5.895  34.121  1.00  0.00     0.016 C 
HETATM   29  C   UNL     1      16.440   6.419  35.262  1.00  0.00     0.012 C 
HETATM   30  C   UNL     1      16.404   5.709  32.855  1.00  0.00     0.012 C 
ENDBRANCH  16  28
BRANCH  14  31
HETATM   31  C   UNL     1      16.366   9.184  30.762  1.00  0.00     0.014 C 
HETATM   32  C   UNL     1      17.499   8.472  31.505  1.00  0.00     0.012 C 
BRANCH  31  33
HETATM   33  C   UNL     1      15.722   8.222  29.748  1.00  0.00     0.002 C 
HETATM   34  C   UNL     1      14.604   8.856  28.932  1.00  0.00     0.005 C 
ENDBRANCH  31  33
ENDBRANCH  14  31
BRANCH  13  35
HETATM   35  C   UNL     1       9.799   4.862  34.508  1.00  0.00     0.014 C 
HETATM   36  C   UNL     1       8.759   5.879  34.985  1.00  0.00     0.012 C 
BRANCH  35  37
HETATM   37  C   UNL     1       9.095   3.687  33.808  1.00  0.00     0.002 C 
HETATM   38  C   UNL     1       7.675   4.009  33.359  1.00  0.00     0.005 C 
ENDBRANCH  35  37
ENDBRANCH  13  35
BRANCH  18  39
HETATM   39  C   UNL     1      12.199  12.418  33.492  1.00  0.00     0.016 C 
HETATM   40  C   UNL     1      10.756  11.922  33.483  1.00  0.00     0.012 C 
HETATM   41  C   UNL     1      12.673  12.667  34.922  1.00  0.00     0.012 C 
ENDBRANCH  18  39
BRANCH  17  42
HETATM   42  C   UNL     1       8.335   7.559  30.157  1.00  0.00     0.016 C 
HETATM   43  C   UNL     1       7.036   7.070  30.795  1.00  0.00     0.012 C 
HETATM   44  C   UNL     1       8.929   6.476  29.256  1.00  0.00     0.012 C 
ENDBRANCH  17  42
BRANCH  15  45
HETATM   45  C   UNL     1      11.034  11.572  28.319  1.00  0.00     0.014 C 
HETATM   46  C   UNL     1      10.249  10.720  27.316  1.00  0.00     0.012 C 
BRANCH  45  47
HETATM   47  C   UNL     1      10.177  12.773  28.762  1.00  0.00     0.002 C 
HETATM   48  C   UNL     1      10.636  14.097  28.170  1.00  0.00     0.005 C 
ENDBRANCH  45  47
ENDBRANCH  15  45
TORSDOF 9
ENDMDL
MODEL 3
REMARK VINA RESULT:    -5.355     17.644     21.053
REMARK INTER + INTRA:          -8.175
REMARK INTER:                  -8.410
REMARK INTRA:                   0.235
REMARK UNBOUND:                -0.003
REMARK  9 active torsions:
REMARK  status: ('A' for Active; 'I' for Inactive)
REMARK    1  A    between atoms: C_13  and  C_16 
REMARK    2  A    between atoms: C_14  and  C_17 
REMARK    3  A    between atoms: C_15  and  C_18 
REMARK    4  A    between atoms: C_16  and  C_22 
REMARK    5  A    between atoms: C_17  and  C_23 
REMARK    6  A    between atoms: C_18  and  C_24 
REMARK    7  A    between atoms: C_19  and  C_25 
REMARK    8  A    between atoms: C_20  and  C_26 
REMARK    9  A    between atoms: C_21  and  C_27 
ROOT
HETATM    1  O   UNL     1      16.453   7.450  21.705  1.00  0.00    -0.304 OA
HETATM    2  O   UNL     1      16.590   8.141  26.732  1.00  0.00    -0.304 OA
HETATM    3  O   UNL     1      20.097   8.009  23.395  1.00  0.00    -0.304 OA
HETATM    4  O   UNL     1      14.887   8.197  23.632  1.00  0.00    -0.270 OA
HETATM    5  O   UNL     1      21.838   6.897  20.634  1.00  0.00    -0.270 OA
HETATM    6  O   UNL     1      17.682   9.542  24.787  1.00  0.00    -0.270 OA
HETATM    7  O   UNL     1      17.512   6.029  20.228  1.00  0.00    -0.263 OA
HETATM    8  O   UNL     1      17.367   6.104  25.972  1.00  0.00    -0.263 OA
HETATM    9  O   UNL     1      21.800   9.328  22.585  1.00  0.00    -0.263 OA
HETATM   10  N   UNL     1      14.952   6.063  24.541  1.00  0.00    -0.340 N 
HETATM   11  N   UNL     1      19.713   7.733  20.231  1.00  0.00    -0.340 N 
HETATM   12  N   UNL     1      19.855   9.464  25.598  1.00  0.00    -0.340 N 
HETATM   13  C   UNL     1      14.985   6.613  25.912  1.00  0.00     0.190 C 
HETATM   14  C   UNL     1      18.414   8.248  20.713  1.00  0.00     0.190 C 
HETATM   15  C   UNL     1      20.393  10.142  24.396  1.00  0.00     0.190 C 
HETATM   16  C   UNL     1      15.513   6.443  22.135  1.00  0.00     0.227 C 
HETATM   17  C   UNL     1      17.933   8.604  26.976  1.00  0.00     0.227 C 
HETATM   18  C   UNL     1      20.356   6.899  22.529  1.00  0.00     0.227 C 
HETATM   19  C   UNL     1      15.063   6.981  23.487  1.00  0.00     0.250 C 
HETATM   20  C   UNL     1      20.712   7.190  21.054  1.00  0.00     0.250 C 
HETATM   21  C   UNL     1      18.472   9.240  25.689  1.00  0.00     0.250 C 
HETATM   22  C   UNL     1      17.430   7.094  20.822  1.00  0.00     0.283 C 
HETATM   23  C   UNL     1      16.455   6.889  26.200  1.00  0.00     0.283 C 
HETATM   24  C   UNL     1      20.890   9.116  23.377  1.00  0.00     0.283 C 
HETATM   25  C   UNL     1      14.950   4.611  24.359  1.00  0.00     0.153 C 
HETATM   26  C   UNL     1      19.973   7.792  18.792  1.00  0.00     0.153 C 
HETATM   27  C   UNL     1      20.838   9.007  26.585  1.00  0.00     0.153 C 
ENDROOT
BRANCH  16  28
HETATM   28  C   UNL     1      14.344   6.368  21.170  1.00  0.00     0.016 C 
HETATM   29  C   UNL     1      13.027   6.633  21.896  1.00  0.00     0.012 C 
HETATM   30  C   UNL     1      14.307   5.009  20.473  1.00  0.00     0.012 C 
ENDBRANCH  16  28
BRANCH  14  31
HETATM   31  C   UNL     1      17.812   9.371  19.870  1.00  0.00     0.014 C 
HETATM   32  C   UNL     1      16.391   8.994  19.445  1.00  0.00     0.012 C 
BRANCH  31  33
HETATM   33  C   UNL     1      17.794  10.717  20.617  1.00  0.00     0.002 C 
HETATM   34  C   UNL     1      16.634  10.856  21.593  1.00  0.00     0.005 C 
ENDBRANCH  31  33
ENDBRANCH  14  31
BRANCH  13  35
HETATM   35  C   UNL     1      14.400   5.737  27.011  1.00  0.00     0.014 C 
HETATM   36  C   UNL     1      14.803   6.286  28.382  1.00  0.00     0.012 C 
BRANCH  35  37
HETATM   37  C   UNL     1      12.868   5.628  26.923  1.00  0.00     0.002 C 
HETATM   38  C   UNL     1      12.181   6.950  26.606  1.00  0.00     0.005 C 
ENDBRANCH  35  37
ENDBRANCH  13  35
BRANCH  18  39
HETATM   39  C   UNL     1      21.420   6.029  23.200  1.00  0.00     0.016 C 
HETATM   40  C   UNL     1      21.176   5.948  24.705  1.00  0.00     0.012 C 
HETATM   41  C   UNL     1      21.438   4.632  22.582  1.00  0.00     0.012 C 
ENDBRANCH  18  39
BRANCH  17  42
HETATM   42  C   UNL     1      17.851   9.648  28.081  1.00  0.00     0.016 C 
HETATM   43  C   UNL     1      16.794   9.259  29.114  1.00  0.00     0.012 C 
HETATM   44  C   UNL     1      17.547  11.028  27.499  1.00  0.00     0.012 C 
ENDBRANCH  17  42
BRANCH  15  45
HETATM   45  C   UNL     1      21.468  11.180  24.714  1.00  0.00     0.014 C 
HETATM   46  C   UNL     1      21.602  12.169  23.551  1.00  0.00     0.012 C 
BRANCH  45  47
HETATM   47  C   UNL     1      21.179  11.950  26.017  1.00  0.00     0.002 C 
HETATM   48  C   UNL     1      20.185  13.088  25.841  1.00  0.00     0.005 C 
ENDBRANCH  45  47
ENDBRANCH  15  45
TORSDOF 9
ENDMDL
MODEL 4
REMARK VINA RESULT:    -5.257     18.162     24.438
REMARK INTER + INTRA:          -8.026
REMARK INTER:                  -8.589
REMARK INTRA:                   0.563
REMARK UNBOUND:                -0.003
REMARK  9 active torsions:
REMARK  status: ('A' for Active; 'I' for Inactive)
REMARK    1  A    between atoms: C_13  and  C_16 
REMARK    2  A    between atoms: C_14  and  C_17 
REMARK    3  A    between atoms: C_15  and  C_18 
REMARK    4  A    between atoms: C_16  and  C_22 
REMARK    5  A    between atoms: C_17  and  C_23 
REMARK    6  A    between atoms: C_18  and  C_24 
REMARK    7  A    between atoms: C_19  and  C_25 
REMARK    8  A    between atoms: C_20  and  C_26 
REMARK    9  A    between atoms: C_21  and  C_27 
ROOT
HETATM    1  O   UNL     1      15.891   9.231  31.135  1.00  0.00    -0.304 OA
HETATM    2  O   UNL     1      11.459  11.442  32.250  1.00  0.00    -0.304 OA
HETATM    3  O   UNL     1      14.344   8.516  34.816  1.00  0.00    -0.304 OA
HETATM    4  O   UNL     1      14.447  11.242  30.366  1.00  0.00    -0.270 OA
HETATM    5  O   UNL     1      16.422   5.841  35.457  1.00  0.00    -0.270 OA
HETATM    6  O   UNL     1      13.725  11.388  33.593  1.00  0.00    -0.270 OA
HETATM    7  O   UNL     1      16.695   7.071  31.208  1.00  0.00    -0.263 OA
HETATM    8  O   UNL     1      11.387   9.163  31.890  1.00  0.00    -0.263 OA
HETATM    9  O   UNL     1      15.494   8.493  36.808  1.00  0.00    -0.263 OA
HETATM   10  N   UNL     1      12.821   9.796  29.560  1.00  0.00    -0.340 N 
HETATM   11  N   UNL     1      17.205   7.396  33.925  1.00  0.00    -0.340 N 
HETATM   12  N   UNL     1      12.836  10.563  35.571  1.00  0.00    -0.340 N 
HETATM   13  C   UNL     1      11.745  10.693  30.027  1.00  0.00     0.190 C 
HETATM   14  C   UNL     1      17.008   8.599  33.090  1.00  0.00     0.190 C 
HETATM   15  C   UNL     1      14.175  10.442  36.195  1.00  0.00     0.190 C 
HETATM   16  C   UNL     1      15.170   9.013  29.904  1.00  0.00     0.227 C 
HETATM   17  C   UNL     1      11.336  11.257  33.675  1.00  0.00     0.227 C 
HETATM   18  C   UNL     1      14.733   7.200  34.414  1.00  0.00     0.227 C 
HETATM   19  C   UNL     1      14.131  10.125  29.939  1.00  0.00     0.250 C 
HETATM   20  C   UNL     1      16.193   6.761  34.662  1.00  0.00     0.250 C 
HETATM   21  C   UNL     1      12.737  11.074  34.268  1.00  0.00     0.250 C 
HETATM   22  C   UNL     1      16.534   8.174  31.709  1.00  0.00     0.283 C 
HETATM   23  C   UNL     1      11.505  10.311  31.482  1.00  0.00     0.283 C 
HETATM   24  C   UNL     1      14.725   9.027  36.020  1.00  0.00     0.283 C 
HETATM   25  C   UNL     1      12.462   8.560  28.863  1.00  0.00     0.153 C 
HETATM   26  C   UNL     1      18.552   6.828  33.987  1.00  0.00     0.153 C 
HETATM   27  C   UNL     1      11.704  10.059  36.355  1.00  0.00     0.153 C 
ENDROOT
BRANCH  16  28
HETATM   28  C   UNL     1      16.098   9.181  28.714  1.00  0.00     0.016 C 
HETATM   29  C   UNL     1      16.309   7.847  28.002  1.00  0.00     0.012 C 
HETATM   30  C   UNL     1      17.437   9.771  29.155  1.00  0.00     0.012 C 
ENDBRANCH  16  28
BRANCH  14  31
HETATM   31  C   UNL     1      18.230   9.508  32.967  1.00  0.00     0.014 C 
HETATM   32  C   UNL     1      17.818  10.848  32.353  1.00  0.00     0.012 C 
BRANCH  31  33
HETATM   33  C   UNL     1      18.922   9.745  34.321  1.00  0.00     0.002 C 
HETATM   34  C   UNL     1      18.205  10.759  35.201  1.00  0.00     0.005 C 
ENDBRANCH  31  33
ENDBRANCH  14  31
BRANCH  13  35
HETATM   35  C   UNL     1      10.432  10.640  29.258  1.00  0.00     0.014 C 
HETATM   36  C   UNL     1       9.280  11.080  30.165  1.00  0.00     0.012 C 
BRANCH  35  37
HETATM   37  C   UNL     1      10.458  11.510  27.990  1.00  0.00     0.002 C 
HETATM   38  C   UNL     1      10.781  12.973  28.263  1.00  0.00     0.005 C 
ENDBRANCH  35  37
ENDBRANCH  13  35
BRANCH  18  39
HETATM   39  C   UNL     1      13.740   6.216  35.035  1.00  0.00     0.016 C 
HETATM   40  C   UNL     1      12.330   6.800  35.027  1.00  0.00     0.012 C 
HETATM   41  C   UNL     1      13.773   4.880  34.294  1.00  0.00     0.012 C 
ENDBRANCH  18  39
BRANCH  17  42
HETATM   42  C   UNL     1      10.691  12.518  34.233  1.00  0.00     0.016 C 
HETATM   43  C   UNL     1       9.284  12.222  34.752  1.00  0.00     0.012 C 
HETATM   44  C   UNL     1      10.650  13.619  33.174  1.00  0.00     0.012 C 
ENDBRANCH  17  42
BRANCH  15  45
HETATM   45  C   UNL     1      14.204  10.877  37.659  1.00  0.00     0.014 C 
HETATM   46  C   UNL     1      15.572  11.478  38.000  1.00  0.00     0.012 C 
BRANCH  45  47
HETATM   47  C   UNL     1      13.094  11.891  37.997  1.00  0.00     0.002 C 
HETATM   48  C   UNL     1      13.483  13.333  37.710  1.00  0.00     0.005 C 
ENDBRANCH  45  47
ENDBRANCH  15  45
TORSDOF 9
ENDMDL
MODEL 5
REMARK VINA RESULT:    -5.176     17.628     23.807
REMARK INTER + INTRA:          -7.901
REMARK INTER:                  -8.049
REMARK INTRA:                   0.148
REMARK UNBOUND:                -0.003
REMARK  9 active torsions:
REMARK  status: ('A' for Active; 'I' for Inactive)
REMARK    1  A    between atoms: C_13  and  C_16 
REMARK    2  A    between atoms: C_14  and  C_17 
REMARK    3  A    between atoms: C_15  and  C_18 
REMARK    4  A    between atoms: C_16  and  C_22 
REMARK    5  A    between atoms: C_17  and  C_23 
REMARK    6  A    between atoms: C_18  and  C_24 
REMARK    7  A    between atoms: C_19  and  C_25 
REMARK    8  A    between atoms: C_20  and  C_26 
REMARK    9  A    between atoms: C_21  and  C_27 
ROOT
HETATM    1  O   UNL     1      14.059   8.284  30.717  1.00  0.00    -0.304 OA
HETATM    2  O   UNL     1      10.416  11.626  31.868  1.00  0.00    -0.304 OA
HETATM    3  O   UNL     1      12.486   8.089  34.450  1.00  0.00    -0.304 OA
HETATM    4  O   UNL     1      13.185  10.592  29.924  1.00  0.00    -0.270 OA
HETATM    5  O   UNL     1      13.790   4.969  35.120  1.00  0.00    -0.270 OA
HETATM    6  O   UNL     1      12.623  10.994  33.161  1.00  0.00    -0.270 OA
HETATM    7  O   UNL     1      14.258   5.989  30.833  1.00  0.00    -0.263 OA
HETATM    8  O   UNL     1       9.726   9.442  31.574  1.00  0.00    -0.263 OA
HETATM    9  O   UNL     1      13.645   7.799  36.416  1.00  0.00    -0.263 OA
HETATM   10  N   UNL     1      11.209   9.618  29.196  1.00  0.00    -0.340 N 
HETATM   11  N   UNL     1      14.916   6.223  33.528  1.00  0.00    -0.340 N 
HETATM   12  N   UNL     1      11.604  10.480  35.181  1.00  0.00    -0.340 N 
HETATM   13  C   UNL     1      10.426  10.781  29.661  1.00  0.00     0.190 C 
HETATM   14  C   UNL     1      15.024   7.417  32.663  1.00  0.00     0.190 C 
HETATM   15  C   UNL     1      12.879  10.018  35.777  1.00  0.00     0.190 C 
HETATM   16  C   UNL     1      13.271   8.241  29.508  1.00  0.00     0.227 C 
HETATM   17  C   UNL     1      10.289  11.511  33.299  1.00  0.00     0.227 C 
HETATM   18  C   UNL     1      12.496   6.708  34.077  1.00  0.00     0.227 C 
HETATM   19  C   UNL     1      12.569   9.592  29.536  1.00  0.00     0.250 C 
HETATM   20  C   UNL     1      13.792   5.898  34.305  1.00  0.00     0.250 C 
HETATM   21  C   UNL     1      11.607  10.971  33.866  1.00  0.00     0.250 C 
HETATM   22  C   UNL     1      14.413   7.105  31.306  1.00  0.00     0.283 C 
HETATM   23  C   UNL     1      10.135  10.508  31.131  1.00  0.00     0.283 C 
HETATM   24  C   UNL     1      13.024   8.504  35.630  1.00  0.00     0.283 C 
HETATM   25  C   UNL     1      10.511   8.509  28.542  1.00  0.00     0.153 C 
HETATM   26  C   UNL     1      16.063   5.316  33.575  1.00  0.00     0.153 C 
HETATM   27  C   UNL     1      10.401  10.316  36.004  1.00  0.00     0.153 C 
ENDROOT
BRANCH  16  28
HETATM   28  C   UNL     1      14.175   8.129  28.295  1.00  0.00     0.016 C 
HETATM   29  C   UNL     1      14.285   6.676  27.836  1.00  0.00     0.012 C 
HETATM   30  C   UNL     1      15.559   8.700  28.599  1.00  0.00     0.012 C 
ENDBRANCH  16  28
BRANCH  14  31
HETATM   31  C   UNL     1      16.440   7.962  32.487  1.00  0.00     0.014 C 
HETATM   32  C   UNL     1      17.078   7.351  31.237  1.00  0.00     0.012 C 
BRANCH  31  33
HETATM   33  C   UNL     1      16.468   9.497  32.391  1.00  0.00     0.002 C 
HETATM   34  C   UNL     1      15.990  10.196  33.656  1.00  0.00     0.005 C 
ENDBRANCH  31  33
ENDBRANCH  14  31
BRANCH  13  35
HETATM   35  C   UNL     1       9.125  11.065  28.923  1.00  0.00     0.014 C 
HETATM   36  C   UNL     1       8.137  11.763  29.862  1.00  0.00     0.012 C 
BRANCH  35  37
HETATM   37  C   UNL     1       9.339  11.921  27.663  1.00  0.00     0.002 C 
HETATM   38  C   UNL     1      10.317  13.071  27.867  1.00  0.00     0.005 C 
ENDBRANCH  35  37
ENDBRANCH  13  35
BRANCH  18  39
HETATM   39  C   UNL     1      11.295   6.040  34.748  1.00  0.00     0.016 C 
HETATM   40  C   UNL     1      10.197   7.064  35.024  1.00  0.00     0.012 C 
HETATM   41  C   UNL     1      10.761   4.901  33.881  1.00  0.00     0.012 C 
ENDBRANCH  18  39
BRANCH  17  42
HETATM   42  C   UNL     1      10.022  12.911  33.836  1.00  0.00     0.016 C 
HETATM   43  C   UNL     1       8.575  13.041  34.309  1.00  0.00     0.012 C 
HETATM   44  C   UNL     1      10.335  13.965  32.775  1.00  0.00     0.012 C 
ENDBRANCH  17  42
BRANCH  15  45
HETATM   45  C   UNL     1      13.066  10.460  37.227  1.00  0.00     0.014 C 
HETATM   46  C   UNL     1      14.529  10.279  37.646  1.00  0.00     0.012 C 
BRANCH  45  47
HETATM   47  C   UNL     1      12.638  11.922  37.460  1.00  0.00     0.002 C 
HETATM   48  C   UNL     1      13.440  12.926  36.646  1.00  0.00     0.005 C 
ENDBRANCH  45  47
ENDBRANCH  15  45
TORSDOF 9
ENDMDL
MODEL 6
REMARK VINA RESULT:    -5.164     17.464     22.241
REMARK INTER + INTRA:          -7.884
REMARK INTER:                  -8.362
REMARK INTRA:                   0.479
REMARK UNBOUND:                -0.003
REMARK  9 active torsions:
REMARK  status: ('A' for Active; 'I' for Inactive)
REMARK    1  A    between atoms: C_13  and  C_16 
REMARK    2  A    between atoms: C_14  and  C_17 
REMARK    3  A    between atoms: C_15  and  C_18 
REMARK    4  A    between atoms: C_16  and  C_22 
REMARK    5  A    between atoms: C_17  and  C_23 
REMARK    6  A    between atoms: C_18  and  C_24 
REMARK    7  A    between atoms: C_19  and  C_25 
REMARK    8  A    between atoms: C_20  and  C_26 
REMARK    9  A    between atoms: C_21  and  C_27 
ROOT
HETATM    1  O   UNL     1      23.184  11.027  23.113  1.00  0.00    -0.304 OA
HETATM    2  O   UNL     1      18.836   9.925  20.735  1.00  0.00    -0.304 OA
HETATM    3  O   UNL     1      20.787   8.248  24.839  1.00  0.00    -0.304 OA
HETATM    4  O   UNL     1      21.565  12.081  21.384  1.00  0.00    -0.270 OA
HETATM    5  O   UNL     1      23.235   7.077  26.966  1.00  0.00    -0.270 OA
HETATM    6  O   UNL     1      19.292  10.564  23.251  1.00  0.00    -0.270 OA
HETATM    7  O   UNL     1      24.958   9.791  23.916  1.00  0.00    -0.263 OA
HETATM    8  O   UNL     1      20.477   8.304  20.642  1.00  0.00    -0.263 OA
HETATM    9  O   UNL     1      20.282   8.069  27.077  1.00  0.00    -0.263 OA
HETATM   10  N   UNL     1      22.112  10.440  19.838  1.00  0.00    -0.340 N 
HETATM   11  N   UNL     1      23.490   9.258  26.220  1.00  0.00    -0.340 N 
HETATM   12  N   UNL     1      18.259   8.706  24.182  1.00  0.00    -0.340 N 
HETATM   13  C   UNL     1      20.713  10.369  19.370  1.00  0.00     0.190 C 
HETATM   14  C   UNL     1      23.077  10.385  25.359  1.00  0.00     0.190 C 
HETATM   15  C   UNL     1      18.680   9.082  25.552  1.00  0.00     0.190 C 
HETATM   16  C   UNL     1      23.642  10.956  21.746  1.00  0.00     0.227 C 
HETATM   17  C   UNL     1      18.095   9.171  21.714  1.00  0.00     0.227 C 
HETATM   18  C   UNL     1      22.066   7.613  24.933  1.00  0.00     0.227 C 
HETATM   19  C   UNL     1      22.364  11.234  20.966  1.00  0.00     0.250 C 
HETATM   20  C   UNL     1      22.966   7.957  26.140  1.00  0.00     0.250 C 
HETATM   21  C   UNL     1      18.607   9.543  23.111  1.00  0.00     0.250 C 
HETATM   22  C   UNL     1      23.880  10.347  24.069  1.00  0.00     0.283 C 
HETATM   23  C   UNL     1      20.022   9.392  20.312  1.00  0.00     0.283 C 
HETATM   24  C   UNL     1      19.980   8.370  25.930  1.00  0.00     0.283 C 
HETATM   25  C   UNL     1      23.117   9.584  19.204  1.00  0.00     0.153 C 
HETATM   26  C   UNL     1      24.520   9.516  27.227  1.00  0.00     0.153 C 
HETATM   27  C   UNL     1      17.561   7.425  24.043  1.00  0.00     0.153 C 
ENDROOT
BRANCH  16  28
HETATM   28  C   UNL     1      24.678  12.034  21.482  1.00  0.00     0.016 C 
HETATM   29  C   UNL     1      24.148  13.057  20.479  1.00  0.00     0.012 C 
HETATM   30  C   UNL     1      25.982  11.416  20.979  1.00  0.00     0.012 C 
ENDBRANCH  16  28
BRANCH  14  31
HETATM   31  C   UNL     1      23.189  11.766  26.004  1.00  0.00     0.014 C 
HETATM   32  C   UNL     1      24.001  12.695  25.099  1.00  0.00     0.012 C 
BRANCH  31  33
HETATM   33  C   UNL     1      21.813  12.390  26.294  1.00  0.00     0.002 C 
HETATM   34  C   UNL     1      21.029  12.745  25.039  1.00  0.00     0.005 C 
ENDBRANCH  31  33
ENDBRANCH  14  31
BRANCH  13  35
HETATM   35  C   UNL     1      20.499   9.932  17.927  1.00  0.00     0.014 C 
HETATM   36  C   UNL     1      19.045   9.498  17.727  1.00  0.00     0.012 C 
BRANCH  35  37
HETATM   37  C   UNL     1      20.856  11.037  16.918  1.00  0.00     0.002 C 
HETATM   38  C   UNL     1      19.865  11.154  15.768  1.00  0.00     0.005 C 
ENDBRANCH  35  37
ENDBRANCH  13  35
BRANCH  18  39
HETATM   39  C   UNL     1      21.841   6.105  24.815  1.00  0.00     0.016 C 
HETATM   40  C   UNL     1      20.696   5.807  23.851  1.00  0.00     0.012 C 
HETATM   41  C   UNL     1      23.122   5.406  24.362  1.00  0.00     0.012 C 
ENDBRANCH  18  39
BRANCH  17  42
HETATM   42  C   UNL     1      16.632   9.567  21.569  1.00  0.00     0.016 C 
HETATM   43  C   UNL     1      15.997   8.862  20.371  1.00  0.00     0.012 C 
HETATM   44  C   UNL     1      16.495  11.083  21.431  1.00  0.00     0.012 C 
ENDBRANCH  17  42
BRANCH  15  45
HETATM   45  C   UNL     1      17.595   8.861  26.603  1.00  0.00     0.014 C 
HETATM   46  C   UNL     1      17.844   7.543  27.345  1.00  0.00     0.012 C 
BRANCH  45  47
HETATM   47  C   UNL     1      17.509  10.017  27.618  1.00  0.00     0.002 C 
HETATM   48  C   UNL     1      18.010  11.344  27.068  1.00  0.00     0.005 C 
ENDBRANCH  45  47
ENDBRANCH  15  45
TORSDOF 9
ENDMDL
MODEL 7
REMARK VINA RESULT:    -5.160     16.915     20.917
REMARK INTER + INTRA:          -7.878
REMARK INTER:                  -8.085
REMARK INTRA:                   0.207
REMARK UNBOUND:                -0.003
REMARK  9 active torsions:
REMARK  status: ('A' for Active; 'I' for Inactive)
REMARK    1  A    between atoms: C_13  and  C_16 
REMARK    2  A    between atoms: C_14  and  C_17 
REMARK    3  A    between atoms: C_15  and  C_18 
REMARK    4  A    between atoms: C_16  and  C_22 
REMARK    5  A    between atoms: C_17  and  C_23 
REMARK    6  A    between atoms: C_18  and  C_24 
REMARK    7  A    between atoms: C_19  and  C_25 
REMARK    8  A    between atoms: C_20  and  C_26 
REMARK    9  A    between atoms: C_21  and  C_27 
ROOT
HETATM    1  O   UNL     1      20.627  10.488  22.452  1.00  0.00    -0.304 OA
HETATM    2  O   UNL     1      17.428   8.646  18.968  1.00  0.00    -0.304 OA
HETATM    3  O   UNL     1      18.952   6.873  23.210  1.00  0.00    -0.304 OA
HETATM    4  O   UNL     1      19.135  11.334  20.508  1.00  0.00    -0.270 OA
HETATM    5  O   UNL     1      21.170   6.081  25.728  1.00  0.00    -0.270 OA
HETATM    6  O   UNL     1      17.143   8.916  21.573  1.00  0.00    -0.270 OA
HETATM    7  O   UNL     1      22.506   9.685  23.523  1.00  0.00    -0.263 OA
HETATM    8  O   UNL     1      19.485   7.606  19.099  1.00  0.00    -0.263 OA
HETATM    9  O   UNL     1      18.096   6.150  25.219  1.00  0.00    -0.263 OA
HETATM   10  N   UNL     1      20.476  10.230  18.969  1.00  0.00    -0.340 N 
HETATM   11  N   UNL     1      20.857   8.342  25.319  1.00  0.00    -0.340 N 
HETATM   12  N   UNL     1      16.596   6.703  22.006  1.00  0.00    -0.340 N 
HETATM   13  C   UNL     1      19.296   9.849  18.165  1.00  0.00     0.190 C 
HETATM   14  C   UNL     1      20.285   9.443  24.515  1.00  0.00     0.190 C 
HETATM   15  C   UNL     1      16.592   6.925  23.470  1.00  0.00     0.190 C 
HETATM   16  C   UNL     1      21.346  10.804  21.241  1.00  0.00     0.227 C 
HETATM   17  C   UNL     1      16.787   7.545  19.642  1.00  0.00     0.227 C 
HETATM   18  C   UNL     1      20.321   6.625  23.544  1.00  0.00     0.227 C 
HETATM   19  C   UNL     1      20.230  10.843  20.206  1.00  0.00     0.250 C 
HETATM   20  C   UNL     1      20.804   6.984  24.966  1.00  0.00     0.250 C 
HETATM   21  C   UNL     1      16.864   7.786  21.155  1.00  0.00     0.250 C 
HETATM   22  C   UNL     1      21.299   9.872  23.467  1.00  0.00     0.283 C 
HETATM   23  C   UNL     1      18.781   8.560  18.792  1.00  0.00     0.283 C 
HETATM   24  C   UNL     1      17.948   6.558  24.074  1.00  0.00     0.283 C 
HETATM   25  C   UNL     1      21.807   9.829  18.509  1.00  0.00     0.153 C 
HETATM   26  C   UNL     1      21.527   8.695  26.571  1.00  0.00     0.153 C 
HETATM   27  C   UNL     1      16.387   5.323  21.555  1.00  0.00     0.153 C 
ENDROOT
BRANCH  16  28
HETATM   28  C   UNL     1      22.014  12.161  21.364  1.00  0.00     0.016 C 
HETATM   29  C   UNL     1      21.574  13.083  20.228  1.00  0.00     0.012 C 
HETATM   30  C   UNL     1      23.534  12.016  21.376  1.00  0.00     0.012 C 
ENDBRANCH  16  28
BRANCH  14  31
HETATM   31  C   UNL     1      19.818  10.655  25.319  1.00  0.00     0.014 C 
HETATM   32  C   UNL     1      20.624  11.890  24.909  1.00  0.00     0.012 C 
BRANCH  31  33
HETATM   33  C   UNL     1      18.315  10.930  25.143  1.00  0.00     0.002 C 
HETATM   34  C   UNL     1      17.737  11.859  26.201  1.00  0.00     0.005 C 
ENDBRANCH  31  33
ENDBRANCH  14  31
BRANCH  13  35
HETATM   35  C   UNL     1      19.527   9.642  16.675  1.00  0.00     0.014 C 
HETATM   36  C   UNL     1      18.362   8.848  16.076  1.00  0.00     0.012 C 
BRANCH  35  37
HETATM   37  C   UNL     1      19.696  10.969  15.915  1.00  0.00     0.002 C 
HETATM   38  C   UNL     1      18.617  11.214  14.869  1.00  0.00     0.005 C 
ENDBRANCH  35  37
ENDBRANCH  13  35
BRANCH  18  39
HETATM   39  C   UNL     1      20.620   5.163  23.205  1.00  0.00     0.016 C 
HETATM   40  C   UNL     1      19.862   4.737  21.950  1.00  0.00     0.012 C 
HETATM   41  C   UNL     1      22.122   4.951  23.023  1.00  0.00     0.012 C 
ENDBRANCH  18  39
BRANCH  17  42
HETATM   42  C   UNL     1      15.335   7.527  19.187  1.00  0.00     0.016 C 
HETATM   43  C   UNL     1      15.061   6.311  18.303  1.00  0.00     0.012 C 
HETATM   44  C   UNL     1      14.985   8.816  18.445  1.00  0.00     0.012 C 
ENDBRANCH  17  42
BRANCH  15  45
HETATM   45  C   UNL     1      15.448   6.214  24.190  1.00  0.00     0.014 C 
HETATM   46  C   UNL     1      15.284   6.783  25.604  1.00  0.00     0.012 C 
BRANCH  45  47
HETATM   47  C   UNL     1      14.112   6.324  23.430  1.00  0.00     0.002 C 
HETATM   48  C   UNL     1      13.445   7.684  23.569  1.00  0.00     0.005 C 
ENDBRANCH  45  47
ENDBRANCH  15  45
TORSDOF 9
ENDMDL
MODEL 8
REMARK VINA RESULT:    -5.094     16.957     20.518
REMARK INTER + INTRA:          -7.777
REMARK INTER:                  -7.683
REMARK INTRA:                  -0.094
REMARK UNBOUND:                -0.003
REMARK  9 active torsions:
REMARK  status: ('A' for Active; 'I' for Inactive)
REMARK    1  A    between atoms: C_13  and  C_16 
REMARK    2  A    between atoms: C_14  and  C_17 
REMARK    3  A    between atoms: C_15  and  C_18 
REMARK    4  A    between atoms: C_16  and  C_22 
REMARK    5  A    between atoms: C_17  and  C_23 
REMARK    6  A    between atoms: C_18  and  C_24 
REMARK    7  A    between atoms: C_19  and  C_25 
REMARK    8  A    between atoms: C_20  and  C_26 
REMARK    9  A    between atoms: C_21  and  C_27 
ROOT
HETATM    1  O   UNL     1      11.496  11.685  31.912  1.00  0.00    -0.304 OA
HETATM    2  O   UNL     1      14.711   8.403  29.752  1.00  0.00    -0.304 OA
HETATM    3  O   UNL     1       9.887   8.798  29.562  1.00  0.00    -0.304 OA
HETATM    4  O   UNL     1      14.001  11.522  31.262  1.00  0.00    -0.270 OA
HETATM    5  O   UNL     1       6.675   9.282  30.717  1.00  0.00    -0.270 OA
HETATM    6  O   UNL     1      12.768   9.835  28.696  1.00  0.00    -0.270 OA
HETATM    7  O   UNL     1       9.599  11.490  33.209  1.00  0.00    -0.263 OA
HETATM    8  O   UNL     1      13.427   7.569  31.480  1.00  0.00    -0.263 OA
HETATM    9  O   UNL     1       8.208   9.066  28.012  1.00  0.00    -0.263 OA
HETATM   10  N   UNL     1      14.326   9.854  32.841  1.00  0.00    -0.340 N 
HETATM   11  N   UNL     1       8.106  11.098  30.893  1.00  0.00    -0.340 N 
HETATM   12  N   UNL     1      11.640   8.060  27.714  1.00  0.00    -0.340 N 
HETATM   13  C   UNL     1      15.242   9.130  31.936  1.00  0.00     0.190 C 
HETATM   14  C   UNL     1       9.451  11.699  30.779  1.00  0.00     0.190 C 
HETATM   15  C   UNL     1      10.523   8.930  27.278  1.00  0.00     0.190 C 
HETATM   16  C   UNL     1      12.385  11.419  33.019  1.00  0.00     0.227 C 
HETATM   17  C   UNL     1      13.898   7.725  28.772  1.00  0.00     0.227 C 
HETATM   18  C   UNL     1       9.020   8.750  30.700  1.00  0.00     0.227 C 
HETATM   19  C   UNL     1      13.653  10.963  32.309  1.00  0.00     0.250 C 
HETATM   20  C   UNL     1       7.827   9.729  30.752  1.00  0.00     0.250 C 
HETATM   21  C   UNL     1      12.722   8.635  28.398  1.00  0.00     0.250 C 
HETATM   22  C   UNL     1      10.151  11.613  32.126  1.00  0.00     0.283 C 
HETATM   23  C   UNL     1      14.343   8.265  31.062  1.00  0.00     0.283 C 
HETATM   24  C   UNL     1       9.386   8.900  28.299  1.00  0.00     0.283 C 
HETATM   25  C   UNL     1      14.064   9.305  34.173  1.00  0.00     0.153 C 
HETATM   26  C   UNL     1       6.985  11.996  31.174  1.00  0.00     0.153 C 
HETATM   27  C   UNL     1      11.488   6.625  27.456  1.00  0.00     0.153 C 
ENDROOT
BRANCH  16  28
HETATM   28  C   UNL     1      12.638  12.690  33.807  1.00  0.00     0.016 C 
HETATM   29  C   UNL     1      14.096  13.125  33.676  1.00  0.00     0.012 C 
HETATM   30  C   UNL     1      12.267  12.496  35.277  1.00  0.00     0.012 C 
ENDBRANCH  16  28
BRANCH  14  31
HETATM   31  C   UNL     1       9.475  13.138  30.267  1.00  0.00     0.014 C 
HETATM   32  C   UNL     1       9.836  14.088  31.411  1.00  0.00     0.012 C 
BRANCH  31  33
HETATM   33  C   UNL     1      10.461  13.328  29.100  1.00  0.00     0.002 C 
HETATM   34  C   UNL     1      10.042  12.608  27.826  1.00  0.00     0.005 C 
ENDBRANCH  31  33
ENDBRANCH  14  31
BRANCH  13  35
HETATM   35  C   UNL     1      16.306   8.264  32.596  1.00  0.00     0.014 C 
HETATM   36  C   UNL     1      16.759   7.170  31.625  1.00  0.00     0.012 C 
BRANCH  35  37
HETATM   37  C   UNL     1      17.523   9.082  33.063  1.00  0.00     0.002 C 
HETATM   38  C   UNL     1      17.914  10.195  32.099  1.00  0.00     0.005 C 
ENDBRANCH  35  37
ENDBRANCH  13  35
BRANCH  18  39
HETATM   39  C   UNL     1       8.562   7.300  30.868  1.00  0.00     0.016 C 
HETATM   40  C   UNL     1       9.674   6.335  30.467  1.00  0.00     0.012 C 
HETATM   41  C   UNL     1       8.119   7.042  32.307  1.00  0.00     0.012 C 
ENDBRANCH  18  39
BRANCH  17  42
HETATM   42  C   UNL     1      14.779   7.480  27.555  1.00  0.00     0.016 C 
HETATM   43  C   UNL     1      15.011   5.983  27.350  1.00  0.00     0.012 C 
HETATM   44  C   UNL     1      16.112   8.213  27.697  1.00  0.00     0.012 C 
ENDBRANCH  17  42
BRANCH  15  45
HETATM   45  C   UNL     1      10.020   8.613  25.871  1.00  0.00     0.014 C 
HETATM   46  C   UNL     1       9.289   9.828  25.289  1.00  0.00     0.012 C 
BRANCH  45  47
HETATM   47  C   UNL     1      11.155   8.187  24.919  1.00  0.00     0.002 C 
HETATM   48  C   UNL     1      10.658   7.533  23.638  1.00  0.00     0.005 C 
ENDBRANCH  45  47
ENDBRANCH  15  45
TORSDOF 9
ENDMDL
MODEL 9
REMARK VINA RESULT:    -5.049     17.019     22.237
REMARK INTER + INTRA:          -7.709
REMARK INTER:                  -8.344
REMARK INTRA:                   0.635
REMARK UNBOUND:                -0.003
REMARK  9 active torsions:
REMARK  status: ('A' for Active; 'I' for Inactive)
REMARK    1  A    between atoms: C_13  and  C_16 
REMARK    2  A    between atoms: C_14  and  C_17 
REMARK    3  A    between atoms: C_15  and  C_18 
REMARK    4  A    between atoms: C_16  and  C_22 
REMARK    5  A    between atoms: C_17  and  C_23 
REMARK    6  A    between atoms: C_18  and  C_24 
REMARK    7  A    between atoms: C_19  and  C_25 
REMARK    8  A    between atoms: C_20  and  C_26 
REMARK    9  A    between atoms: C_21  and  C_27 
ROOT
HETATM    1  O   UNL     1      14.480   9.495  32.422  1.00  0.00    -0.304 OA
HETATM    2  O   UNL     1      11.435  10.575  28.507  1.00  0.00    -0.304 OA
HETATM    3  O   UNL     1      10.747  10.817  33.295  1.00  0.00    -0.304 OA
HETATM    4  O   UNL     1      14.649  10.095  29.905  1.00  0.00    -0.270 OA
HETATM    5  O   UNL     1      10.886   9.827  36.595  1.00  0.00    -0.270 OA
HETATM    6  O   UNL     1      12.042  11.998  30.640  1.00  0.00    -0.270 OA
HETATM    7  O   UNL     1      14.303   8.177  34.306  1.00  0.00    -0.263 OA
HETATM    8  O   UNL     1      10.921   8.658  29.685  1.00  0.00    -0.263 OA
HETATM    9  O   UNL     1      10.176  12.352  34.911  1.00  0.00    -0.263 OA
HETATM   10  N   UNL     1      13.647   8.081  29.335  1.00  0.00    -0.340 N 
HETATM   11  N   UNL     1      12.924  10.239  35.568  1.00  0.00    -0.340 N 
HETATM   12  N   UNL     1       9.860  12.368  31.336  1.00  0.00    -0.340 N 
HETATM   13  C   UNL     1      12.887   8.730  28.247  1.00  0.00     0.190 C 
HETATM   14  C   UNL     1      13.725  10.551  34.366  1.00  0.00     0.190 C 
HETATM   15  C   UNL     1      10.305  13.038  32.580  1.00  0.00     0.190 C 
HETATM   16  C   UNL     1      14.754   8.372  31.557  1.00  0.00     0.227 C 
HETATM   17  C   UNL     1      10.338  11.287  29.115  1.00  0.00     0.227 C 
HETATM   18  C   UNL     1      10.870   9.709  34.192  1.00  0.00     0.227 C 
HETATM   19  C   UNL     1      14.376   8.922  30.188  1.00  0.00     0.250 C 
HETATM   20  C   UNL     1      11.550   9.946  35.559  1.00  0.00     0.250 C 
HETATM   21  C   UNL     1      10.827  11.909  30.428  1.00  0.00     0.250 C 
HETATM   22  C   UNL     1      14.201   9.253  33.734  1.00  0.00     0.283 C 
HETATM   23  C   UNL     1      11.631   9.283  28.907  1.00  0.00     0.283 C 
HETATM   24  C   UNL     1      10.354  12.042  33.740  1.00  0.00     0.283 C 
HETATM   25  C   UNL     1      13.489   6.642  29.550  1.00  0.00     0.153 C 
HETATM   26  C   UNL     1      13.612  10.235  36.859  1.00  0.00     0.153 C 
HETATM   27  C   UNL     1       8.415  12.167  31.184  1.00  0.00     0.153 C 
ENDROOT
BRANCH  16  28
HETATM   28  C   UNL     1      16.230   8.019  31.605  1.00  0.00     0.016 C 
HETATM   29  C   UNL     1      16.884   8.250  30.245  1.00  0.00     0.012 C 
HETATM   30  C   UNL     1      16.423   6.571  32.053  1.00  0.00     0.012 C 
ENDBRANCH  16  28
BRANCH  14  31
HETATM   31  C   UNL     1      14.912  11.483  34.604  1.00  0.00     0.014 C 
HETATM   32  C   UNL     1      16.220  10.731  34.349  1.00  0.00     0.012 C 
BRANCH  31  33
HETATM   33  C   UNL     1      14.853  12.743  33.723  1.00  0.00     0.002 C 
HETATM   34  C   UNL     1      13.656  13.636  34.015  1.00  0.00     0.005 C 
ENDBRANCH  31  33
ENDBRANCH  14  31
BRANCH  13  35
HETATM   35  C   UNL     1      12.504   7.849  27.066  1.00  0.00     0.014 C 
HETATM   36  C   UNL     1      11.500   8.585  26.174  1.00  0.00     0.012 C 
BRANCH  35  37
HETATM   37  C   UNL     1      13.723   7.419  26.232  1.00  0.00     0.002 C 
HETATM   38  C   UNL     1      13.626   5.995  25.701  1.00  0.00     0.005 C 
ENDBRANCH  35  37
ENDBRANCH  13  35
BRANCH  18  39
HETATM   39  C   UNL     1       9.479   9.094  34.360  1.00  0.00     0.016 C 
HETATM   40  C   UNL     1       8.697   9.174  33.051  1.00  0.00     0.012 C 
HETATM   41  C   UNL     1       9.587   7.646  34.834  1.00  0.00     0.012 C 
ENDBRANCH  18  39
BRANCH  17  42
HETATM   42  C   UNL     1       9.921  12.379  28.141  1.00  0.00     0.016 C 
HETATM   43  C   UNL     1       9.606  11.787  26.767  1.00  0.00     0.012 C 
HETATM   44  C   UNL     1      11.009  13.446  28.026  1.00  0.00     0.012 C 
ENDBRANCH  17  42
BRANCH  15  45
HETATM   45  C   UNL     1       9.477  14.271  32.935  1.00  0.00     0.014 C 
HETATM   46  C   UNL     1       9.301  15.158  31.698  1.00  0.00     0.012 C 
BRANCH  45  47
HETATM   47  C   UNL     1       8.095  13.909  33.513  1.00  0.00     0.002 C 
HETATM   48  C   UNL     1       7.104  15.063  33.481  1.00  0.00     0.005 C 
ENDBRANCH  45  47
ENDBRANCH  15  45
TORSDOF 9
ENDMDL
MODEL 10
REMARK VINA RESULT:    -5.002     18.366     23.388
REMARK INTER + INTRA:          -7.637
REMARK INTER:                  -7.692
REMARK INTRA:                   0.055
REMARK UNBOUND:                -0.003
REMARK  9 active torsions:
REMARK  status: ('A' for Active; 'I' for Inactive)
REMARK    1  A    between atoms: C_13  and  C_16 
REMARK    2  A    between atoms: C_14  and  C_17 
REMARK    3  A    between atoms: C_15  and  C_18 
REMARK    4  A    between atoms: C_16  and  C_22 
REMARK    5  A    between atoms: C_17  and  C_23 
REMARK    6  A    between atoms: C_18  and  C_24 
REMARK    7  A    between atoms: C_19  and  C_25 
REMARK    8  A    between atoms: C_20  and  C_26 
REMARK    9  A    between atoms: C_21  and  C_27 
ROOT
HETATM    1  O   UNL     1      16.192   8.569  30.779  1.00  0.00    -0.304 OA
HETATM    2  O   UNL     1      11.453   9.156  29.056  1.00  0.00    -0.304 OA
HETATM    3  O   UNL     1      13.205   8.468  33.519  1.00  0.00    -0.304 OA
HETATM    4  O   UNL     1      14.953   9.547  28.722  1.00  0.00    -0.270 OA
HETATM    5  O   UNL     1      15.174   7.111  36.002  1.00  0.00    -0.270 OA
HETATM    6  O   UNL     1      12.719  10.375  31.019  1.00  0.00    -0.270 OA
HETATM    7  O   UNL     1      17.263   7.007  32.095  1.00  0.00    -0.263 OA
HETATM    8  O   UNL     1      12.020   7.027  29.745  1.00  0.00    -0.263 OA
HETATM    9  O   UNL     1      13.198   9.485  35.583  1.00  0.00    -0.263 OA
HETATM   10  N   UNL     1      14.260   7.422  28.100  1.00  0.00    -0.340 N 
HETATM   11  N   UNL     1      16.288   8.306  34.356  1.00  0.00    -0.340 N 
HETATM   12  N   UNL     1      11.151   9.912  32.667  1.00  0.00    -0.340 N 
HETATM   13  C   UNL     1      12.941   7.939  27.682  1.00  0.00     0.190 C 
HETATM   14  C   UNL     1      16.297   9.031  33.068  1.00  0.00     0.190 C 
HETATM   15  C   UNL     1      12.000  10.504  33.727  1.00  0.00     0.190 C 
HETATM   16  C   UNL     1      16.233   7.733  29.602  1.00  0.00     0.227 C 
HETATM   17  C   UNL     1      10.681   9.378  30.253  1.00  0.00     0.227 C 
HETATM   18  C   UNL     1      13.992   7.343  33.920  1.00  0.00     0.227 C 
HETATM   19  C   UNL     1      15.116   8.322  28.751  1.00  0.00     0.250 C 
HETATM   20  C   UNL     1      15.192   7.588  34.861  1.00  0.00     0.250 C 
HETATM   21  C   UNL     1      11.611   9.928  31.341  1.00  0.00     0.250 C 
HETATM   22  C   UNL     1      16.662   8.062  31.954  1.00  0.00     0.283 C 
HETATM   23  C   UNL     1      12.094   7.953  28.948  1.00  0.00     0.283 C 
HETATM   24  C   UNL     1      12.831   9.422  34.417  1.00  0.00     0.283 C 
HETATM   25  C   UNL     1      14.544   5.994  27.946  1.00  0.00     0.153 C 
HETATM   26  C   UNL     1      17.510   8.339  35.160  1.00  0.00     0.153 C 
HETATM   27  C   UNL     1       9.904   9.279  33.106  1.00  0.00     0.153 C 
ENDROOT
BRANCH  16  28
HETATM   28  C   UNL     1      17.573   7.874  28.904  1.00  0.00     0.016 C 
HETATM   29  C   UNL     1      17.894   9.345  28.646  1.00  0.00     0.012 C 
HETATM   30  C   UNL     1      17.585   7.086  27.595  1.00  0.00     0.012 C 
ENDBRANCH  16  28
BRANCH  14  31
HETATM   31  C   UNL     1      17.213  10.253  33.021  1.00  0.00     0.014 C 
HETATM   32  C   UNL     1      18.512   9.897  32.293  1.00  0.00     0.012 C 
BRANCH  31  33
HETATM   33  C   UNL     1      16.545  11.458  32.337  1.00  0.00     0.002 C 
HETATM   34  C   UNL     1      15.327  11.984  33.083  1.00  0.00     0.005 C 
ENDBRANCH  31  33
ENDBRANCH  14  31
BRANCH  13  35
HETATM   35  C   UNL     1      12.221   7.161  26.589  1.00  0.00     0.014 C 
HETATM   36  C   UNL     1      10.722   7.474  26.632  1.00  0.00     0.012 C 
BRANCH  35  37
HETATM   37  C   UNL     1      12.775   7.466  25.187  1.00  0.00     0.002 C 
HETATM   38  C   UNL     1      11.697   7.809  24.167  1.00  0.00     0.005 C 
ENDBRANCH  35  37
ENDBRANCH  13  35
BRANCH  18  39
HETATM   39  C   UNL     1      13.038   6.293  34.493  1.00  0.00     0.016 C 
HETATM   40  C   UNL     1      11.745   6.244  33.683  1.00  0.00     0.012 C 
HETATM   41  C   UNL     1      13.707   4.919  34.522  1.00  0.00     0.012 C 
ENDBRANCH  18  39
BRANCH  17  42
HETATM   42  C   UNL     1       9.611  10.404  29.910  1.00  0.00     0.016 C 
HETATM   43  C   UNL     1       8.288   9.715  29.578  1.00  0.00     0.012 C 
HETATM   44  C   UNL     1      10.061  11.285  28.745  1.00  0.00     0.012 C 
ENDBRANCH  17  42
BRANCH  15  45
HETATM   45  C   UNL     1      11.215  11.337  34.739  1.00  0.00     0.014 C 
HETATM   46  C   UNL     1      12.182  12.115  35.639  1.00  0.00     0.012 C 
BRANCH  45  47
HETATM   47  C   UNL     1      10.234  12.315  34.065  1.00  0.00     0.002 C 
HETATM   48  C   UNL     1      10.914  13.318  33.146  1.00  0.00     0.005 C 
ENDBRANCH  45  47
ENDBRANCH  15  45
TORSDOF 9
ENDMDL
MODEL 11
REMARK VINA RESULT:    -4.971     16.643     21.188
REMARK INTER + INTRA:          -7.588
REMARK INTER:                  -8.825
REMARK INTRA:                   1.237
REMARK UNBOUND:                -0.003
REMARK  9 active torsions:
REMARK  status: ('A' for Active; 'I' for Inactive)
REMARK    1  A    between atoms: C_13  and  C_16 
REMARK    2  A    between atoms: C_14  and  C_17 
REMARK    3  A    between atoms: C_15  and  C_18 
REMARK    4  A    between atoms: C_16  and  C_22 
REMARK    5  A    between atoms: C_17  and  C_23 
REMARK    6  A    between atoms: C_18  and  C_24 
REMARK    7  A    between atoms: C_19  and  C_25 
REMARK    8  A    between atoms: C_20  and  C_26 
REMARK    9  A    between atoms: C_21  and  C_27 
ROOT
HETATM    1  O   UNL     1      12.333   8.590  29.201  1.00  0.00    -0.304 OA
HETATM    2  O   UNL     1      13.760  11.526  33.088  1.00  0.00    -0.304 OA
HETATM    3  O   UNL     1      10.057  11.853  29.984  1.00  0.00    -0.304 OA
HETATM    4  O   UNL     1      13.750   8.435  31.367  1.00  0.00    -0.270 OA
HETATM    5  O   UNL     1       8.409  11.754  26.957  1.00  0.00    -0.270 OA
HETATM    6  O   UNL     1      11.412  10.478  32.513  1.00  0.00    -0.270 OA
HETATM    7  O   UNL     1      11.846   8.957  26.977  1.00  0.00    -0.263 OA
HETATM    8  O   UNL     1      14.110  12.401  30.981  1.00  0.00    -0.263 OA
HETATM    9  O   UNL     1       7.758  11.954  29.999  1.00  0.00    -0.263 OA
HETATM   10  N   UNL     1      15.306   9.911  30.481  1.00  0.00    -0.340 N 
HETATM   11  N   UNL     1       9.278   9.741  27.711  1.00  0.00    -0.340 N 
HETATM   12  N   UNL     1      10.221  12.469  32.558  1.00  0.00    -0.340 N 
HETATM   13  C   UNL     1      15.486  10.562  31.794  1.00  0.00     0.190 C 
HETATM   14  C   UNL     1      10.086   8.962  28.672  1.00  0.00     0.190 C 
HETATM   15  C   UNL     1       8.977  11.807  32.099  1.00  0.00     0.190 C 
HETATM   16  C   UNL     1      13.760   8.637  28.986  1.00  0.00     0.227 C 
HETATM   17  C   UNL     1      12.624  12.388  33.298  1.00  0.00     0.227 C 
HETATM   18  C   UNL     1      10.191  11.939  28.562  1.00  0.00     0.227 C 
HETATM   19  C   UNL     1      14.283   8.957  30.380  1.00  0.00     0.250 C 
HETATM   20  C   UNL     1       9.200  11.143  27.684  1.00  0.00     0.250 C 
HETATM   21  C   UNL     1      11.372  11.691  32.752  1.00  0.00     0.250 C 
HETATM   22  C   UNL     1      11.507   8.840  28.145  1.00  0.00     0.283 C 
HETATM   23  C   UNL     1      14.387  11.613  31.876  1.00  0.00     0.283 C 
HETATM   24  C   UNL     1       8.834  11.923  30.581  1.00  0.00     0.283 C 
HETATM   25  C   UNL     1      16.091  10.387  29.340  1.00  0.00     0.153 C 
HETATM   26  C   UNL     1       8.506   8.997  26.716  1.00  0.00     0.153 C 
HETATM   27  C   UNL     1      10.167  13.927  32.706  1.00  0.00     0.153 C 
ENDROOT
BRANCH  16  28
HETATM   28  C   UNL     1      14.266   7.284  28.519  1.00  0.00     0.016 C 
HETATM   29  C   UNL     1      14.884   6.509  29.681  1.00  0.00     0.012 C 
HETATM   30  C   UNL     1      15.278   7.449  27.387  1.00  0.00     0.012 C 
ENDBRANCH  16  28
BRANCH  14  31
HETATM   31  C   UNL     1       9.532   7.578  29.010  1.00  0.00     0.014 C 
HETATM   32  C   UNL     1      10.495   6.499  28.509  1.00  0.00     0.012 C 
BRANCH  31  33
HETATM   33  C   UNL     1       9.285   7.399  30.518  1.00  0.00     0.002 C 
HETATM   34  C   UNL     1      10.393   6.635  31.230  1.00  0.00     0.005 C 
ENDBRANCH  31  33
ENDBRANCH  14  31
BRANCH  13  35
HETATM   35  C   UNL     1      16.839  11.209  32.053  1.00  0.00     0.014 C 
HETATM   36  C   UNL     1      16.778  12.044  33.335  1.00  0.00     0.012 C 
BRANCH  35  37
HETATM   37  C   UNL     1      17.975  10.177  32.158  1.00  0.00     0.002 C 
HETATM   38  C   UNL     1      19.118  10.620  33.062  1.00  0.00     0.005 C 
ENDBRANCH  35  37
ENDBRANCH  13  35
BRANCH  18  39
HETATM   39  C   UNL     1      10.201  13.422  28.188  1.00  0.00     0.016 C 
HETATM   40  C   UNL     1       9.587  14.261  29.306  1.00  0.00     0.012 C 
HETATM   41  C   UNL     1      11.624  13.890  27.886  1.00  0.00     0.012 C 
ENDBRANCH  18  39
BRANCH  17  42
HETATM   42  C   UNL     1      12.494  12.597  34.801  1.00  0.00     0.016 C 
HETATM   43  C   UNL     1      13.866  12.821  35.436  1.00  0.00     0.012 C 
HETATM   44  C   UNL     1      11.791  11.406  35.452  1.00  0.00     0.012 C 
ENDBRANCH  17  42
BRANCH  15  45
HETATM   45  C   UNL     1       7.724  12.303  32.819  1.00  0.00     0.014 C 
HETATM   46  C   UNL     1       6.580  11.301  32.629  1.00  0.00     0.012 C 
BRANCH  45  47
HETATM   47  C   UNL     1       7.960  12.540  34.323  1.00  0.00     0.002 C 
HETATM   48  C   UNL     1       7.009  13.557  34.933  1.00  0.00     0.005 C 
ENDBRANCH  45  47
ENDBRANCH  15  45
TORSDOF 9
ENDMDL
MODEL 12
REMARK VINA RESULT:    -4.954     17.300     20.817
REMARK INTER + INTRA:          -7.563
REMARK INTER:                  -7.405
REMARK INTRA:                  -0.158
REMARK UNBOUND:                -0.003
REMARK  9 active torsions:
REMARK  status: ('A' for Active; 'I' for Inactive)
REMARK    1  A    between atoms: C_13  and  C_16 
REMARK    2  A    between atoms: C_14  and  C_17 
REMARK    3  A    between atoms: C_15  and  C_18 
REMARK    4  A    between atoms: C_16  and  C_22 
REMARK    5  A    between atoms: C_17  and  C_23 
REMARK    6  A    between atoms: C_18  and  C_24 
REMARK    7  A    between atoms: C_19  and  C_25 
REMARK    8  A    between atoms: C_20  and  C_26 
REMARK    9  A    between atoms: C_21  and  C_27 
ROOT
HETATM    1  O   UNL     1      16.384   7.579  25.656  1.00  0.00    -0.304 OA
HETATM    2  O   UNL     1      19.453   9.508  22.102  1.00  0.00    -0.304 OA
HETATM    3  O   UNL     1      16.846   5.428  22.249  1.00  0.00    -0.304 OA
HETATM    4  O   UNL     1      17.377   9.866  24.943  1.00  0.00    -0.270 OA
HETATM    5  O   UNL     1      15.500   2.545  23.577  1.00  0.00    -0.270 OA
HETATM    6  O   UNL     1      16.991   8.589  21.915  1.00  0.00    -0.270 OA
HETATM    7  O   UNL     1      16.229   5.553  26.747  1.00  0.00    -0.263 OA
HETATM    8  O   UNL     1      20.263   7.675  23.248  1.00  0.00    -0.263 OA
HETATM    9  O   UNL     1      15.189   4.360  21.063  1.00  0.00    -0.263 OA
HETATM   10  N   UNL     1      19.506   9.146  25.517  1.00  0.00    -0.340 N 
HETATM   11  N   UNL     1      14.832   4.532  24.568  1.00  0.00    -0.340 N 
HETATM   12  N   UNL     1      17.414   7.050  20.230  1.00  0.00    -0.340 N 
HETATM   13  C   UNL     1      20.091   9.840  24.352  1.00  0.00     0.190 C 
HETATM   14  C   UNL     1      14.936   5.998  24.721  1.00  0.00     0.190 C 
HETATM   15  C   UNL     1      16.037   6.507  20.295  1.00  0.00     0.190 C 
HETATM   16  C   UNL     1      17.482   8.035  26.475  1.00  0.00     0.227 C 
HETATM   17  C   UNL     1      19.174   8.703  20.939  1.00  0.00     0.227 C 
HETATM   18  C   UNL     1      16.983   4.410  23.245  1.00  0.00     0.227 C 
HETATM   19  C   UNL     1      18.107   9.114  25.601  1.00  0.00     0.250 C 
HETATM   20  C   UNL     1      15.700   3.746  23.793  1.00  0.00     0.250 C 
HETATM   21  C   UNL     1      17.767   8.111  21.078  1.00  0.00     0.250 C 
HETATM   22  C   UNL     1      15.914   6.313  25.843  1.00  0.00     0.283 C 
HETATM   23  C   UNL     1      19.963   8.861  23.193  1.00  0.00     0.283 C 
HETATM   24  C   UNL     1      15.985   5.280  21.205  1.00  0.00     0.283 C 
HETATM   25  C   UNL     1      20.392   8.418  26.428  1.00  0.00     0.153 C 
HETATM   26  C   UNL     1      13.746   3.853  25.275  1.00  0.00     0.153 C 
HETATM   27  C   UNL     1      18.341   6.372  19.317  1.00  0.00     0.153 C 
ENDROOT
BRANCH  16  28
HETATM   28  C   UNL     1      16.960   8.628  27.771  1.00  0.00     0.016 C 
HETATM   29  C   UNL     1      17.356  10.098  27.889  1.00  0.00     0.012 C 
HETATM   30  C   UNL     1      17.476   7.837  28.972  1.00  0.00     0.012 C 
ENDBRANCH  16  28
BRANCH  14  31
HETATM   31  C   UNL     1      13.612   6.719  24.964  1.00  0.00     0.014 C 
HETATM   32  C   UNL     1      13.649   7.428  26.320  1.00  0.00     0.012 C 
BRANCH  31  33
HETATM   33  C   UNL     1      13.285   7.732  23.854  1.00  0.00     0.002 C 
HETATM   34  C   UNL     1      12.962   7.086  22.515  1.00  0.00     0.005 C 
ENDBRANCH  31  33
ENDBRANCH  14  31
BRANCH  13  35
HETATM   35  C   UNL     1      21.538  10.294  24.487  1.00  0.00     0.014 C 
HETATM   36  C   UNL     1      22.102  10.643  23.107  1.00  0.00     0.012 C 
BRANCH  35  37
HETATM   37  C   UNL     1      21.691  11.499  25.432  1.00  0.00     0.002 C 
HETATM   38  C   UNL     1      20.619  12.563  25.240  1.00  0.00     0.005 C 
ENDBRANCH  35  37
ENDBRANCH  13  35
BRANCH  18  39
HETATM   39  C   UNL     1      17.966   3.368  22.708  1.00  0.00     0.016 C 
HETATM   40  C   UNL     1      19.165   4.049  22.054  1.00  0.00     0.012 C 
HETATM   41  C   UNL     1      18.422   2.434  23.827  1.00  0.00     0.012 C 
ENDBRANCH  18  39
BRANCH  17  42
HETATM   42  C   UNL     1      19.237   9.628  19.731  1.00  0.00     0.016 C 
HETATM   43  C   UNL     1      20.544   9.429  18.965  1.00  0.00     0.012 C 
HETATM   44  C   UNL     1      19.086  11.087  20.160  1.00  0.00     0.012 C 
ENDBRANCH  17  42
BRANCH  15  45
HETATM   45  C   UNL     1      15.436   6.213  18.922  1.00  0.00     0.014 C 
HETATM   46  C   UNL     1      13.929   5.964  19.052  1.00  0.00     0.012 C 
BRANCH  45  47
HETATM   47  C   UNL     1      15.688   7.347  17.909  1.00  0.00     0.002 C 
HETATM   48  C   UNL     1      15.029   8.662  18.296  1.00  0.00     0.005 C 
ENDBRANCH  45  47
ENDBRANCH  15  45
TORSDOF 9
ENDMDL
MODEL 13
REMARK VINA RESULT:    -4.930     17.377     21.228
REMARK INTER + INTRA:          -7.526
REMARK INTER:                  -7.571
REMARK INTRA:                   0.045
REMARK UNBOUND:                -0.003
REMARK  9 active torsions:
REMARK  status: ('A' for Active; 'I' for Inactive)
REMARK    1  A    between atoms: C_13  and  C_16 
REMARK    2  A    between atoms: C_14  and  C_17 
REMARK    3  A    between atoms: C_15  and  C_18 
REMARK    4  A    between atoms: C_16  and  C_22 
REMARK    5  A    between atoms: C_17  and  C_23 
REMARK    6  A    between atoms: C_18  and  C_24 
REMARK    7  A    between atoms: C_19  and  C_25 
REMARK    8  A    between atoms: C_20  and  C_26 
REMARK    9  A    between atoms: C_21  and  C_27 
ROOT
HETATM    1  O   UNL     1      18.903   8.894  19.974  1.00  0.00    -0.304 OA
HETATM    2  O   UNL     1      17.475   9.149  24.839  1.00  0.00    -0.304 OA
HETATM    3  O   UNL     1      21.833   8.709  22.772  1.00  0.00    -0.304 OA
HETATM    4  O   UNL     1      16.903   9.731  21.396  1.00  0.00    -0.270 OA
HETATM    5  O   UNL     1      24.222   7.551  20.572  1.00  0.00    -0.270 OA
HETATM    6  O   UNL     1      19.316  10.502  23.527  1.00  0.00    -0.270 OA
HETATM    7  O   UNL     1      20.192   7.441  18.731  1.00  0.00    -0.263 OA
HETATM    8  O   UNL     1      18.187   7.080  24.104  1.00  0.00    -0.263 OA
HETATM    9  O   UNL     1      23.863   9.791  22.709  1.00  0.00    -0.263 OA
HETATM   10  N   UNL     1      16.389   7.550  21.999  1.00  0.00    -0.340 N 
HETATM   11  N   UNL     1      22.473   8.754  19.637  1.00  0.00    -0.340 N 
HETATM   12  N   UNL     1      21.074  10.004  24.957  1.00  0.00    -0.340 N 
HETATM   13  C   UNL     1      16.043   7.976  23.370  1.00  0.00     0.190 C 
HETATM   14  C   UNL     1      21.167   9.435  19.753  1.00  0.00     0.190 C 
HETATM   15  C   UNL     1      22.059  10.678  24.080  1.00  0.00     0.190 C 
HETATM   16  C   UNL     1      17.751   8.023  19.957  1.00  0.00     0.227 C 
HETATM   17  C   UNL     1      18.712   9.365  25.546  1.00  0.00     0.227 C 
HETATM   18  C   UNL     1      22.215   7.645  21.894  1.00  0.00     0.227 C 
HETATM   19  C   UNL     1      16.957   8.518  21.158  1.00  0.00     0.250 C 
HETATM   20  C   UNL     1      23.068   7.990  20.654  1.00  0.00     0.250 C 
HETATM   21  C   UNL     1      19.721  10.003  24.584  1.00  0.00     0.250 C 
HETATM   22  C   UNL     1      20.060   8.454  19.402  1.00  0.00     0.283 C 
HETATM   23  C   UNL     1      17.360   7.982  24.134  1.00  0.00     0.283 C 
HETATM   24  C   UNL     1      22.725   9.669  23.144  1.00  0.00     0.283 C 
HETATM   25  C   UNL     1      16.258   6.137  21.640  1.00  0.00     0.153 C 
HETATM   26  C   UNL     1      23.195   8.884  18.372  1.00  0.00     0.153 C 
HETATM   27  C   UNL     1      21.612   9.314  26.134  1.00  0.00     0.153 C 
ENDROOT
BRANCH  16  28
HETATM   28  C   UNL     1      16.964   8.219  18.674  1.00  0.00     0.016 C 
HETATM   29  C   UNL     1      15.547   8.700  18.980  1.00  0.00     0.012 C 
HETATM   30  C   UNL     1      16.925   6.925  17.862  1.00  0.00     0.012 C 
ENDBRANCH  16  28
BRANCH  14  31
HETATM   31  C   UNL     1      21.024  10.706  18.917  1.00  0.00     0.014 C 
HETATM   32  C   UNL     1      20.001  10.479  17.802  1.00  0.00     0.012 C 
BRANCH  31  33
HETATM   33  C   UNL     1      20.612  11.921  19.765  1.00  0.00     0.002 C 
HETATM   34  C   UNL     1      21.698  12.393  20.721  1.00  0.00     0.005 C 
ENDBRANCH  31  33
ENDBRANCH  14  31
BRANCH  13  35
HETATM   35  C   UNL     1      15.022   7.122  24.110  1.00  0.00     0.014 C 
HETATM   36  C   UNL     1      15.347   7.106  25.606  1.00  0.00     0.012 C 
BRANCH  35  37
HETATM   37  C   UNL     1      13.580   7.613  23.896  1.00  0.00     0.002 C 
HETATM   38  C   UNL     1      12.786   6.762  22.914  1.00  0.00     0.005 C 
ENDBRANCH  35  37
ENDBRANCH  13  35
BRANCH  18  39
HETATM   39  C   UNL     1      22.878   6.561  22.746  1.00  0.00     0.016 C 
HETATM   40  C   UNL     1      22.195   6.455  24.107  1.00  0.00     0.012 C 
HETATM   41  C   UNL     1      22.846   5.217  22.022  1.00  0.00     0.012 C 
ENDBRANCH  18  39
BRANCH  17  42
HETATM   42  C   UNL     1      18.409  10.316  26.695  1.00  0.00     0.016 C 
HETATM   43  C   UNL     1      17.410   9.689  27.666  1.00  0.00     0.012 C 
HETATM   44  C   UNL     1      17.878  11.648  26.168  1.00  0.00     0.012 C 
ENDBRANCH  17  42
BRANCH  15  45
HETATM   45  C   UNL     1      23.095  11.497  24.848  1.00  0.00     0.014 C 
HETATM   46  C   UNL     1      23.654  12.608  23.952  1.00  0.00     0.012 C 
BRANCH  45  47
HETATM   47  C   UNL     1      22.524  12.112  26.140  1.00  0.00     0.002 C 
HETATM   48  C   UNL     1      23.592  12.494  27.153  1.00  0.00     0.005 C 
ENDBRANCH  45  47
ENDBRANCH  15  45
TORSDOF 9
ENDMDL
MODEL 14
REMARK VINA RESULT:    -4.915     17.169     21.414
REMARK INTER + INTRA:          -7.504
REMARK INTER:                  -7.540
REMARK INTRA:                   0.036
REMARK UNBOUND:                -0.003
REMARK  9 active torsions:
REMARK  status: ('A' for Active; 'I' for Inactive)
REMARK    1  A    between atoms: C_13  and  C_16 
REMARK    2  A    between atoms: C_14  and  C_17 
REMARK    3  A    between atoms: C_15  and  C_18 
REMARK    4  A    between atoms: C_16  and  C_22 
REMARK    5  A    between atoms: C_17  and  C_23 
REMARK    6  A    between atoms: C_18  and  C_24 
REMARK    7  A    between atoms: C_19  and  C_25 
REMARK    8  A    between atoms: C_20  and  C_26 
REMARK    9  A    between atoms: C_21  and  C_27 
ROOT
HETATM    1  O   UNL     1      22.207  10.556  18.658  1.00  0.00    -0.304 OA
HETATM    2  O   UNL     1      17.732   9.248  20.664  1.00  0.00    -0.304 OA
HETATM    3  O   UNL     1      22.254   8.914  22.366  1.00  0.00    -0.304 OA
HETATM    4  O   UNL     1      19.691  11.121  18.391  1.00  0.00    -0.270 OA
HETATM    5  O   UNL     1      25.642   8.276  22.326  1.00  0.00    -0.270 OA
HETATM    6  O   UNL     1      19.700  10.680  21.671  1.00  0.00    -0.270 OA
HETATM    7  O   UNL     1      24.212   9.471  18.305  1.00  0.00    -0.263 OA
HETATM    8  O   UNL     1      19.082   7.503  19.986  1.00  0.00    -0.263 OA
HETATM    9  O   UNL     1      23.510   9.615  24.163  1.00  0.00    -0.263 OA
HETATM   10  N   UNL     1      19.270   8.979  17.605  1.00  0.00    -0.340 N 
HETATM   11  N   UNL     1      24.912   9.993  20.948  1.00  0.00    -0.340 N 
HETATM   12  N   UNL     1      19.969   9.429  23.607  1.00  0.00    -0.340 N 
HETATM   13  C   UNL     1      17.989   8.926  18.338  1.00  0.00     0.190 C 
HETATM   14  C   UNL     1      23.824  10.781  20.332  1.00  0.00     0.190 C 
HETATM   15  C   UNL     1      21.155  10.213  24.023  1.00  0.00     0.190 C 
HETATM   16  C   UNL     1      21.575   9.942  17.514  1.00  0.00     0.227 C 
HETATM   17  C   UNL     1      18.040   8.996  22.050  1.00  0.00     0.227 C 
HETATM   18  C   UNL     1      23.314   8.196  21.727  1.00  0.00     0.227 C 
HETATM   19  C   UNL     1      20.097  10.085  17.851  1.00  0.00     0.250 C 
HETATM   20  C   UNL     1      24.722   8.829  21.712  1.00  0.00     0.250 C 
HETATM   21  C   UNL     1      19.309   9.775  22.418  1.00  0.00     0.250 C 
HETATM   22  C   UNL     1      23.478  10.179  18.979  1.00  0.00     0.283 C 
HETATM   23  C   UNL     1      18.346   8.450  19.740  1.00  0.00     0.283 C 
HETATM   24  C   UNL     1      22.442   9.522  23.570  1.00  0.00     0.283 C 
HETATM   25  C   UNL     1      19.668   7.831  16.788  1.00  0.00     0.153 C 
HETATM   26  C   UNL     1      26.284  10.459  20.746  1.00  0.00     0.153 C 
HETATM   27  C   UNL     1      19.614   8.285  24.452  1.00  0.00     0.153 C 
ENDROOT
BRANCH  16  28
HETATM   28  C   UNL     1      21.916  10.710  16.250  1.00  0.00     0.016 C 
HETATM   29  C   UNL     1      20.669  11.377  15.672  1.00  0.00     0.012 C 
HETATM   30  C   UNL     1      22.558   9.788  15.215  1.00  0.00     0.012 C 
ENDBRANCH  16  28
BRANCH  14  31
HETATM   31  C   UNL     1      24.112  12.274  20.183  1.00  0.00     0.014 C 
HETATM   32  C   UNL     1      24.423  12.597  18.719  1.00  0.00     0.012 C 
BRANCH  31  33
HETATM   33  C   UNL     1      22.944  13.147  20.673  1.00  0.00     0.002 C 
HETATM   34  C   UNL     1      22.404  12.733  22.035  1.00  0.00     0.005 C 
ENDBRANCH  31  33
ENDBRANCH  14  31
BRANCH  13  35
HETATM   35  C   UNL     1      16.905   8.033  17.750  1.00  0.00     0.014 C 
HETATM   36  C   UNL     1      15.825   7.767  18.802  1.00  0.00     0.012 C 
BRANCH  35  37
HETATM   37  C   UNL     1      16.265   8.638  16.488  1.00  0.00     0.002 C 
HETATM   38  C   UNL     1      15.975   7.611  15.401  1.00  0.00     0.005 C 
ENDBRANCH  35  37
ENDBRANCH  13  35
BRANCH  18  39
HETATM   39  C   UNL     1      23.341   6.787  22.324  1.00  0.00     0.016 C 
HETATM   40  C   UNL     1      21.925   6.308  22.632  1.00  0.00     0.012 C 
HETATM   41  C   UNL     1      24.043   5.817  21.376  1.00  0.00     0.012 C 
ENDBRANCH  18  39
BRANCH  17  42
HETATM   42  C   UNL     1      16.860   9.500  22.868  1.00  0.00     0.016 C 
HETATM   43  C   UNL     1      15.685   8.527  22.778  1.00  0.00     0.012 C 
HETATM   44  C   UNL     1      16.437  10.894  22.405  1.00  0.00     0.012 C 
ENDBRANCH  17  42
BRANCH  15  45
HETATM   45  C   UNL     1      21.184  10.525  25.518  1.00  0.00     0.014 C 
HETATM   46  C   UNL     1      22.155  11.678  25.794  1.00  0.00     0.012 C 
BRANCH  45  47
HETATM   47  C   UNL     1      19.791  10.876  26.076  1.00  0.00     0.002 C 
HETATM   48  C   UNL     1      19.487  12.366  26.053  1.00  0.00     0.005 C 
ENDBRANCH  45  47
ENDBRANCH  15  45
TORSDOF 9
ENDMDL
MODEL 15
REMARK VINA RESULT:    -4.877     18.067     21.500
REMARK INTER + INTRA:          -7.446
REMARK INTER:                  -7.967
REMARK INTRA:                   0.521
REMARK UNBOUND:                -0.003
REMARK  9 active torsions:
REMARK  status: ('A' for Active; 'I' for Inactive)
REMARK    1  A    between atoms: C_13  and  C_16 
REMARK    2  A    between atoms: C_14  and  C_17 
REMARK    3  A    between atoms: C_15  and  C_18 
REMARK    4  A    between atoms: C_16  and  C_22 
REMARK    5  A    between atoms: C_17  and  C_23 
REMARK    6  A    between atoms: C_18  and  C_24 
REMARK    7  A    between atoms: C_19  and  C_25 
REMARK    8  A    between atoms: C_20  and  C_26 
REMARK    9  A    between atoms: C_21  and  C_27 
ROOT
HETATM    1  O   UNL     1      18.381   7.916  20.886  1.00  0.00    -0.304 OA
HETATM    2  O   UNL     1      15.892   5.591  24.650  1.00  0.00    -0.304 OA
HETATM    3  O   UNL     1      19.698   8.587  24.662  1.00  0.00    -0.304 OA
HETATM    4  O   UNL     1      16.067   6.841  21.345  1.00  0.00    -0.270 OA
HETATM    5  O   UNL     1      22.710   9.926  23.654  1.00  0.00    -0.270 OA
HETATM    6  O   UNL     1      16.565   8.121  24.356  1.00  0.00    -0.270 OA
HETATM    7  O   UNL     1      20.591   8.058  20.240  1.00  0.00    -0.263 OA
HETATM    8  O   UNL     1      17.995   4.768  24.172  1.00  0.00    -0.263 OA
HETATM    9  O   UNL     1      20.337  10.609  25.555  1.00  0.00    -0.263 OA
HETATM   10  N   UNL     1      17.050   4.747  21.528  1.00  0.00    -0.340 N 
HETATM   11  N   UNL     1      20.970  10.068  22.128  1.00  0.00    -0.340 N 
HETATM   12  N   UNL     1      17.690   8.327  26.375  1.00  0.00    -0.340 N 
HETATM   13  C   UNL     1      16.143   4.382  22.636  1.00  0.00     0.190 C 
HETATM   14  C   UNL     1      19.592   9.740  21.705  1.00  0.00     0.190 C 
HETATM   15  C   UNL     1      18.135   9.704  26.057  1.00  0.00     0.190 C 
HETATM   16  C   UNL     1      18.209   6.600  20.315  1.00  0.00     0.227 C 
HETATM   17  C   UNL     1      16.378   6.249  25.837  1.00  0.00     0.227 C 
HETATM   18  C   UNL     1      20.929   8.342  23.974  1.00  0.00     0.227 C 
HETATM   19  C   UNL     1      17.001   6.075  21.080  1.00  0.00     0.250 C 
HETATM   20  C   UNL     1      21.611   9.525  23.253  1.00  0.00     0.250 C 
HETATM   21  C   UNL     1      16.886   7.643  25.451  1.00  0.00     0.250 C 
HETATM   22  C   UNL     1      19.620   8.485  20.848  1.00  0.00     0.283 C 
HETATM   23  C   UNL     1      16.811   4.916  23.896  1.00  0.00     0.283 C 
HETATM   24  C   UNL     1      19.535   9.690  25.444  1.00  0.00     0.283 C 
HETATM   25  C   UNL     1      18.031   3.766  21.062  1.00  0.00     0.153 C 
HETATM   26  C   UNL     1      21.718  11.025  21.313  1.00  0.00     0.153 C 
HETATM   27  C   UNL     1      18.198   7.750  27.624  1.00  0.00     0.153 C 
ENDROOT
BRANCH  16  28
HETATM   28  C   UNL     1      17.903   6.706  18.833  1.00  0.00     0.016 C 
HETATM   29  C   UNL     1      19.122   6.313  18.001  1.00  0.00     0.012 C 
HETATM   30  C   UNL     1      17.445   8.119  18.476  1.00  0.00     0.012 C 
ENDBRANCH  16  28
BRANCH  14  31
HETATM   31  C   UNL     1      18.858  10.860  20.970  1.00  0.00     0.014 C 
HETATM   32  C   UNL     1      19.275  10.873  19.498  1.00  0.00     0.012 C 
BRANCH  31  33
HETATM   33  C   UNL     1      17.329  10.726  21.078  1.00  0.00     0.002 C 
HETATM   34  C   UNL     1      16.807  10.833  22.504  1.00  0.00     0.005 C 
ENDBRANCH  31  33
ENDBRANCH  14  31
BRANCH  13  35
HETATM   35  C   UNL     1      15.837   2.900  22.803  1.00  0.00     0.014 C 
HETATM   36  C   UNL     1      15.266   2.644  24.201  1.00  0.00     0.012 C 
BRANCH  35  37
HETATM   37  C   UNL     1      14.857   2.378  21.738  1.00  0.00     0.002 C 
HETATM   38  C   UNL     1      13.393   2.559  22.116  1.00  0.00     0.005 C 
ENDBRANCH  35  37
ENDBRANCH  13  35
BRANCH  18  39
HETATM   39  C   UNL     1      21.881   7.665  24.961  1.00  0.00     0.016 C 
HETATM   40  C   UNL     1      21.106   6.776  25.931  1.00  0.00     0.012 C 
HETATM   41  C   UNL     1      22.938   6.852  24.215  1.00  0.00     0.012 C 
ENDBRANCH  18  39
BRANCH  17  42
HETATM   42  C   UNL     1      15.202   6.366  26.796  1.00  0.00     0.016 C 
HETATM   43  C   UNL     1      14.725   4.983  27.237  1.00  0.00     0.012 C 
HETATM   44  C   UNL     1      14.057   7.147  26.153  1.00  0.00     0.012 C 
ENDBRANCH  17  42
BRANCH  15  45
HETATM   45  C   UNL     1      18.055  10.658  27.248  1.00  0.00     0.014 C 
HETATM   46  C   UNL     1      17.838  12.093  26.757  1.00  0.00     0.012 C 
BRANCH  45  47
HETATM   47  C   UNL     1      16.939  10.275  28.239  1.00  0.00     0.002 C 
HETATM   48  C   UNL     1      17.088  10.932  29.603  1.00  0.00     0.005 C 
ENDBRANCH  45  47
ENDBRANCH  15  45
TORSDOF 9
ENDMDL
MODEL 16
REMARK VINA RESULT:    -4.813     16.869     20.156
REMARK INTER + INTRA:          -7.348
REMARK INTER:                  -7.507
REMARK INTRA:                   0.159
REMARK UNBOUND:                -0.003
REMARK  9 active torsions:
REMARK  status: ('A' for Active; 'I' for Inactive)
REMARK    1  A    between atoms: C_13  and  C_16 
REMARK    2  A    between atoms: C_14  and  C_17 
REMARK    3  A    between atoms: C_15  and  C_18 
REMARK    4  A    between atoms: C_16  and  C_22 
REMARK    5  A    between atoms: C_17  and  C_23 
REMARK    6  A    between atoms: C_18  and  C_24 
REMARK    7  A    between atoms: C_19  and  C_25 
REMARK    8  A    between atoms: C_20  and  C_26 
REMARK    9  A    between atoms: C_21  and  C_27 
ROOT
HETATM    1  O   UNL     1      20.170  10.212  21.510  1.00  0.00    -0.304 OA
HETATM    2  O   UNL     1      18.925   9.683  16.617  1.00  0.00    -0.304 OA
HETATM    3  O   UNL     1      18.304   6.774  20.440  1.00  0.00    -0.304 OA
HETATM    4  O   UNL     1      19.751  11.682  19.416  1.00  0.00    -0.270 OA
HETATM    5  O   UNL     1      19.103   5.124  23.360  1.00  0.00    -0.270 OA
HETATM    6  O   UNL     1      17.472   9.365  18.792  1.00  0.00    -0.270 OA
HETATM    7  O   UNL     1      21.335   8.938  23.039  1.00  0.00    -0.263 OA
HETATM    8  O   UNL     1      20.680   8.380  17.358  1.00  0.00    -0.263 OA
HETATM    9  O   UNL     1      16.611   5.716  21.583  1.00  0.00    -0.263 OA
HETATM   10  N   UNL     1      21.641  10.806  18.394  1.00  0.00    -0.340 N 
HETATM   11  N   UNL     1      19.033   7.439  23.483  1.00  0.00    -0.340 N 
HETATM   12  N   UNL     1      16.768   7.204  18.321  1.00  0.00    -0.340 N 
HETATM   13  C   UNL     1      20.962  10.784  17.083  1.00  0.00     0.190 C 
HETATM   14  C   UNL     1      18.905   8.763  22.840  1.00  0.00     0.190 C 
HETATM   15  C   UNL     1      16.091   7.073  19.632  1.00  0.00     0.190 C 
HETATM   16  C   UNL     1      21.370  10.707  20.877  1.00  0.00     0.227 C 
HETATM   17  C   UNL     1      18.036   8.548  16.613  1.00  0.00     0.227 C 
HETATM   18  C   UNL     1      19.362   6.275  21.263  1.00  0.00     0.227 C 
HETATM   19  C   UNL     1      20.857  11.136  19.509  1.00  0.00     0.250 C 
HETATM   20  C   UNL     1      19.137   6.221  22.790  1.00  0.00     0.250 C 
HETATM   21  C   UNL     1      17.407   8.413  18.005  1.00  0.00     0.250 C 
HETATM   22  C   UNL     1      20.292   9.291  22.508  1.00  0.00     0.283 C 
HETATM   23  C   UNL     1      20.205   9.463  17.042  1.00  0.00     0.283 C 
HETATM   24  C   UNL     1      17.012   6.398  20.649  1.00  0.00     0.283 C 
HETATM   25  C   UNL     1      23.030  10.352  18.482  1.00  0.00     0.153 C 
HETATM   26  C   UNL     1      19.052   7.395  24.945  1.00  0.00     0.153 C 
HETATM   27  C   UNL     1      16.780   6.010  17.471  1.00  0.00     0.153 C 
ENDROOT
BRANCH  16  28
HETATM   28  C   UNL     1      21.916  11.896  21.645  1.00  0.00     0.016 C 
HETATM   29  C   UNL     1      22.005  13.125  20.742  1.00  0.00     0.012 C 
HETATM   30  C   UNL     1      23.284  11.571  22.242  1.00  0.00     0.012 C 
ENDBRANCH  16  28
BRANCH  14  31
HETATM   31  C   UNL     1      18.130   9.802  23.649  1.00  0.00     0.014 C 
HETATM   32  C   UNL     1      19.098  10.844  24.216  1.00  0.00     0.012 C 
BRANCH  31  33
HETATM   33  C   UNL     1      17.042  10.500  22.814  1.00  0.00     0.002 C 
HETATM   34  C   UNL     1      16.000   9.544  22.251  1.00  0.00     0.005 C 
ENDBRANCH  31  33
ENDBRANCH  14  31
BRANCH  13  35
HETATM   35  C   UNL     1      21.853  10.906  15.854  1.00  0.00     0.014 C 
HETATM   36  C   UNL     1      21.137  10.318  14.634  1.00  0.00     0.012 C 
BRANCH  35  37
HETATM   37  C   UNL     1      22.262  12.361  15.565  1.00  0.00     0.002 C 
HETATM   38  C   UNL     1      22.755  12.583  14.142  1.00  0.00     0.005 C 
ENDBRANCH  35  37
ENDBRANCH  13  35
BRANCH  18  39
HETATM   39  C   UNL     1      19.771   4.908  20.711  1.00  0.00     0.016 C 
HETATM   40  C   UNL     1      19.686   4.899  19.186  1.00  0.00     0.012 C 
HETATM   41  C   UNL     1      21.181   4.544  21.172  1.00  0.00     0.012 C 
ENDBRANCH  18  39
BRANCH  17  42
HETATM   42  C   UNL     1      16.957   8.829  15.576  1.00  0.00     0.016 C 
HETATM   43  C   UNL     1      16.846   7.672  14.584  1.00  0.00     0.012 C 
HETATM   44  C   UNL     1      17.244  10.138  14.840  1.00  0.00     0.012 C 
ENDBRANCH  17  42
BRANCH  15  45
HETATM   45  C   UNL     1      14.738   6.370  19.549  1.00  0.00     0.014 C 
HETATM   46  C   UNL     1      13.991   6.511  20.880  1.00  0.00     0.012 C 
BRANCH  45  47
HETATM   47  C   UNL     1      13.860   6.909  18.403  1.00  0.00     0.002 C 
HETATM   48  C   UNL     1      13.032   5.834  17.716  1.00  0.00     0.005 C 
ENDBRANCH  45  47
ENDBRANCH  15  45
TORSDOF 9
ENDMDL
MODEL 17
REMARK VINA RESULT:    -4.534     18.390     22.533
REMARK INTER + INTRA:          -6.922
REMARK INTER:                  -7.135
REMARK INTRA:                   0.213
REMARK UNBOUND:                -0.003
REMARK  9 active torsions:
REMARK  status: ('A' for Active; 'I' for Inactive)
REMARK    1  A    between atoms: C_13  and  C_16 
REMARK    2  A    between atoms: C_14  and  C_17 
REMARK    3  A    between atoms: C_15  and  C_18 
REMARK    4  A    between atoms: C_16  and  C_22 
REMARK    5  A    between atoms: C_17  and  C_23 
REMARK    6  A    between atoms: C_18  and  C_24 
REMARK    7  A    between atoms: C_19  and  C_25 
REMARK    8  A    between atoms: C_20  and  C_26 
REMARK    9  A    between atoms: C_21  and  C_27 
ROOT
HETATM    1  O   UNL     1      18.927   8.159  21.846  1.00  0.00    -0.304 OA
HETATM    2  O   UNL     1      23.507  10.348  21.787  1.00  0.00    -0.304 OA
HETATM    3  O   UNL     1      20.435   9.385  25.405  1.00  0.00    -0.304 OA
HETATM    4  O   UNL     1      21.038   8.266  20.344  1.00  0.00    -0.270 OA
HETATM    5  O   UNL     1      17.417   9.161  27.058  1.00  0.00    -0.270 OA
HETATM    6  O   UNL     1      22.574   8.384  23.273  1.00  0.00    -0.270 OA
HETATM    7  O   UNL     1      16.857   8.738  22.682  1.00  0.00    -0.263 OA
HETATM    8  O   UNL     1      21.720  11.758  22.174  1.00  0.00    -0.263 OA
HETATM    9  O   UNL     1      20.373   8.231  27.394  1.00  0.00    -0.263 OA
HETATM   10  N   UNL     1      20.639  10.509  19.903  1.00  0.00    -0.340 N 
HETATM   11  N   UNL     1      17.656   7.816  25.184  1.00  0.00    -0.340 N 
HETATM   12  N   UNL     1      23.085   9.343  25.324  1.00  0.00    -0.340 N 
HETATM   13  C   UNL     1      22.084  10.810  19.958  1.00  0.00     0.190 C 
HETATM   14  C   UNL     1      18.415   7.384  23.991  1.00  0.00     0.190 C 
HETATM   15  C   UNL     1      22.414   8.253  26.070  1.00  0.00     0.190 C 
HETATM   16  C   UNL     1      18.796   9.015  20.690  1.00  0.00     0.227 C 
HETATM   17  C   UNL     1      23.885  10.385  23.177  1.00  0.00     0.227 C 
HETATM   18  C   UNL     1      19.092   9.874  25.485  1.00  0.00     0.227 C 
HETATM   19  C   UNL     1      20.247   9.214  20.272  1.00  0.00     0.250 C 
HETATM   20  C   UNL     1      17.994   8.913  25.992  1.00  0.00     0.250 C 
HETATM   21  C   UNL     1      23.120   9.284  23.922  1.00  0.00     0.250 C 
HETATM   22  C   UNL     1      17.938   8.176  22.784  1.00  0.00     0.283 C 
HETATM   23  C   UNL     1      22.389  11.051  21.431  1.00  0.00     0.283 C 
HETATM   24  C   UNL     1      20.974   8.641  26.410  1.00  0.00     0.283 C 
HETATM   25  C   UNL     1      19.699  11.592  19.612  1.00  0.00     0.153 C 
HETATM   26  C   UNL     1      16.467   7.043  25.546  1.00  0.00     0.153 C 
HETATM   27  C   UNL     1      23.607  10.456  26.122  1.00  0.00     0.153 C 
ENDROOT
BRANCH  16  28
HETATM   28  C   UNL     1      18.014   8.307  19.598  1.00  0.00     0.016 C 
HETATM   29  C   UNL     1      18.394   6.829  19.536  1.00  0.00     0.012 C 
HETATM   30  C   UNL     1      18.249   8.978  18.246  1.00  0.00     0.012 C 
ENDBRANCH  16  28
BRANCH  14  31
HETATM   31  C   UNL     1      18.353   5.887  23.693  1.00  0.00     0.014 C 
HETATM   32  C   UNL     1      17.322   5.621  22.594  1.00  0.00     0.012 C 
BRANCH  31  33
HETATM   33  C   UNL     1      19.720   5.317  23.276  1.00  0.00     0.002 C 
HETATM   34  C   UNL     1      20.810   5.524  24.317  1.00  0.00     0.005 C 
ENDBRANCH  31  33
ENDBRANCH  14  31
BRANCH  13  35
HETATM   35  C   UNL     1      22.563  11.996  19.132  1.00  0.00     0.014 C 
HETATM   36  C   UNL     1      23.686  12.725  19.875  1.00  0.00     0.012 C 
BRANCH  35  37
HETATM   37  C   UNL     1      23.050  11.580  17.733  1.00  0.00     0.002 C 
HETATM   38  C   UNL     1      21.963  11.643  16.667  1.00  0.00     0.005 C 
ENDBRANCH  35  37
ENDBRANCH  13  35
BRANCH  18  39
HETATM   39  C   UNL     1      19.121  11.169  26.299  1.00  0.00     0.016 C 
HETATM   40  C   UNL     1      20.340  12.009  25.927  1.00  0.00     0.012 C 
HETATM   41  C   UNL     1      17.834  11.965  26.084  1.00  0.00     0.012 C 
ENDBRANCH  18  39
BRANCH  17  42
HETATM   42  C   UNL     1      25.382  10.117  23.240  1.00  0.00     0.016 C 
HETATM   43  C   UNL     1      26.150  11.408  23.522  1.00  0.00     0.012 C 
HETATM   44  C   UNL     1      25.871   9.477  21.942  1.00  0.00     0.012 C 
ENDBRANCH  17  42
BRANCH  15  45
HETATM   45  C   UNL     1      23.181   7.806  27.313  1.00  0.00     0.014 C 
HETATM   46  C   UNL     1      22.736   6.399  27.726  1.00  0.00     0.012 C 
BRANCH  45  47
HETATM   47  C   UNL     1      24.708   7.826  27.104  1.00  0.00     0.002 C 
HETATM   48  C   UNL     1      25.446   6.788  27.935  1.00  0.00     0.005 C 
ENDBRANCH  45  47
ENDBRANCH  15  45
TORSDOF 9
ENDMDL
MODEL 18
REMARK VINA RESULT:    -4.526     17.363     22.559
REMARK INTER + INTRA:          -6.910
REMARK INTER:                  -7.635
REMARK INTRA:                   0.725
REMARK UNBOUND:                -0.003
REMARK  9 active torsions:
REMARK  status: ('A' for Active; 'I' for Inactive)
REMARK    1  A    between atoms: C_13  and  C_16 
REMARK    2  A    between atoms: C_14  and  C_17 
REMARK    3  A    between atoms: C_15  and  C_18 
REMARK    4  A    between atoms: C_16  and  C_22 
REMARK    5  A    between atoms: C_17  and  C_23 
REMARK    6  A    between atoms: C_18  and  C_24 
REMARK    7  A    between atoms: C_19  and  C_25 
REMARK    8  A    between atoms: C_20  and  C_26 
REMARK    9  A    between atoms: C_21  and  C_27 
ROOT
HETATM    1  O   UNL     1      12.065   8.968  34.215  1.00  0.00    -0.304 OA
HETATM    2  O   UNL     1       9.978  11.325  30.233  1.00  0.00    -0.304 OA
HETATM    3  O   UNL     1      13.546   8.065  30.549  1.00  0.00    -0.304 OA
HETATM    4  O   UNL     1       9.867  10.189  33.581  1.00  0.00    -0.270 OA
HETATM    5  O   UNL     1      16.388   6.550  31.782  1.00  0.00    -0.270 OA
HETATM    6  O   UNL     1      10.444   8.766  30.649  1.00  0.00    -0.270 OA
HETATM    7  O   UNL     1      14.217   8.691  34.998  1.00  0.00    -0.263 OA
HETATM    8  O   UNL     1      12.105  12.012  30.811  1.00  0.00    -0.263 OA
HETATM    9  O   UNL     1      14.085   5.971  29.763  1.00  0.00    -0.263 OA
HETATM   10  N   UNL     1      11.012  12.198  33.390  1.00  0.00    -0.340 N 
HETATM   11  N   UNL     1      14.555   6.591  33.203  1.00  0.00    -0.340 N 
HETATM   12  N   UNL     1      11.667   8.405  28.710  1.00  0.00    -0.340 N 
HETATM   13  C   UNL     1      10.201  12.587  32.218  1.00  0.00     0.190 C 
HETATM   14  C   UNL     1      13.184   7.033  33.530  1.00  0.00     0.190 C 
HETATM   15  C   UNL     1      11.989   7.012  29.099  1.00  0.00     0.190 C 
HETATM   16  C   UNL     1      11.958  10.313  34.731  1.00  0.00     0.227 C 
HETATM   17  C   UNL     1      10.483  10.591  29.100  1.00  0.00     0.227 C 
HETATM   18  C   UNL     1      14.750   8.246  31.302  1.00  0.00     0.227 C 
HETATM   19  C   UNL     1      10.839  10.895  33.877  1.00  0.00     0.250 C 
HETATM   20  C   UNL     1      15.299   7.044  32.102  1.00  0.00     0.250 C 
HETATM   21  C   UNL     1      10.863   9.179  29.561  1.00  0.00     0.250 C 
HETATM   22  C   UNL     1      13.254   8.313  34.347  1.00  0.00     0.283 C 
HETATM   23  C   UNL     1      10.900  11.960  31.019  1.00  0.00     0.283 C 
HETATM   24  C   UNL     1      13.348   6.948  29.796  1.00  0.00     0.283 C 
HETATM   25  C   UNL     1      12.035  13.123  33.883  1.00  0.00     0.153 C 
HETATM   26  C   UNL     1      15.182   5.613  34.093  1.00  0.00     0.153 C 
HETATM   27  C   UNL     1      12.287   8.898  27.477  1.00  0.00     0.153 C 
ENDROOT
BRANCH  16  28
HETATM   28  C   UNL     1      11.559  10.284  36.195  1.00  0.00     0.016 C 
HETATM   29  C   UNL     1      12.767  10.557  37.088  1.00  0.00     0.012 C 
HETATM   30  C   UNL     1      10.920   8.943  36.553  1.00  0.00     0.012 C 
ENDBRANCH  16  28
BRANCH  14  31
HETATM   31  C   UNL     1      12.327   5.996  34.255  1.00  0.00     0.014 C 
HETATM   32  C   UNL     1      12.478   6.167  35.768  1.00  0.00     0.012 C 
BRANCH  31  33
HETATM   33  C   UNL     1      10.841   6.090  33.865  1.00  0.00     0.002 C 
HETATM   34  C   UNL     1      10.037   4.850  34.230  1.00  0.00     0.005 C 
ENDBRANCH  31  33
ENDBRANCH  14  31
BRANCH  13  35
HETATM   35  C   UNL     1      10.015  14.079  31.984  1.00  0.00     0.014 C 
HETATM   36  C   UNL     1       9.633  14.331  30.523  1.00  0.00     0.012 C 
BRANCH  35  37
HETATM   37  C   UNL     1       8.953  14.693  32.913  1.00  0.00     0.002 C 
HETATM   38  C   UNL     1       7.762  13.778  33.163  1.00  0.00     0.005 C 
ENDBRANCH  35  37
ENDBRANCH  13  35
BRANCH  18  39
HETATM   39  C   UNL     1      15.806   8.816  30.354  1.00  0.00     0.016 C 
HETATM   40  C   UNL     1      15.161   9.751  29.333  1.00  0.00     0.012 C 
HETATM   41  C   UNL     1      16.893   9.546  31.139  1.00  0.00     0.012 C 
ENDBRANCH  18  39
BRANCH  17  42
HETATM   42  C   UNL     1       9.360  10.524  28.075  1.00  0.00     0.016 C 
HETATM   43  C   UNL     1       9.490  11.654  27.055  1.00  0.00     0.012 C 
HETATM   44  C   UNL     1       7.996  10.580  28.764  1.00  0.00     0.012 C 
ENDBRANCH  17  42
BRANCH  15  45
HETATM   45  C   UNL     1      11.908   6.024  27.937  1.00  0.00     0.014 C 
HETATM   46  C   UNL     1      10.472   5.953  27.407  1.00  0.00     0.012 C 
BRANCH  45  47
HETATM   47  C   UNL     1      12.867   6.384  26.786  1.00  0.00     0.002 C 
HETATM   48  C   UNL     1      13.723   5.215  26.322  1.00  0.00     0.005 C 
ENDBRANCH  45  47
ENDBRANCH  15  45
TORSDOF 9
ENDMDL
MODEL 19
REMARK VINA RESULT:    -4.489     15.981     21.749
REMARK INTER + INTRA:          -6.853
REMARK INTER:                  -7.645
REMARK INTRA:                   0.791
REMARK UNBOUND:                -0.003
REMARK  9 active torsions:
REMARK  status: ('A' for Active; 'I' for Inactive)
REMARK    1  A    between atoms: C_13  and  C_16 
REMARK    2  A    between atoms: C_14  and  C_17 
REMARK    3  A    between atoms: C_15  and  C_18 
REMARK    4  A    between atoms: C_16  and  C_22 
REMARK    5  A    between atoms: C_17  and  C_23 
REMARK    6  A    between atoms: C_18  and  C_24 
REMARK    7  A    between atoms: C_19  and  C_25 
REMARK    8  A    between atoms: C_20  and  C_26 
REMARK    9  A    between atoms: C_21  and  C_27 
ROOT
HETATM    1  O   UNL     1      10.585   7.272  30.132  1.00  0.00    -0.304 OA
HETATM    2  O   UNL     1       9.352  11.982  28.694  1.00  0.00    -0.304 OA
HETATM    3  O   UNL     1      10.617  10.146  32.994  1.00  0.00    -0.304 OA
HETATM    4  O   UNL     1      10.494   8.711  27.978  1.00  0.00    -0.270 OA
HETATM    5  O   UNL     1      10.688   7.905  35.613  1.00  0.00    -0.270 OA
HETATM    6  O   UNL     1      11.421  11.104  30.068  1.00  0.00    -0.270 OA
HETATM    7  O   UNL     1       9.862   5.833  31.784  1.00  0.00    -0.263 OA
HETATM    8  O   UNL     1       7.780  10.872  29.970  1.00  0.00    -0.263 OA
HETATM    9  O   UNL     1      12.210  10.440  34.628  1.00  0.00    -0.263 OA
HETATM   10  N   UNL     1       8.180   8.806  28.111  1.00  0.00    -0.340 N 
HETATM   11  N   UNL     1      11.528   7.138  33.592  1.00  0.00    -0.340 N 
HETATM   12  N   UNL     1      11.133  12.504  31.896  1.00  0.00    -0.340 N 
HETATM   13  C   UNL     1       8.178  10.212  27.658  1.00  0.00     0.190 C 
HETATM   14  C   UNL     1      11.774   7.313  32.146  1.00  0.00     0.190 C 
HETATM   15  C   UNL     1      12.231  11.852  32.647  1.00  0.00     0.190 C 
HETATM   16  C   UNL     1       9.453   6.999  29.279  1.00  0.00     0.227 C 
HETATM   17  C   UNL     1       9.744  12.795  29.818  1.00  0.00     0.227 C 
HETATM   18  C   UNL     1       9.923   9.089  33.664  1.00  0.00     0.227 C 
HETATM   19  C   UNL     1       9.429   8.226  28.377  1.00  0.00     0.250 C 
HETATM   20  C   UNL     1      10.757   8.006  34.382  1.00  0.00     0.250 C 
HETATM   21  C   UNL     1      10.835  12.054  30.601  1.00  0.00     0.250 C 
HETATM   22  C   UNL     1      10.624   6.693  31.367  1.00  0.00     0.283 C 
HETATM   23  C   UNL     1       8.385  11.041  28.919  1.00  0.00     0.283 C 
HETATM   24  C   UNL     1      11.681  10.767  33.573  1.00  0.00     0.283 C 
HETATM   25  C   UNL     1       6.901   8.149  28.391  1.00  0.00     0.153 C 
HETATM   26  C   UNL     1      12.131   5.976  34.246  1.00  0.00     0.153 C 
HETATM   27  C   UNL     1      10.379  13.539  32.610  1.00  0.00     0.153 C 
ENDROOT
BRANCH  16  28
HETATM   28  C   UNL     1       9.698   5.740  28.468  1.00  0.00     0.016 C 
HETATM   29  C   UNL     1       9.803   6.070  26.980  1.00  0.00     0.012 C 
HETATM   30  C   UNL     1       8.590   4.717  28.712  1.00  0.00     0.012 C 
ENDBRANCH  16  28
BRANCH  14  31
HETATM   31  C   UNL     1      13.105   6.757  31.644  1.00  0.00     0.014 C 
HETATM   32  C   UNL     1      13.005   6.443  30.149  1.00  0.00     0.012 C 
BRANCH  31  33
HETATM   33  C   UNL     1      14.276   7.723  31.897  1.00  0.00     0.002 C 
HETATM   34  C   UNL     1      15.609   7.021  32.112  1.00  0.00     0.005 C 
ENDBRANCH  31  33
ENDBRANCH  14  31
BRANCH  13  35
HETATM   35  C   UNL     1       6.932  10.689  26.926  1.00  0.00     0.014 C 
HETATM   36  C   UNL     1       6.439  12.002  27.542  1.00  0.00     0.012 C 
BRANCH  35  37
HETATM   37  C   UNL     1       7.173  10.881  25.418  1.00  0.00     0.002 C 
HETATM   38  C   UNL     1       8.647  10.896  25.035  1.00  0.00     0.005 C 
ENDBRANCH  35  37
ENDBRANCH  13  35
BRANCH  18  39
HETATM   39  C   UNL     1       8.908   9.732  34.612  1.00  0.00     0.016 C 
HETATM   40  C   UNL     1       8.318  10.995  33.988  1.00  0.00     0.012 C 
HETATM   41  C   UNL     1       7.802   8.741  34.966  1.00  0.00     0.012 C 
ENDBRANCH  18  39
BRANCH  17  42
HETATM   42  C   UNL     1      10.295  14.098  29.256  1.00  0.00     0.016 C 
HETATM   43  C   UNL     1       9.171  15.109  29.036  1.00  0.00     0.012 C 
HETATM   44  C   UNL     1      11.050  13.846  27.951  1.00  0.00     0.012 C 
ENDBRANCH  17  42
BRANCH  15  45
HETATM   45  C   UNL     1      13.117  12.839  33.405  1.00  0.00     0.014 C 
HETATM   46  C   UNL     1      12.755  12.832  34.894  1.00  0.00     0.012 C 
BRANCH  45  47
HETATM   47  C   UNL     1      14.619  12.536  33.237  1.00  0.00     0.002 C 
HETATM   48  C   UNL     1      14.929  11.659  32.033  1.00  0.00     0.005 C 
ENDBRANCH  45  47
ENDBRANCH  15  45
TORSDOF 9
ENDMDL
MODEL 20
REMARK VINA RESULT:    -4.434     17.094     22.582
REMARK INTER + INTRA:          -6.769
REMARK INTER:                  -7.411
REMARK INTRA:                   0.642
REMARK UNBOUND:                -0.003
REMARK  9 active torsions:
REMARK  status: ('A' for Active; 'I' for Inactive)
REMARK    1  A    between atoms: C_13  and  C_16 
REMARK    2  A    between atoms: C_14  and  C_17 
REMARK    3  A    between atoms: C_15  and  C_18 
REMARK    4  A    between atoms: C_16  and  C_22 
REMARK    5  A    between atoms: C_17  and  C_23 
REMARK    6  A    between atoms: C_18  and  C_24 
REMARK    7  A    between atoms: C_19  and  C_25 
REMARK    8  A    between atoms: C_20  and  C_26 
REMARK    9  A    between atoms: C_21  and  C_27 
ROOT
HETATM    1  O   UNL     1       9.286   9.551  34.517  1.00  0.00    -0.304 OA
HETATM    2  O   UNL     1       9.891  12.556  30.471  1.00  0.00    -0.304 OA
HETATM    3  O   UNL     1      13.090  10.441  33.428  1.00  0.00    -0.304 OA
HETATM    4  O   UNL     1       7.973  10.306  32.413  1.00  0.00    -0.270 OA
HETATM    5  O   UNL     1      14.469   9.373  36.403  1.00  0.00    -0.270 OA
HETATM    6  O   UNL     1      10.988  10.232  31.049  1.00  0.00    -0.270 OA
HETATM    7  O   UNL     1      10.052   9.578  36.693  1.00  0.00    -0.263 OA
HETATM    8  O   UNL     1      10.361  13.514  32.518  1.00  0.00    -0.263 OA
HETATM    9  O   UNL     1      14.869   8.984  33.336  1.00  0.00    -0.263 OA
HETATM   10  N   UNL     1       7.855  12.472  33.236  1.00  0.00    -0.340 N 
HETATM   11  N   UNL     1      12.433   8.426  35.825  1.00  0.00    -0.340 N 
HETATM   12  N   UNL     1      13.192  10.920  30.822  1.00  0.00    -0.340 N 
HETATM   13  C   UNL     1       8.058  13.032  31.884  1.00  0.00     0.190 C 
HETATM   14  C   UNL     1      11.246   8.350  34.948  1.00  0.00     0.190 C 
HETATM   15  C   UNL     1      13.713   9.615  31.291  1.00  0.00     0.190 C 
HETATM   16  C   UNL     1       8.269  10.544  34.772  1.00  0.00     0.227 C 
HETATM   17  C   UNL     1      11.294  12.435  30.163  1.00  0.00     0.227 C 
HETATM   18  C   UNL     1      13.148  10.643  34.844  1.00  0.00     0.227 C 
HETATM   19  C   UNL     1       7.992  11.083  33.375  1.00  0.00     0.250 C 
HETATM   20  C   UNL     1      13.422   9.420  35.747  1.00  0.00     0.250 C 
HETATM   21  C   UNL     1      11.804  11.101  30.721  1.00  0.00     0.250 C 
HETATM   22  C   UNL     1      10.143   9.224  35.526  1.00  0.00     0.283 C 
HETATM   23  C   UNL     1       9.568  13.080  31.692  1.00  0.00     0.283 C 
HETATM   24  C   UNL     1      14.005   9.658  32.791  1.00  0.00     0.283 C 
HETATM   25  C   UNL     1       7.667  13.388  34.362  1.00  0.00     0.153 C 
HETATM   26  C   UNL     1      12.586   7.391  36.848  1.00  0.00     0.153 C 
HETATM   27  C   UNL     1      14.188  11.966  30.567  1.00  0.00     0.153 C 
ENDROOT
BRANCH  16  28
HETATM   28  C   UNL     1       7.029   9.889  35.352  1.00  0.00     0.016 C 
HETATM   29  C   UNL     1       5.840  10.056  34.408  1.00  0.00     0.012 C 
HETATM   30  C   UNL     1       6.706  10.470  36.727  1.00  0.00     0.012 C 
ENDBRANCH  16  28
BRANCH  14  31
HETATM   31  C   UNL     1      10.717   6.939  34.697  1.00  0.00     0.014 C 
HETATM   32  C   UNL     1       9.338   6.780  35.342  1.00  0.00     0.012 C 
BRANCH  31  33
HETATM   33  C   UNL     1      10.634   6.604  33.197  1.00  0.00     0.002 C 
HETATM   34  C   UNL     1      11.993   6.504  32.519  1.00  0.00     0.005 C 
ENDBRANCH  31  33
ENDBRANCH  14  31
BRANCH  13  35
HETATM   35  C   UNL     1       7.460  14.407  31.620  1.00  0.00     0.014 C 
HETATM   36  C   UNL     1       8.568  15.464  31.625  1.00  0.00     0.012 C 
BRANCH  35  37
HETATM   37  C   UNL     1       6.689  14.467  30.290  1.00  0.00     0.002 C 
HETATM   38  C   UNL     1       7.534  14.952  29.119  1.00  0.00     0.005 C 
ENDBRANCH  35  37
ENDBRANCH  13  35
BRANCH  18  39
HETATM   39  C   UNL     1      14.151  11.768  35.108  1.00  0.00     0.016 C 
HETATM   40  C   UNL     1      14.122  12.790  33.974  1.00  0.00     0.012 C 
HETATM   41  C   UNL     1      13.859  12.443  36.447  1.00  0.00     0.012 C 
ENDBRANCH  18  39
BRANCH  17  42
HETATM   42  C   UNL     1      11.422  12.452  28.647  1.00  0.00     0.016 C 
HETATM   43  C   UNL     1      11.256  13.872  28.106  1.00  0.00     0.012 C 
HETATM   44  C   UNL     1      10.398  11.514  28.008  1.00  0.00     0.012 C 
ENDBRANCH  17  42
BRANCH  15  45
HETATM   45  C   UNL     1      14.924   9.125  30.499  1.00  0.00     0.014 C 
HETATM   46  C   UNL     1      14.557   8.977  29.018  1.00  0.00     0.012 C 
BRANCH  45  47
HETATM   47  C   UNL     1      16.141  10.059  30.640  1.00  0.00     0.002 C 
HETATM   48  C   UNL     1      17.150   9.914  29.511  1.00  0.00     0.005 C 
ENDBRANCH  45  47
ENDBRANCH  15  45
TORSDOF 9
ENDMDL
