MODEL 1
REMARK VINA RESULT:    -6.191      0.000      0.000
REMARK INTER + INTRA:          -9.046
REMARK INTER:                  -9.449
REMARK INTRA:                   0.402
REMARK UNBOUND:                 0.402
REMARK  9 active torsions:
REMARK  status: ('A' for Active; 'I' for Inactive)
REMARK    1  A    between atoms: C_13  and  C_16 
REMARK    2  A    between atoms: C_14  and  C_17 
REMARK    3  A    between atoms: C_15  and  C_18 
REMARK    4  A    between atoms: C_16  and  C_22 
REMARK    5  A    between atoms: C_17  and  C_23 
REMARK    6  A    between atoms: C_18  and  C_24 
REMARK    7  A    between atoms: C_19  and  C_25 
REMARK    8  A    between atoms: C_20  and  C_26 
REMARK    9  A    between atoms: C_21  and  C_27 
ROOT
HETATM    1  O   UNL     1      53.261  21.773   6.030  1.00  0.00    -0.304 OA
HETATM    2  O   UNL     1      50.922  22.918  10.387  1.00  0.00    -0.304 OA
HETATM    3  O   UNL     1      49.747  23.781   5.768  1.00  0.00    -0.304 OA
HETATM    4  O   UNL     1      53.206  20.986   8.499  1.00  0.00    -0.270 OA
HETATM    5  O   UNL     1      50.204  24.679   2.471  1.00  0.00    -0.270 OA
HETATM    6  O   UNL     1      50.001  21.756   8.210  1.00  0.00    -0.270 OA
HETATM    7  O   UNL     1      53.923  22.973   4.174  1.00  0.00    -0.263 OA
HETATM    8  O   UNL     1      51.898  24.687   9.271  1.00  0.00    -0.263 OA
HETATM    9  O   UNL     1      48.036  23.368   4.286  1.00  0.00    -0.263 OA
HETATM   10  N   UNL     1      54.139  22.997   9.185  1.00  0.00    -0.340 N 
HETATM   11  N   UNL     1      51.332  22.779   3.176  1.00  0.00    -0.340 N 
HETATM   12  N   UNL     1      48.228  23.214   7.867  1.00  0.00    -0.340 N 
HETATM   13  C   UNL     1      53.283  23.021  10.388  1.00  0.00     0.190 C 
HETATM   14  C   UNL     1      51.754  21.849   4.244  1.00  0.00     0.190 C 
HETATM   15  C   UNL     1      47.870  22.573   6.580  1.00  0.00     0.190 C 
HETATM   16  C   UNL     1      54.383  22.216   6.823  1.00  0.00     0.227 C 
HETATM   17  C   UNL     1      49.606  23.332   9.969  1.00  0.00     0.227 C 
HETATM   18  C   UNL     1      50.558  24.513   4.845  1.00  0.00     0.227 C 
HETATM   19  C   UNL     1      53.881  21.991   8.243  1.00  0.00     0.250 C 
HETATM   20  C   UNL     1      50.664  23.995   3.394  1.00  0.00     0.250 C 
HETATM   21  C   UNL     1      49.304  22.698   8.606  1.00  0.00     0.250 C 
HETATM   22  C   UNL     1      53.112  22.281   4.773  1.00  0.00     0.283 C 
HETATM   23  C   UNL     1      51.977  23.665   9.940  1.00  0.00     0.283 C 
HETATM   24  C   UNL     1      48.518  23.315   5.411  1.00  0.00     0.283 C 
HETATM   25  C   UNL     1      55.096  24.084   8.973  1.00  0.00     0.153 C 
HETATM   26  C   UNL     1      51.634  22.405   1.794  1.00  0.00     0.153 C 
HETATM   27  C   UNL     1      47.460  24.406   8.238  1.00  0.00     0.153 C 
ENDROOT
BRANCH  16  28
HETATM   28  C   UNL     1      55.600  21.354   6.540  1.00  0.00     0.016 C 
HETATM   29  C   UNL     1      56.025  20.593   7.795  1.00  0.00     0.012 C 
HETATM   30  C   UNL     1      56.754  22.205   6.014  1.00  0.00     0.012 C 
ENDBRANCH  16  28
BRANCH  14  31
HETATM   31  C   UNL     1      51.794  20.376   3.840  1.00  0.00     0.014 C 
HETATM   32  C   UNL     1      53.241  19.877   3.844  1.00  0.00     0.012 C 
BRANCH  31  33
HETATM   33  C   UNL     1      50.934  19.493   4.761  1.00  0.00     0.002 C 
HETATM   34  C   UNL     1      49.445  19.795   4.679  1.00  0.00     0.005 C 
ENDBRANCH  31  33
ENDBRANCH  14  31
BRANCH  13  35
HETATM   35  C   UNL     1      53.833  23.761  11.600  1.00  0.00     0.014 C 
HETATM   36  C   UNL     1      52.677  24.327  12.431  1.00  0.00     0.012 C 
BRANCH  35  37
HETATM   37  C   UNL     1      54.720  22.867  12.483  1.00  0.00     0.002 C 
HETATM   38  C   UNL     1      56.186  23.278  12.487  1.00  0.00     0.005 C 
ENDBRANCH  35  37
ENDBRANCH  13  35
BRANCH  18  39
HETATM   39  C   UNL     1      50.101  25.972   4.886  1.00  0.00     0.016 C 
HETATM   40  C   UNL     1      49.595  26.337   6.279  1.00  0.00     0.012 C 
HETATM   41  C   UNL     1      51.237  26.902   4.466  1.00  0.00     0.012 C 
ENDBRANCH  18  39
BRANCH  17  42
HETATM   42  C   UNL     1      48.624  22.821  11.014  1.00  0.00     0.016 C 
HETATM   43  C   UNL     1      48.778  23.595  12.323  1.00  0.00     0.012 C 
HETATM   44  C   UNL     1      48.819  21.324  11.252  1.00  0.00     0.012 C 
ENDBRANCH  17  42
BRANCH  15  45
HETATM   45  C   UNL     1      46.364  22.417   6.378  1.00  0.00     0.014 C 
HETATM   46  C   UNL     1      45.850  23.492   5.413  1.00  0.00     0.012 C 
BRANCH  45  47
HETATM   47  C   UNL     1      45.979  21.022   5.851  1.00  0.00     0.002 C 
HETATM   48  C   UNL     1      45.785  20.975   4.343  1.00  0.00     0.005 C 
ENDBRANCH  45  47
ENDBRANCH  15  45
TORSDOF 9
ENDMDL
MODEL 2
REMARK VINA RESULT:    -5.583      1.390      1.846
REMARK INTER + INTRA:          -8.118
REMARK INTER:                  -8.536
REMARK INTRA:                   0.418
REMARK UNBOUND:                 0.402
REMARK  9 active torsions:
REMARK  status: ('A' for Active; 'I' for Inactive)
REMARK    1  A    between atoms: C_13  and  C_16 
REMARK    2  A    between atoms: C_14  and  C_17 
REMARK    3  A    between atoms: C_15  and  C_18 
REMARK    4  A    between atoms: C_16  and  C_22 
REMARK    5  A    between atoms: C_17  and  C_23 
REMARK    6  A    between atoms: C_18  and  C_24 
REMARK    7  A    between atoms: C_19  and  C_25 
REMARK    8  A    between atoms: C_20  and  C_26 
REMARK    9  A    between atoms: C_21  and  C_27 
ROOT
HETATM    1  O   UNL     1      54.423  23.199   5.833  1.00  0.00    -0.304 OA
HETATM    2  O   UNL     1      51.625  22.294   9.971  1.00  0.00    -0.304 OA
HETATM    3  O   UNL     1      50.416  23.737   5.508  1.00  0.00    -0.304 OA
HETATM    4  O   UNL     1      54.573  21.879   8.060  1.00  0.00    -0.270 OA
HETATM    5  O   UNL     1      50.629  25.507   2.557  1.00  0.00    -0.270 OA
HETATM    6  O   UNL     1      51.342  21.432   7.497  1.00  0.00    -0.270 OA
HETATM    7  O   UNL     1      54.637  24.969   4.369  1.00  0.00    -0.263 OA
HETATM    8  O   UNL     1      51.867  24.513   9.383  1.00  0.00    -0.263 OA
HETATM    9  O   UNL     1      49.080  23.081   3.753  1.00  0.00    -0.263 OA
HETATM   10  N   UNL     1      54.596  23.864   9.262  1.00  0.00    -0.340 N 
HETATM   11  N   UNL     1      52.386  24.061   3.008  1.00  0.00    -0.340 N 
HETATM   12  N   UNL     1      49.154  22.153   7.219  1.00  0.00    -0.340 N 
HETATM   13  C   UNL     1      53.747  23.274  10.316  1.00  0.00     0.190 C 
HETATM   14  C   UNL     1      53.093  23.130   3.911  1.00  0.00     0.190 C 
HETATM   15  C   UNL     1      49.139  21.755   5.792  1.00  0.00     0.190 C 
HETATM   16  C   UNL     1      55.239  23.826   6.846  1.00  0.00     0.227 C 
HETATM   17  C   UNL     1      50.274  22.270   9.470  1.00  0.00     0.227 C 
HETATM   18  C   UNL     1      50.911  24.919   4.873  1.00  0.00     0.227 C 
HETATM   19  C   UNL     1      54.803  23.094   8.108  1.00  0.00     0.250 C 
HETATM   20  C   UNL     1      51.280  24.845   3.375  1.00  0.00     0.250 C 
HETATM   21  C   UNL     1      50.311  21.918   7.978  1.00  0.00     0.250 C 
HETATM   22  C   UNL     1      54.142  23.900   4.698  1.00  0.00     0.283 C 
HETATM   23  C   UNL     1      52.315  23.466   9.834  1.00  0.00     0.283 C 
HETATM   24  C   UNL     1      49.492  22.944   4.898  1.00  0.00     0.283 C 
HETATM   25  C   UNL     1      55.051  25.248   9.408  1.00  0.00     0.153 C 
HETATM   26  C   UNL     1      52.874  24.173   1.633  1.00  0.00     0.153 C 
HETATM   27  C   UNL     1      47.959  22.841   7.717  1.00  0.00     0.153 C 
ENDROOT
BRANCH  16  28
HETATM   28  C   UNL     1      56.710  23.581   6.563  1.00  0.00     0.016 C 
HETATM   29  C   UNL     1      57.354  22.796   7.704  1.00  0.00     0.012 C 
HETATM   30  C   UNL     1      57.444  24.901   6.339  1.00  0.00     0.012 C 
ENDBRANCH  16  28
BRANCH  14  31
HETATM   31  C   UNL     1      53.734  21.925   3.225  1.00  0.00     0.014 C 
HETATM   32  C   UNL     1      55.259  22.047   3.282  1.00  0.00     0.012 C 
BRANCH  31  33
HETATM   33  C   UNL     1      53.294  20.591   3.853  1.00  0.00     0.002 C 
HETATM   34  C   UNL     1      53.239  19.439   2.860  1.00  0.00     0.005 C 
ENDBRANCH  31  33
ENDBRANCH  14  31
BRANCH  13  35
HETATM   35  C   UNL     1      53.901  23.851  11.716  1.00  0.00     0.014 C 
HETATM   36  C   UNL     1      52.523  24.019  12.362  1.00  0.00     0.012 C 
BRANCH  35  37
HETATM   37  C   UNL     1      54.795  22.980  12.616  1.00  0.00     0.002 C 
HETATM   38  C   UNL     1      56.282  23.265  12.455  1.00  0.00     0.005 C 
ENDBRANCH  35  37
ENDBRANCH  13  35
BRANCH  18  39
HETATM   39  C   UNL     1      49.910  26.043   5.147  1.00  0.00     0.016 C 
HETATM   40  C   UNL     1      49.304  25.893   6.540  1.00  0.00     0.012 C 
HETATM   41  C   UNL     1      50.580  27.407   4.996  1.00  0.00     0.012 C 
ENDBRANCH  18  39
BRANCH  17  42
HETATM   42  C   UNL     1      49.529  21.192  10.244  1.00  0.00     0.016 C 
HETATM   43  C   UNL     1      48.841  21.787  11.473  1.00  0.00     0.012 C 
HETATM   44  C   UNL     1      50.480  20.069  10.656  1.00  0.00     0.012 C 
ENDBRANCH  17  42
BRANCH  15  45
HETATM   45  C   UNL     1      47.830  21.098   5.359  1.00  0.00     0.014 C 
HETATM   46  C   UNL     1      46.925  22.131   4.679  1.00  0.00     0.012 C 
BRANCH  45  47
HETATM   47  C   UNL     1      48.053  19.903   4.412  1.00  0.00     0.002 C 
HETATM   48  C   UNL     1      49.394  19.214   4.611  1.00  0.00     0.005 C 
ENDBRANCH  45  47
ENDBRANCH  15  45
TORSDOF 9
ENDMDL
MODEL 3
REMARK VINA RESULT:    -5.482      2.173      7.943
REMARK INTER + INTRA:          -7.964
REMARK INTER:                  -8.247
REMARK INTRA:                   0.283
REMARK UNBOUND:                 0.402
REMARK  9 active torsions:
REMARK  status: ('A' for Active; 'I' for Inactive)
REMARK    1  A    between atoms: C_13  and  C_16 
REMARK    2  A    between atoms: C_14  and  C_17 
REMARK    3  A    between atoms: C_15  and  C_18 
REMARK    4  A    between atoms: C_16  and  C_22 
REMARK    5  A    between atoms: C_17  and  C_23 
REMARK    6  A    between atoms: C_18  and  C_24 
REMARK    7  A    between atoms: C_19  and  C_25 
REMARK    8  A    between atoms: C_20  and  C_26 
REMARK    9  A    between atoms: C_21  and  C_27 
ROOT
HETATM    1  O   UNL     1      49.249  23.008   8.636  1.00  0.00    -0.304 OA
HETATM    2  O   UNL     1      49.449  21.037   3.963  1.00  0.00    -0.304 OA
HETATM    3  O   UNL     1      52.919  22.100   7.170  1.00  0.00    -0.304 OA
HETATM    4  O   UNL     1      47.716  21.756   6.962  1.00  0.00    -0.270 OA
HETATM    5  O   UNL     1      54.612  23.924   9.556  1.00  0.00    -0.270 OA
HETATM    6  O   UNL     1      50.545  20.211   6.211  1.00  0.00    -0.270 OA
HETATM    7  O   UNL     1      50.267  24.784   9.698  1.00  0.00    -0.263 OA
HETATM    8  O   UNL     1      50.183  23.215   4.171  1.00  0.00    -0.263 OA
HETATM    9  O   UNL     1      54.635  21.069   8.305  1.00  0.00    -0.263 OA
HETATM   10  N   UNL     1      47.753  23.580   5.529  1.00  0.00    -0.340 N 
HETATM   11  N   UNL     1      52.497  23.181  10.151  1.00  0.00    -0.340 N 
HETATM   12  N   UNL     1      52.724  20.117   5.420  1.00  0.00    -0.340 N 
HETATM   13  C   UNL     1      47.809  22.694   4.349  1.00  0.00     0.190 C 
HETATM   14  C   UNL     1      51.213  22.533   9.813  1.00  0.00     0.190 C 
HETATM   15  C   UNL     1      53.262  19.786   6.760  1.00  0.00     0.190 C 
HETATM   16  C   UNL     1      48.295  23.850   7.954  1.00  0.00     0.227 C 
HETATM   17  C   UNL     1      50.802  20.552   3.855  1.00  0.00     0.227 C 
HETATM   18  C   UNL     1      53.150  23.401   7.719  1.00  0.00     0.227 C 
HETATM   19  C   UNL     1      47.868  22.971   6.786  1.00  0.00     0.250 C 
HETATM   20  C   UNL     1      53.495  23.510   9.220  1.00  0.00     0.250 C 
HETATM   21  C   UNL     1      51.339  20.283   5.266  1.00  0.00     0.250 C 
HETATM   22  C   UNL     1      50.210  23.600   9.401  1.00  0.00     0.283 C 
HETATM   23  C   UNL     1      49.287  22.381   4.150  1.00  0.00     0.283 C 
HETATM   24  C   UNL     1      53.731  21.051   7.480  1.00  0.00     0.283 C 
HETATM   25  C   UNL     1      47.724  25.030   5.326  1.00  0.00     0.153 C 
HETATM   26  C   UNL     1      52.743  23.503  11.557  1.00  0.00     0.153 C 
HETATM   27  C   UNL     1      53.709  20.321   4.354  1.00  0.00     0.153 C 
ENDROOT
BRANCH  16  28
HETATM   28  C   UNL     1      47.116  24.151   8.860  1.00  0.00     0.016 C 
HETATM   29  C   UNL     1      47.308  25.490   9.569  1.00  0.00     0.012 C 
HETATM   30  C   UNL     1      46.919  23.030   9.879  1.00  0.00     0.012 C 
ENDBRANCH  16  28
BRANCH  14  31
HETATM   31  C   UNL     1      50.621  21.656  10.915  1.00  0.00     0.014 C 
HETATM   32  C   UNL     1      49.575  22.449  11.702  1.00  0.00     0.012 C 
BRANCH  31  33
HETATM   33  C   UNL     1      49.991  20.366  10.361  1.00  0.00     0.002 C 
HETATM   34  C   UNL     1      50.986  19.456   9.655  1.00  0.00     0.005 C 
ENDBRANCH  31  33
ENDBRANCH  14  31
BRANCH  13  35
HETATM   35  C   UNL     1      47.221  23.243   3.056  1.00  0.00     0.014 C 
HETATM   36  C   UNL     1      47.896  22.576   1.855  1.00  0.00     0.012 C 
BRANCH  35  37
HETATM   37  C   UNL     1      45.697  23.045   2.973  1.00  0.00     0.002 C 
HETATM   38  C   UNL     1      44.914  24.351   2.954  1.00  0.00     0.005 C 
ENDBRANCH  35  37
ENDBRANCH  13  35
BRANCH  18  39
HETATM   39  C   UNL     1      54.206  24.087   6.850  1.00  0.00     0.016 C 
HETATM   40  C   UNL     1      54.015  23.717   5.382  1.00  0.00     0.012 C 
HETATM   41  C   UNL     1      54.149  25.602   7.034  1.00  0.00     0.012 C 
ENDBRANCH  18  39
BRANCH  17  42
HETATM   42  C   UNL     1      50.750  19.255   3.059  1.00  0.00     0.016 C 
HETATM   43  C   UNL     1      50.408  19.533   1.596  1.00  0.00     0.012 C 
HETATM   44  C   UNL     1      49.737  18.287   3.670  1.00  0.00     0.012 C 
ENDBRANCH  17  42
BRANCH  15  45
HETATM   45  C   UNL     1      54.357  18.721   6.729  1.00  0.00     0.014 C 
HETATM   46  C   UNL     1      54.478  18.053   8.103  1.00  0.00     0.012 C 
BRANCH  45  47
HETATM   47  C   UNL     1      54.109  17.648   5.651  1.00  0.00     0.002 C 
HETATM   48  C   UNL     1      54.468  16.241   6.103  1.00  0.00     0.005 C 
ENDBRANCH  45  47
ENDBRANCH  15  45
TORSDOF 9
ENDMDL
MODEL 4
REMARK VINA RESULT:    -5.469      2.133      7.596
REMARK INTER + INTRA:          -7.944
REMARK INTER:                  -8.347
REMARK INTRA:                   0.403
REMARK UNBOUND:                 0.402
REMARK  9 active torsions:
REMARK  status: ('A' for Active; 'I' for Inactive)
REMARK    1  A    between atoms: C_13  and  C_16 
REMARK    2  A    between atoms: C_14  and  C_17 
REMARK    3  A    between atoms: C_15  and  C_18 
REMARK    4  A    between atoms: C_16  and  C_22 
REMARK    5  A    between atoms: C_17  and  C_23 
REMARK    6  A    between atoms: C_18  and  C_24 
REMARK    7  A    between atoms: C_19  and  C_25 
REMARK    8  A    between atoms: C_20  and  C_26 
REMARK    9  A    between atoms: C_21  and  C_27 
ROOT
HETATM    1  O   UNL     1      49.017  22.992   9.081  1.00  0.00    -0.304 OA
HETATM    2  O   UNL     1      47.303  22.297   4.354  1.00  0.00    -0.304 OA
HETATM    3  O   UNL     1      51.790  22.448   6.171  1.00  0.00    -0.304 OA
HETATM    4  O   UNL     1      46.857  22.237   7.862  1.00  0.00    -0.270 OA
HETATM    5  O   UNL     1      54.417  23.570   8.102  1.00  0.00    -0.270 OA
HETATM    6  O   UNL     1      49.039  20.903   5.761  1.00  0.00    -0.270 OA
HETATM    7  O   UNL     1      50.537  24.419  10.067  1.00  0.00    -0.263 OA
HETATM    8  O   UNL     1      48.296  24.338   4.777  1.00  0.00    -0.263 OA
HETATM    9  O   UNL     1      53.676  21.137   6.299  1.00  0.00    -0.263 OA
HETATM   10  N   UNL     1      46.573  24.370   6.994  1.00  0.00    -0.340 N 
HETATM   11  N   UNL     1      52.592  22.725   9.256  1.00  0.00    -0.340 N 
HETATM   12  N   UNL     1      50.762  20.990   4.210  1.00  0.00    -0.340 N 
HETATM   13  C   UNL     1      46.104  23.819   5.707  1.00  0.00     0.190 C 
HETATM   14  C   UNL     1      51.209  22.203   9.284  1.00  0.00     0.190 C 
HETATM   15  C   UNL     1      51.707  20.316   5.130  1.00  0.00     0.190 C 
HETATM   16  C   UNL     1      47.980  23.995   9.027  1.00  0.00     0.227 C 
HETATM   17  C   UNL     1      48.465  21.840   3.634  1.00  0.00     0.227 C 
HETATM   18  C   UNL     1      52.343  23.559   6.883  1.00  0.00     0.227 C 
HETATM   19  C   UNL     1      47.068  23.453   7.934  1.00  0.00     0.250 C 
HETATM   20  C   UNL     1      53.217  23.271   8.124  1.00  0.00     0.250 C 
HETATM   21  C   UNL     1      49.442  21.208   4.632  1.00  0.00     0.250 C 
HETATM   22  C   UNL     1      50.248  23.353   9.544  1.00  0.00     0.283 C 
HETATM   23  C   UNL     1      47.367  23.550   4.899  1.00  0.00     0.283 C 
HETATM   24  C   UNL     1      52.539  21.345   5.896  1.00  0.00     0.283 C 
HETATM   25  C   UNL     1      46.632  25.822   7.166  1.00  0.00     0.153 C 
HETATM   26  C   UNL     1      53.362  22.668  10.499  1.00  0.00     0.153 C 
HETATM   27  C   UNL     1      51.313  21.451   2.931  1.00  0.00     0.153 C 
ENDROOT
BRANCH  16  28
HETATM   28  C   UNL     1      47.247  24.065  10.353  1.00  0.00     0.016 C 
HETATM   29  C   UNL     1      45.962  23.241  10.304  1.00  0.00     0.012 C 
HETATM   30  C   UNL     1      46.939  25.515  10.723  1.00  0.00     0.012 C 
ENDBRANCH  16  28
BRANCH  14  31
HETATM   31  C   UNL     1      50.963  21.078  10.287  1.00  0.00     0.014 C 
HETATM   32  C   UNL     1      49.682  21.359  11.075  1.00  0.00     0.012 C 
BRANCH  31  33
HETATM   33  C   UNL     1      50.867  19.700   9.609  1.00  0.00     0.002 C 
HETATM   34  C   UNL     1      52.122  19.311   8.841  1.00  0.00     0.005 C 
ENDBRANCH  31  33
ENDBRANCH  14  31
BRANCH  13  35
HETATM   35  C   UNL     1      45.153  24.692   4.900  1.00  0.00     0.014 C 
HETATM   36  C   UNL     1      45.057  24.165   3.465  1.00  0.00     0.012 C 
BRANCH  35  37
HETATM   37  C   UNL     1      43.748  24.763   5.523  1.00  0.00     0.002 C 
HETATM   38  C   UNL     1      43.143  26.160   5.502  1.00  0.00     0.005 C 
ENDBRANCH  35  37
ENDBRANCH  13  35
BRANCH  18  39
HETATM   39  C   UNL     1      53.083  24.434   5.869  1.00  0.00     0.016 C 
HETATM   40  C   UNL     1      52.298  24.522   4.563  1.00  0.00     0.012 C 
HETATM   41  C   UNL     1      53.330  25.828   6.442  1.00  0.00     0.012 C 
ENDBRANCH  18  39
BRANCH  17  42
HETATM   42  C   UNL     1      47.988  20.795   2.635  1.00  0.00     0.016 C 
HETATM   43  C   UNL     1      47.886  21.395   1.233  1.00  0.00     0.012 C 
HETATM   44  C   UNL     1      46.643  20.211   3.065  1.00  0.00     0.012 C 
ENDBRANCH  17  42
BRANCH  15  45
HETATM   45  C   UNL     1      52.594  19.282   4.439  1.00  0.00     0.014 C 
HETATM   46  C   UNL     1      53.531  18.627   5.460  1.00  0.00     0.012 C 
BRANCH  45  47
HETATM   47  C   UNL     1      51.780  18.194   3.712  1.00  0.00     0.002 C 
HETATM   48  C   UNL     1      52.479  16.844   3.665  1.00  0.00     0.005 C 
ENDBRANCH  45  47
ENDBRANCH  15  45
TORSDOF 9
ENDMDL
MODEL 5
REMARK VINA RESULT:    -5.458      1.669      6.683
REMARK INTER + INTRA:          -7.927
REMARK INTER:                  -8.266
REMARK INTRA:                   0.339
REMARK UNBOUND:                 0.402
REMARK  9 active torsions:
REMARK  status: ('A' for Active; 'I' for Inactive)
REMARK    1  A    between atoms: C_13  and  C_16 
REMARK    2  A    between atoms: C_14  and  C_17 
REMARK    3  A    between atoms: C_15  and  C_18 
REMARK    4  A    between atoms: C_16  and  C_22 
REMARK    5  A    between atoms: C_17  and  C_23 
REMARK    6  A    between atoms: C_18  and  C_24 
REMARK    7  A    between atoms: C_19  and  C_25 
REMARK    8  A    between atoms: C_20  and  C_26 
REMARK    9  A    between atoms: C_21  and  C_27 
ROOT
HETATM    1  O   UNL     1      49.038  24.788   5.696  1.00  0.00    -0.304 OA
HETATM    2  O   UNL     1      50.460  23.607  10.423  1.00  0.00    -0.304 OA
HETATM    3  O   UNL     1      52.503  22.725   6.121  1.00  0.00    -0.304 OA
HETATM    4  O   UNL     1      48.620  25.575   8.130  1.00  0.00    -0.270 OA
HETATM    5  O   UNL     1      52.687  21.835   2.795  1.00  0.00    -0.270 OA
HETATM    6  O   UNL     1      51.808  24.754   8.472  1.00  0.00    -0.270 OA
HETATM    7  O   UNL     1      48.734  23.600   3.742  1.00  0.00    -0.263 OA
HETATM    8  O   UNL     1      49.693  21.853   9.132  1.00  0.00    -0.263 OA
HETATM    9  O   UNL     1      54.478  23.111   5.004  1.00  0.00    -0.263 OA
HETATM   10  N   UNL     1      47.540  23.579   8.614  1.00  0.00    -0.340 N 
HETATM   11  N   UNL     1      51.473  23.752   3.272  1.00  0.00    -0.340 N 
HETATM   12  N   UNL     1      53.590  23.268   8.478  1.00  0.00    -0.340 N 
HETATM   13  C   UNL     1      48.143  23.541   9.961  1.00  0.00     0.190 C 
HETATM   14  C   UNL     1      50.864  24.689   4.239  1.00  0.00     0.190 C 
HETATM   15  C   UNL     1      54.204  23.903   7.288  1.00  0.00     0.190 C 
HETATM   16  C   UNL     1      47.775  24.364   6.252  1.00  0.00     0.227 C 
HETATM   17  C   UNL     1      51.825  23.172  10.269  1.00  0.00     0.227 C 
HETATM   18  C   UNL     1      51.877  22.006   5.054  1.00  0.00     0.227 C 
HETATM   19  C   UNL     1      47.993  24.581   7.744  1.00  0.00     0.250 C 
HETATM   20  C   UNL     1      52.066  22.526   3.612  1.00  0.00     0.250 C 
HETATM   21  C   UNL     1      52.399  23.801   8.994  1.00  0.00     0.250 C 
HETATM   22  C   UNL     1      49.422  24.279   4.490  1.00  0.00     0.283 C 
HETATM   23  C   UNL     1      49.502  22.877   9.776  1.00  0.00     0.283 C 
HETATM   24  C   UNL     1      53.786  23.171   6.012  1.00  0.00     0.283 C 
HETATM   25  C   UNL     1      46.626  22.507   8.215  1.00  0.00     0.153 C 
HETATM   26  C   UNL     1      51.453  24.131   1.859  1.00  0.00     0.153 C 
HETATM   27  C   UNL     1      54.252  22.063   8.989  1.00  0.00     0.153 C 
ENDROOT
BRANCH  16  28
HETATM   28  C   UNL     1      46.651  25.245   5.739  1.00  0.00     0.016 C 
HETATM   29  C   UNL     1      46.199  26.225   6.821  1.00  0.00     0.012 C 
HETATM   30  C   UNL     1      45.475  24.396   5.260  1.00  0.00     0.012 C 
ENDBRANCH  16  28
BRANCH  14  31
HETATM   31  C   UNL     1      50.927  26.162   3.840  1.00  0.00     0.014 C 
HETATM   32  C   UNL     1      49.521  26.670   3.511  1.00  0.00     0.012 C 
BRANCH  31  33
HETATM   33  C   UNL     1      51.556  27.040   4.936  1.00  0.00     0.002 C 
HETATM   34  C   UNL     1      53.026  26.739   5.188  1.00  0.00     0.005 C 
ENDBRANCH  31  33
ENDBRANCH  14  31
BRANCH  13  35
HETATM   35  C   UNL     1      47.355  22.809  11.039  1.00  0.00     0.014 C 
HETATM   36  C   UNL     1      48.301  22.353  12.154  1.00  0.00     0.012 C 
BRANCH  35  37
HETATM   37  C   UNL     1      46.230  23.674  11.634  1.00  0.00     0.002 C 
HETATM   38  C   UNL     1      46.593  25.149  11.751  1.00  0.00     0.005 C 
ENDBRANCH  35  37
ENDBRANCH  13  35
BRANCH  18  39
HETATM   39  C   UNL     1      52.295  20.540   5.179  1.00  0.00     0.016 C 
HETATM   40  C   UNL     1      52.510  20.166   6.644  1.00  0.00     0.012 C 
HETATM   41  C   UNL     1      51.250  19.628   4.540  1.00  0.00     0.012 C 
ENDBRANCH  18  39
BRANCH  17  42
HETATM   42  C   UNL     1      52.591  23.667  11.488  1.00  0.00     0.016 C 
HETATM   43  C   UNL     1      51.633  23.993  12.632  1.00  0.00     0.012 C 
HETATM   44  C   UNL     1      53.438  24.889  11.134  1.00  0.00     0.012 C 
ENDBRANCH  17  42
BRANCH  15  45
HETATM   45  C   UNL     1      55.722  24.034   7.386  1.00  0.00     0.014 C 
HETATM   46  C   UNL     1      56.226  25.059   6.363  1.00  0.00     0.012 C 
BRANCH  45  47
HETATM   47  C   UNL     1      56.192  24.438   8.797  1.00  0.00     0.002 C 
HETATM   48  C   UNL     1      57.697  24.635   8.901  1.00  0.00     0.005 C 
ENDBRANCH  45  47
ENDBRANCH  15  45
TORSDOF 9
ENDMDL
MODEL 6
REMARK VINA RESULT:    -5.319      2.393      6.357
REMARK INTER + INTRA:          -7.716
REMARK INTER:                  -8.299
REMARK INTRA:                   0.583
REMARK UNBOUND:                 0.402
REMARK  9 active torsions:
REMARK  status: ('A' for Active; 'I' for Inactive)
REMARK    1  A    between atoms: C_13  and  C_16 
REMARK    2  A    between atoms: C_14  and  C_17 
REMARK    3  A    between atoms: C_15  and  C_18 
REMARK    4  A    between atoms: C_16  and  C_22 
REMARK    5  A    between atoms: C_17  and  C_23 
REMARK    6  A    between atoms: C_18  and  C_24 
REMARK    7  A    between atoms: C_19  and  C_25 
REMARK    8  A    between atoms: C_20  and  C_26 
REMARK    9  A    between atoms: C_21  and  C_27 
ROOT
HETATM    1  O   UNL     1      55.575  24.284   7.756  1.00  0.00    -0.304 OA
HETATM    2  O   UNL     1      50.929  25.894   6.494  1.00  0.00    -0.304 OA
HETATM    3  O   UNL     1      52.670  21.473   7.435  1.00  0.00    -0.304 OA
HETATM    4  O   UNL     1      54.165  26.459   7.807  1.00  0.00    -0.270 OA
HETATM    5  O   UNL     1      54.877  18.825   7.350  1.00  0.00    -0.270 OA
HETATM    6  O   UNL     1      51.717  24.329   8.462  1.00  0.00    -0.270 OA
HETATM    7  O   UNL     1      57.020  22.683   6.939  1.00  0.00    -0.263 OA
HETATM    8  O   UNL     1      52.079  24.746   4.854  1.00  0.00    -0.263 OA
HETATM    9  O   UNL     1      52.301  19.709   8.866  1.00  0.00    -0.263 OA
HETATM   10  N   UNL     1      54.150  26.532   5.488  1.00  0.00    -0.340 N 
HETATM   11  N   UNL     1      55.637  20.753   8.392  1.00  0.00    -0.340 N 
HETATM   12  N   UNL     1      50.308  22.554   7.965  1.00  0.00    -0.340 N 
HETATM   13  C   UNL     1      52.751  27.003   5.479  1.00  0.00     0.190 C 
HETATM   14  C   UNL     1      55.470  22.175   8.759  1.00  0.00     0.190 C 
HETATM   15  C   UNL     1      50.912  21.701   9.015  1.00  0.00     0.190 C 
HETATM   16  C   UNL     1      55.898  25.230   6.714  1.00  0.00     0.227 C 
HETATM   17  C   UNL     1      50.090  24.751   6.757  1.00  0.00     0.227 C 
HETATM   18  C   UNL     1      53.743  20.851   6.721  1.00  0.00     0.227 C 
HETATM   19  C   UNL     1      54.683  26.148   6.728  1.00  0.00     0.250 C 
HETATM   20  C   UNL     1      54.788  20.047   7.525  1.00  0.00     0.250 C 
HETATM   21  C   UNL     1      50.782  23.865   7.799  1.00  0.00     0.250 C 
HETATM   22  C   UNL     1      56.138  23.043   7.705  1.00  0.00     0.283 C 
HETATM   23  C   UNL     1      51.900  25.741   5.544  1.00  0.00     0.283 C 
HETATM   24  C   UNL     1      52.005  20.811   8.422  1.00  0.00     0.283 C 
HETATM   25  C   UNL     1      54.849  26.356   4.213  1.00  0.00     0.153 C 
HETATM   26  C   UNL     1      56.769  20.032   8.974  1.00  0.00     0.153 C 
HETATM   27  C   UNL     1      49.291  21.925   7.116  1.00  0.00     0.153 C 
ENDROOT
BRANCH  16  28
HETATM   28  C   UNL     1      57.156  25.999   7.073  1.00  0.00     0.016 C 
HETATM   29  C   UNL     1      56.855  27.489   7.218  1.00  0.00     0.012 C 
HETATM   30  C   UNL     1      58.244  25.772   6.024  1.00  0.00     0.012 C 
ENDBRANCH  16  28
BRANCH  14  31
HETATM   31  C   UNL     1      55.984  22.549  10.148  1.00  0.00     0.014 C 
HETATM   32  C   UNL     1      57.246  23.404  10.019  1.00  0.00     0.012 C 
BRANCH  31  33
HETATM   33  C   UNL     1      54.929  23.297  10.981  1.00  0.00     0.002 C 
HETATM   34  C   UNL     1      55.013  23.008  12.473  1.00  0.00     0.005 C 
ENDBRANCH  31  33
ENDBRANCH  14  31
BRANCH  13  35
HETATM   35  C   UNL     1      52.326  27.850   4.287  1.00  0.00     0.014 C 
HETATM   36  C   UNL     1      50.930  27.427   3.821  1.00  0.00     0.012 C 
BRANCH  35  37
HETATM   37  C   UNL     1      52.335  29.356   4.602  1.00  0.00     0.002 C 
HETATM   38  C   UNL     1      51.203  29.792   5.523  1.00  0.00     0.005 C 
ENDBRANCH  35  37
ENDBRANCH  13  35
BRANCH  18  39
HETATM   39  C   UNL     1      53.125  20.007   5.605  1.00  0.00     0.016 C 
HETATM   40  C   UNL     1      51.876  20.684   5.048  1.00  0.00     0.012 C 
HETATM   41  C   UNL     1      54.144  19.760   4.493  1.00  0.00     0.012 C 
ENDBRANCH  18  39
BRANCH  17  42
HETATM   42  C   UNL     1      48.775  25.281   7.311  1.00  0.00     0.016 C 
HETATM   43  C   UNL     1      48.550  26.729   6.876  1.00  0.00     0.012 C 
HETATM   44  C   UNL     1      48.746  25.171   8.835  1.00  0.00     0.012 C 
ENDBRANCH  17  42
BRANCH  15  45
HETATM   45  C   UNL     1      49.885  20.882   9.795  1.00  0.00     0.014 C 
HETATM   46  C   UNL     1      50.600  19.940  10.772  1.00  0.00     0.012 C 
BRANCH  45  47
HETATM   47  C   UNL     1      48.886  21.765  10.566  1.00  0.00     0.002 C 
HETATM   48  C   UNL     1      49.554  22.762  11.502  1.00  0.00     0.005 C 
ENDBRANCH  45  47
ENDBRANCH  15  45
TORSDOF 9
ENDMDL
MODEL 7
REMARK VINA RESULT:    -5.287      1.885      6.994
REMARK INTER + INTRA:          -7.666
REMARK INTER:                  -8.217
REMARK INTRA:                   0.551
REMARK UNBOUND:                 0.402
REMARK  9 active torsions:
REMARK  status: ('A' for Active; 'I' for Inactive)
REMARK    1  A    between atoms: C_13  and  C_16 
REMARK    2  A    between atoms: C_14  and  C_17 
REMARK    3  A    between atoms: C_15  and  C_18 
REMARK    4  A    between atoms: C_16  and  C_22 
REMARK    5  A    between atoms: C_17  and  C_23 
REMARK    6  A    between atoms: C_18  and  C_24 
REMARK    7  A    between atoms: C_19  and  C_25 
REMARK    8  A    between atoms: C_20  and  C_26 
REMARK    9  A    between atoms: C_21  and  C_27 
ROOT
HETATM    1  O   UNL     1      52.283  24.205   4.609  1.00  0.00    -0.304 OA
HETATM    2  O   UNL     1      48.738  23.772   8.217  1.00  0.00    -0.304 OA
HETATM    3  O   UNL     1      53.394  22.441   8.088  1.00  0.00    -0.304 OA
HETATM    4  O   UNL     1      50.029  25.289   5.294  1.00  0.00    -0.270 OA
HETATM    5  O   UNL     1      56.302  21.117   6.792  1.00  0.00    -0.270 OA
HETATM    6  O   UNL     1      51.192  24.724   8.340  1.00  0.00    -0.270 OA
HETATM    7  O   UNL     1      53.733  22.744   3.568  1.00  0.00    -0.263 OA
HETATM    8  O   UNL     1      49.338  21.814   7.151  1.00  0.00    -0.263 OA
HETATM    9  O   UNL     1      55.352  22.793   9.243  1.00  0.00    -0.263 OA
HETATM   10  N   UNL     1      48.909  23.314   4.817  1.00  0.00    -0.340 N 
HETATM   11  N   UNL     1      55.475  23.002   5.724  1.00  0.00    -0.340 N 
HETATM   12  N   UNL     1      51.910  23.367  10.081  1.00  0.00    -0.340 N 
HETATM   13  C   UNL     1      48.021  23.498   5.982  1.00  0.00     0.190 C 
HETATM   14  C   UNL     1      54.423  24.023   5.534  1.00  0.00     0.190 C 
HETATM   15  C   UNL     1      53.300  23.871   9.982  1.00  0.00     0.190 C 
HETATM   16  C   UNL     1      51.152  23.782   3.818  1.00  0.00     0.227 C 
HETATM   17  C   UNL     1      49.491  23.406   9.391  1.00  0.00     0.227 C 
HETATM   18  C   UNL     1      53.958  21.545   7.125  1.00  0.00     0.227 C 
HETATM   19  C   UNL     1      49.976  24.214   4.684  1.00  0.00     0.250 C 
HETATM   20  C   UNL     1      55.353  21.874   6.550  1.00  0.00     0.250 C 
HETATM   21  C   UNL     1      50.935  23.890   9.217  1.00  0.00     0.250 C 
HETATM   22  C   UNL     1      53.473  23.561   4.440  1.00  0.00     0.283 C 
HETATM   23  C   UNL     1      48.776  22.902   7.163  1.00  0.00     0.283 C 
HETATM   24  C   UNL     1      54.146  22.947   9.104  1.00  0.00     0.283 C 
HETATM   25  C   UNL     1      48.720  22.143   3.959  1.00  0.00     0.153 C 
HETATM   26  C   UNL     1      56.732  23.183   4.997  1.00  0.00     0.153 C 
HETATM   27  C   UNL     1      51.675  22.287  11.044  1.00  0.00     0.153 C 
ENDROOT
BRANCH  16  28
HETATM   28  C   UNL     1      51.138  24.513   2.488  1.00  0.00     0.016 C 
HETATM   29  C   UNL     1      49.880  25.371   2.358  1.00  0.00     0.012 C 
HETATM   30  C   UNL     1      51.233  23.524   1.328  1.00  0.00     0.012 C 
ENDBRANCH  16  28
BRANCH  14  31
HETATM   31  C   UNL     1      54.934  25.428   5.224  1.00  0.00     0.014 C 
HETATM   32  C   UNL     1      54.522  25.828   3.805  1.00  0.00     0.012 C 
BRANCH  31  33
HETATM   33  C   UNL     1      54.421  26.473   6.230  1.00  0.00     0.002 C 
HETATM   34  C   UNL     1      54.968  26.283   7.638  1.00  0.00     0.005 C 
ENDBRANCH  31  33
ENDBRANCH  14  31
BRANCH  13  35
HETATM   35  C   UNL     1      46.636  22.873   5.888  1.00  0.00     0.014 C 
HETATM   36  C   UNL     1      46.153  22.468   7.284  1.00  0.00     0.012 C 
BRANCH  35  37
HETATM   37  C   UNL     1      45.608  23.815   5.236  1.00  0.00     0.002 C 
HETATM   38  C   UNL     1      45.224  23.409   3.819  1.00  0.00     0.005 C 
ENDBRANCH  35  37
ENDBRANCH  13  35
BRANCH  18  39
HETATM   39  C   UNL     1      53.918  20.139   7.726  1.00  0.00     0.016 C 
HETATM   40  C   UNL     1      52.591  19.899   8.442  1.00  0.00     0.012 C 
HETATM   41  C   UNL     1      54.142  19.086   6.642  1.00  0.00     0.012 C 
ENDBRANCH  18  39
BRANCH  17  42
HETATM   42  C   UNL     1      48.841  24.110  10.574  1.00  0.00     0.016 C 
HETATM   43  C   UNL     1      48.227  23.094  11.537  1.00  0.00     0.012 C 
HETATM   44  C   UNL     1      47.781  25.102  10.097  1.00  0.00     0.012 C 
ENDBRANCH  17  42
BRANCH  15  45
HETATM   45  C   UNL     1      53.958  24.110  11.339  1.00  0.00     0.014 C 
HETATM   46  C   UNL     1      52.981  24.831  12.275  1.00  0.00     0.012 C 
BRANCH  45  47
HETATM   47  C   UNL     1      54.440  22.804  12.001  1.00  0.00     0.002 C 
HETATM   48  C   UNL     1      55.770  22.948  12.725  1.00  0.00     0.005 C 
ENDBRANCH  45  47
ENDBRANCH  15  45
TORSDOF 9
ENDMDL
MODEL 8
REMARK VINA RESULT:    -5.131      2.021      6.288
REMARK INTER + INTRA:          -7.428
REMARK INTER:                  -7.368
REMARK INTRA:                  -0.060
REMARK UNBOUND:                 0.402
REMARK  9 active torsions:
REMARK  status: ('A' for Active; 'I' for Inactive)
REMARK    1  A    between atoms: C_13  and  C_16 
REMARK    2  A    between atoms: C_14  and  C_17 
REMARK    3  A    between atoms: C_15  and  C_18 
REMARK    4  A    between atoms: C_16  and  C_22 
REMARK    5  A    between atoms: C_17  and  C_23 
REMARK    6  A    between atoms: C_18  and  C_24 
REMARK    7  A    between atoms: C_19  and  C_25 
REMARK    8  A    between atoms: C_20  and  C_26 
REMARK    9  A    between atoms: C_21  and  C_27 
ROOT
HETATM    1  O   UNL     1      47.659  23.471   7.217  1.00  0.00    -0.304 OA
HETATM    2  O   UNL     1      52.680  23.852   7.857  1.00  0.00    -0.304 OA
HETATM    3  O   UNL     1      50.013  22.102   4.212  1.00  0.00    -0.304 OA
HETATM    4  O   UNL     1      49.366  24.836   8.610  1.00  0.00    -0.270 OA
HETATM    5  O   UNL     1      47.473  20.359   2.664  1.00  0.00    -0.270 OA
HETATM    6  O   UNL     1      51.156  24.587   5.837  1.00  0.00    -0.270 OA
HETATM    7  O   UNL     1      46.213  21.758   6.675  1.00  0.00    -0.263 OA
HETATM    8  O   UNL     1      51.803  21.722   8.003  1.00  0.00    -0.263 OA
HETATM    9  O   UNL     1      49.692  22.430   1.957  1.00  0.00    -0.263 OA
HETATM   10  N   UNL     1      49.983  22.924   9.771  1.00  0.00    -0.340 N 
HETATM   11  N   UNL     1      46.822  22.148   3.988  1.00  0.00    -0.340 N 
HETATM   12  N   UNL     1      52.314  23.420   4.199  1.00  0.00    -0.340 N 
HETATM   13  C   UNL     1      51.399  23.344   9.776  1.00  0.00     0.190 C 
HETATM   14  C   UNL     1      47.136  23.224   4.951  1.00  0.00     0.190 C 
HETATM   15  C   UNL     1      51.324  23.779   3.157  1.00  0.00     0.190 C 
HETATM   16  C   UNL     1      47.782  23.048   8.592  1.00  0.00     0.227 C 
HETATM   17  C   UNL     1      53.212  23.583   6.544  1.00  0.00     0.227 C 
HETATM   18  C   UNL     1      49.066  21.037   4.334  1.00  0.00     0.227 C 
HETATM   19  C   UNL     1      49.094  23.698   9.010  1.00  0.00     0.250 C 
HETATM   20  C   UNL     1      47.727  21.158   3.574  1.00  0.00     0.250 C 
HETATM   21  C   UNL     1      52.134  23.906   5.503  1.00  0.00     0.250 C 
HETATM   22  C   UNL     1      46.919  22.705   6.364  1.00  0.00     0.283 C 
HETATM   23  C   UNL     1      51.971  22.847   8.455  1.00  0.00     0.283 C 
HETATM   24  C   UNL     1      50.279  22.672   3.004  1.00  0.00     0.283 C 
HETATM   25  C   UNL     1      49.612  21.669  10.427  1.00  0.00     0.153 C 
HETATM   26  C   UNL     1      45.471  22.114   3.427  1.00  0.00     0.153 C 
HETATM   27  C   UNL     1      53.387  22.507   3.794  1.00  0.00     0.153 C 
ENDROOT
BRANCH  16  28
HETATM   28  C   UNL     1      46.627  23.590   9.414  1.00  0.00     0.016 C 
HETATM   29  C   UNL     1      47.095  24.736  10.309  1.00  0.00     0.012 C 
HETATM   30  C   UNL     1      45.994  22.481  10.252  1.00  0.00     0.012 C 
ENDBRANCH  16  28
BRANCH  14  31
HETATM   31  C   UNL     1      46.358  24.522   4.746  1.00  0.00     0.014 C 
HETATM   32  C   UNL     1      45.306  24.675   5.847  1.00  0.00     0.012 C 
BRANCH  31  33
HETATM   33  C   UNL     1      47.276  25.757   4.727  1.00  0.00     0.002 C 
HETATM   34  C   UNL     1      48.249  25.774   3.556  1.00  0.00     0.005 C 
ENDBRANCH  31  33
ENDBRANCH  14  31
BRANCH  13  35
HETATM   35  C   UNL     1      52.254  22.839  10.930  1.00  0.00     0.014 C 
HETATM   36  C   UNL     1      53.721  22.769  10.497  1.00  0.00     0.012 C 
BRANCH  35  37
HETATM   37  C   UNL     1      52.124  23.717  12.187  1.00  0.00     0.002 C 
HETATM   38  C   UNL     1      53.234  24.752  12.323  1.00  0.00     0.005 C 
ENDBRANCH  35  37
ENDBRANCH  13  35
BRANCH  18  39
HETATM   39  C   UNL     1      49.790  19.734   3.988  1.00  0.00     0.016 C 
HETATM   40  C   UNL     1      51.176  19.705   4.628  1.00  0.00     0.012 C 
HETATM   41  C   UNL     1      48.966  18.528   4.435  1.00  0.00     0.012 C 
ENDBRANCH  18  39
BRANCH  17  42
HETATM   42  C   UNL     1      54.414  24.497   6.354  1.00  0.00     0.016 C 
HETATM   43  C   UNL     1      55.718  23.715   6.516  1.00  0.00     0.012 C 
HETATM   44  C   UNL     1      54.366  25.664   7.339  1.00  0.00     0.012 C 
ENDBRANCH  17  42
BRANCH  15  45
HETATM   45  C   UNL     1      51.958  24.139   1.815  1.00  0.00     0.014 C 
HETATM   46  C   UNL     1      50.921  24.813   0.910  1.00  0.00     0.012 C 
BRANCH  45  47
HETATM   47  C   UNL     1      53.186  25.057   1.969  1.00  0.00     0.002 C 
HETATM   48  C   UNL     1      52.838  26.458   2.449  1.00  0.00     0.005 C 
ENDBRANCH  45  47
ENDBRANCH  15  45
TORSDOF 9
ENDMDL
MODEL 9
REMARK VINA RESULT:    -4.942      2.766      4.538
REMARK INTER + INTRA:          -7.140
REMARK INTER:                  -7.884
REMARK INTRA:                   0.744
REMARK UNBOUND:                 0.402
REMARK  9 active torsions:
REMARK  status: ('A' for Active; 'I' for Inactive)
REMARK    1  A    between atoms: C_13  and  C_16 
REMARK    2  A    between atoms: C_14  and  C_17 
REMARK    3  A    between atoms: C_15  and  C_18 
REMARK    4  A    between atoms: C_16  and  C_22 
REMARK    5  A    between atoms: C_17  and  C_23 
REMARK    6  A    between atoms: C_18  and  C_24 
REMARK    7  A    between atoms: C_19  and  C_25 
REMARK    8  A    between atoms: C_20  and  C_26 
REMARK    9  A    between atoms: C_21  and  C_27 
ROOT
HETATM    1  O   UNL     1      56.344  20.408   6.104  1.00  0.00    -0.304 OA
HETATM    2  O   UNL     1      55.690  23.326  10.206  1.00  0.00    -0.304 OA
HETATM    3  O   UNL     1      52.616  21.865   6.760  1.00  0.00    -0.304 OA
HETATM    4  O   UNL     1      57.470  20.864   8.394  1.00  0.00    -0.270 OA
HETATM    5  O   UNL     1      51.491  21.141   3.582  1.00  0.00    -0.270 OA
HETATM    6  O   UNL     1      54.328  21.233   9.366  1.00  0.00    -0.270 OA
HETATM    7  O   UNL     1      55.885  20.635   3.855  1.00  0.00    -0.263 OA
HETATM    8  O   UNL     1      55.649  24.419   8.173  1.00  0.00    -0.263 OA
HETATM    9  O   UNL     1      50.635  20.714   6.549  1.00  0.00    -0.263 OA
HETATM   10  N   UNL     1      58.034  23.010   7.715  1.00  0.00    -0.340 N 
HETATM   11  N   UNL     1      53.260  19.856   4.354  1.00  0.00    -0.340 N 
HETATM   12  N   UNL     1      52.248  22.262   9.355  1.00  0.00    -0.340 N 
HETATM   13  C   UNL     1      57.744  23.547   9.060  1.00  0.00     0.190 C 
HETATM   14  C   UNL     1      54.295  19.557   5.366  1.00  0.00     0.190 C 
HETATM   15  C   UNL     1      51.596  21.076   8.754  1.00  0.00     0.190 C 
HETATM   16  C   UNL     1      57.528  21.230   6.034  1.00  0.00     0.227 C 
HETATM   17  C   UNL     1      54.257  23.424  10.329  1.00  0.00     0.227 C 
HETATM   18  C   UNL     1      52.777  22.123   5.362  1.00  0.00     0.227 C 
HETATM   19  C   UNL     1      57.701  21.668   7.483  1.00  0.00     0.250 C 
HETATM   20  C   UNL     1      52.437  20.994   4.365  1.00  0.00     0.250 C 
HETATM   21  C   UNL     1      53.622  22.211   9.639  1.00  0.00     0.250 C 
HETATM   22  C   UNL     1      55.586  20.260   4.980  1.00  0.00     0.283 C 
HETATM   23  C   UNL     1      56.248  23.834   9.066  1.00  0.00     0.283 C 
HETATM   24  C   UNL     1      51.514  21.219   7.234  1.00  0.00     0.283 C 
HETATM   25  C   UNL     1      58.510  23.923   6.674  1.00  0.00     0.153 C 
HETATM   26  C   UNL     1      53.082  18.896   3.264  1.00  0.00     0.153 C 
HETATM   27  C   UNL     1      51.404  23.446   9.544  1.00  0.00     0.153 C 
ENDROOT
BRANCH  16  28
HETATM   28  C   UNL     1      58.716  20.404   5.577  1.00  0.00     0.016 C 
HETATM   29  C   UNL     1      59.794  20.365   6.659  1.00  0.00     0.012 C 
HETATM   30  C   UNL     1      59.287  20.956   4.272  1.00  0.00     0.012 C 
ENDBRANCH  16  28
BRANCH  14  31
HETATM   31  C   UNL     1      54.558  18.071   5.603  1.00  0.00     0.014 C 
HETATM   32  C   UNL     1      55.922  17.688   5.023  1.00  0.00     0.012 C 
BRANCH  31  33
HETATM   33  C   UNL     1      54.500  17.696   7.094  1.00  0.00     0.002 C 
HETATM   34  C   UNL     1      54.948  16.270   7.381  1.00  0.00     0.005 C 
ENDBRANCH  31  33
ENDBRANCH  14  31
BRANCH  13  35
HETATM   35  C   UNL     1      58.510  24.797   9.473  1.00  0.00     0.014 C 
HETATM   36  C   UNL     1      57.633  25.667  10.378  1.00  0.00     0.012 C 
BRANCH  35  37
HETATM   37  C   UNL     1      59.831  24.467  10.190  1.00  0.00     0.002 C 
HETATM   38  C   UNL     1      61.054  24.569   9.289  1.00  0.00     0.005 C 
ENDBRANCH  35  37
ENDBRANCH  13  35
BRANCH  18  39
HETATM   39  C   UNL     1      52.007  23.405   5.038  1.00  0.00     0.016 C 
HETATM   40  C   UNL     1      52.085  24.386   6.205  1.00  0.00     0.012 C 
HETATM   41  C   UNL     1      52.545  24.045   3.760  1.00  0.00     0.012 C 
ENDBRANCH  18  39
BRANCH  17  42
HETATM   42  C   UNL     1      53.935  23.408  11.817  1.00  0.00     0.016 C 
HETATM   43  C   UNL     1      53.277  24.721  12.241  1.00  0.00     0.012 C 
HETATM   44  C   UNL     1      55.197  23.153  12.640  1.00  0.00     0.012 C 
ENDBRANCH  17  42
BRANCH  15  45
HETATM   45  C   UNL     1      50.230  20.762   9.361  1.00  0.00     0.014 C 
HETATM   46  C   UNL     1      50.399  20.242  10.793  1.00  0.00     0.012 C 
BRANCH  45  47
HETATM   47  C   UNL     1      49.287  21.981   9.360  1.00  0.00     0.002 C 
HETATM   48  C   UNL     1      48.145  21.864  10.357  1.00  0.00     0.005 C 
ENDBRANCH  45  47
ENDBRANCH  15  45
TORSDOF 9
ENDMDL
MODEL 10
REMARK VINA RESULT:    -4.912      1.953      6.194
REMARK INTER + INTRA:          -7.094
REMARK INTER:                  -8.145
REMARK INTRA:                   1.051
REMARK UNBOUND:                 0.402
REMARK  9 active torsions:
REMARK  status: ('A' for Active; 'I' for Inactive)
REMARK    1  A    between atoms: C_13  and  C_16 
REMARK    2  A    between atoms: C_14  and  C_17 
REMARK    3  A    between atoms: C_15  and  C_18 
REMARK    4  A    between atoms: C_16  and  C_22 
REMARK    5  A    between atoms: C_17  and  C_23 
REMARK    6  A    between atoms: C_18  and  C_24 
REMARK    7  A    between atoms: C_19  and  C_25 
REMARK    8  A    between atoms: C_20  and  C_26 
REMARK    9  A    between atoms: C_21  and  C_27 
ROOT
HETATM    1  O   UNL     1      50.886  23.652   9.613  1.00  0.00    -0.304 OA
HETATM    2  O   UNL     1      53.952  25.369   5.950  1.00  0.00    -0.304 OA
HETATM    3  O   UNL     1      49.380  23.773   5.849  1.00  0.00    -0.304 OA
HETATM    4  O   UNL     1      53.011  25.114   9.350  1.00  0.00    -0.270 OA
HETATM    5  O   UNL     1      46.689  21.746   6.580  1.00  0.00    -0.270 OA
HETATM    6  O   UNL     1      51.484  26.050   6.567  1.00  0.00    -0.270 OA
HETATM    7  O   UNL     1      49.611  21.753   9.911  1.00  0.00    -0.263 OA
HETATM    8  O   UNL     1      53.535  23.098   5.934  1.00  0.00    -0.263 OA
HETATM    9  O   UNL     1      47.284  24.492   5.231  1.00  0.00    -0.263 OA
HETATM   10  N   UNL     1      54.225  23.264   8.651  1.00  0.00    -0.340 N 
HETATM   11  N   UNL     1      47.604  22.908   8.366  1.00  0.00    -0.340 N 
HETATM   12  N   UNL     1      50.579  25.688   4.461  1.00  0.00    -0.340 N 
HETATM   13  C   UNL     1      54.954  24.077   7.656  1.00  0.00     0.190 C 
HETATM   14  C   UNL     1      48.650  23.780   8.940  1.00  0.00     0.190 C 
HETATM   15  C   UNL     1      49.203  25.959   4.938  1.00  0.00     0.190 C 
HETATM   16  C   UNL     1      52.117  22.986   9.966  1.00  0.00     0.227 C 
HETATM   17  C   UNL     1      53.065  25.577   4.833  1.00  0.00     0.227 C 
HETATM   18  C   UNL     1      48.961  22.474   6.278  1.00  0.00     0.227 C 
HETATM   19  C   UNL     1      53.164  23.887   9.325  1.00  0.00     0.250 C 
HETATM   20  C   UNL     1      47.644  22.356   7.075  1.00  0.00     0.250 C 
HETATM   21  C   UNL     1      51.644  25.789   5.369  1.00  0.00     0.250 C 
HETATM   22  C   UNL     1      49.741  22.914   9.550  1.00  0.00     0.283 C 
HETATM   23  C   UNL     1      54.067  24.089   6.418  1.00  0.00     0.283 C 
HETATM   24  C   UNL     1      48.495  24.655   5.308  1.00  0.00     0.283 C 
HETATM   25  C   UNL     1      54.545  21.841   8.776  1.00  0.00     0.153 C 
HETATM   26  C   UNL     1      46.446  22.598   9.204  1.00  0.00     0.153 C 
HETATM   27  C   UNL     1      50.713  25.256   3.066  1.00  0.00     0.153 C 
ENDROOT
BRANCH  16  28
HETATM   28  C   UNL     1      52.284  22.955  11.474  1.00  0.00     0.016 C 
HETATM   29  C   UNL     1      51.418  24.025  12.134  1.00  0.00     0.012 C 
HETATM   30  C   UNL     1      53.751  23.142  11.858  1.00  0.00     0.012 C 
ENDBRANCH  16  28
BRANCH  14  31
HETATM   31  C   UNL     1      48.153  24.796   9.966  1.00  0.00     0.014 C 
HETATM   32  C   UNL     1      47.278  25.844   9.274  1.00  0.00     0.012 C 
BRANCH  31  33
HETATM   33  C   UNL     1      47.368  24.135  11.112  1.00  0.00     0.002 C 
HETATM   34  C   UNL     1      47.565  24.816  12.458  1.00  0.00     0.005 C 
ENDBRANCH  31  33
ENDBRANCH  14  31
BRANCH  13  35
HETATM   35  C   UNL     1      56.352  23.605   7.285  1.00  0.00     0.014 C 
HETATM   36  C   UNL     1      56.655  23.975   5.830  1.00  0.00     0.012 C 
BRANCH  35  37
HETATM   37  C   UNL     1      57.436  24.190   8.207  1.00  0.00     0.002 C 
HETATM   38  C   UNL     1      57.878  23.235   9.309  1.00  0.00     0.005 C 
ENDBRANCH  35  37
ENDBRANCH  13  35
BRANCH  18  39
HETATM   39  C   UNL     1      48.954  21.563   5.049  1.00  0.00     0.016 C 
HETATM   40  C   UNL     1      49.909  22.094   3.982  1.00  0.00     0.012 C 
HETATM   41  C   UNL     1      49.326  20.134   5.439  1.00  0.00     0.012 C 
ENDBRANCH  18  39
BRANCH  17  42
HETATM   42  C   UNL     1      53.544  26.827   4.109  1.00  0.00     0.016 C 
HETATM   43  C   UNL     1      54.442  26.458   2.929  1.00  0.00     0.012 C 
HETATM   44  C   UNL     1      54.282  27.759   5.071  1.00  0.00     0.012 C 
ENDBRANCH  17  42
BRANCH  15  45
HETATM   45  C   UNL     1      48.373  26.788   3.959  1.00  0.00     0.014 C 
HETATM   46  C   UNL     1      47.134  27.349   4.666  1.00  0.00     0.012 C 
BRANCH  45  47
HETATM   47  C   UNL     1      49.178  27.943   3.332  1.00  0.00     0.002 C 
HETATM   48  C   UNL     1      49.409  29.107   4.283  1.00  0.00     0.005 C 
ENDBRANCH  45  47
ENDBRANCH  15  45
TORSDOF 9
ENDMDL
MODEL 11
REMARK VINA RESULT:    -4.870      2.235      6.938
REMARK INTER + INTRA:          -7.030
REMARK INTER:                  -7.377
REMARK INTRA:                   0.346
REMARK UNBOUND:                 0.402
REMARK  9 active torsions:
REMARK  status: ('A' for Active; 'I' for Inactive)
REMARK    1  A    between atoms: C_13  and  C_16 
REMARK    2  A    between atoms: C_14  and  C_17 
REMARK    3  A    between atoms: C_15  and  C_18 
REMARK    4  A    between atoms: C_16  and  C_22 
REMARK    5  A    between atoms: C_17  and  C_23 
REMARK    6  A    between atoms: C_18  and  C_24 
REMARK    7  A    between atoms: C_19  and  C_25 
REMARK    8  A    between atoms: C_20  and  C_26 
REMARK    9  A    between atoms: C_21  and  C_27 
ROOT
HETATM    1  O   UNL     1      51.399  25.493   4.125  1.00  0.00    -0.304 OA
HETATM    2  O   UNL     1      47.729  24.844   7.572  1.00  0.00    -0.304 OA
HETATM    3  O   UNL     1      51.852  22.438   6.754  1.00  0.00    -0.304 OA
HETATM    4  O   UNL     1      49.497  26.847   5.253  1.00  0.00    -0.270 OA
HETATM    5  O   UNL     1      54.343  20.897   4.936  1.00  0.00    -0.270 OA
HETATM    6  O   UNL     1      50.341  25.006   7.870  1.00  0.00    -0.270 OA
HETATM    7  O   UNL     1      52.440  24.133   2.581  1.00  0.00    -0.263 OA
HETATM    8  O   UNL     1      47.818  23.270   5.885  1.00  0.00    -0.263 OA
HETATM    9  O   UNL     1      53.786  21.846   7.852  1.00  0.00    -0.263 OA
HETATM   10  N   UNL     1      47.903  25.522   4.209  1.00  0.00    -0.340 N 
HETATM   11  N   UNL     1      54.100  23.179   4.601  1.00  0.00    -0.340 N 
HETATM   12  N   UNL     1      50.597  23.006   9.019  1.00  0.00    -0.340 N 
HETATM   13  C   UNL     1      47.053  25.536   5.416  1.00  0.00     0.190 C 
HETATM   14  C   UNL     1      53.371  24.446   4.818  1.00  0.00     0.190 C 
HETATM   15  C   UNL     1      52.073  23.122   9.017  1.00  0.00     0.190 C 
HETATM   16  C   UNL     1      50.227  25.678   3.301  1.00  0.00     0.227 C 
HETATM   17  C   UNL     1      48.307  23.920   8.515  1.00  0.00     0.227 C 
HETATM   18  C   UNL     1      52.191  21.800   5.519  1.00  0.00     0.227 C 
HETATM   19  C   UNL     1      49.179  26.094   4.324  1.00  0.00     0.250 C 
HETATM   20  C   UNL     1      53.645  21.915   5.011  1.00  0.00     0.250 C 
HETATM   21  C   UNL     1      49.834  24.028   8.433  1.00  0.00     0.250 C 
HETATM   22  C   UNL     1      52.376  24.649   3.687  1.00  0.00     0.283 C 
HETATM   23  C   UNL     1      47.571  24.400   6.288  1.00  0.00     0.283 C 
HETATM   24  C   UNL     1      52.672  22.355   7.838  1.00  0.00     0.283 C 
HETATM   25  C   UNL     1      47.439  24.800   3.022  1.00  0.00     0.153 C 
HETATM   26  C   UNL     1      55.386  23.248   3.908  1.00  0.00     0.153 C 
HETATM   27  C   UNL     1      50.040  21.771   9.581  1.00  0.00     0.153 C 
ENDROOT
BRANCH  16  28
HETATM   28  C   UNL     1      50.464  26.787   2.293  1.00  0.00     0.016 C 
HETATM   29  C   UNL     1      51.007  28.037   2.983  1.00  0.00     0.012 C 
HETATM   30  C   UNL     1      49.178  27.111   1.535  1.00  0.00     0.012 C 
ENDBRANCH  16  28
BRANCH  14  31
HETATM   31  C   UNL     1      54.255  25.683   4.966  1.00  0.00     0.014 C 
HETATM   32  C   UNL     1      54.228  26.496   3.669  1.00  0.00     0.012 C 
BRANCH  31  33
HETATM   33  C   UNL     1      53.827  26.571   6.147  1.00  0.00     0.002 C 
HETATM   34  C   UNL     1      53.630  28.032   5.770  1.00  0.00     0.005 C 
ENDBRANCH  31  33
ENDBRANCH  14  31
BRANCH  13  35
HETATM   35  C   UNL     1      45.555  25.374   5.195  1.00  0.00     0.014 C 
HETATM   36  C   UNL     1      45.044  24.159   5.975  1.00  0.00     0.012 C 
BRANCH  35  37
HETATM   37  C   UNL     1      44.761  26.626   5.604  1.00  0.00     0.002 C 
HETATM   38  C   UNL     1      45.468  27.482   6.646  1.00  0.00     0.005 C 
ENDBRANCH  35  37
ENDBRANCH  13  35
BRANCH  18  39
HETATM   39  C   UNL     1      51.749  20.338   5.620  1.00  0.00     0.016 C 
HETATM   40  C   UNL     1      50.423  20.230   6.369  1.00  0.00     0.012 C 
HETATM   41  C   UNL     1      51.633  19.717   4.229  1.00  0.00     0.012 C 
ENDBRANCH  18  39
BRANCH  17  42
HETATM   42  C   UNL     1      47.825  24.334   9.898  1.00  0.00     0.016 C 
HETATM   43  C   UNL     1      46.722  23.397  10.389  1.00  0.00     0.012 C 
HETATM   44  C   UNL     1      47.332  25.780   9.888  1.00  0.00     0.012 C 
ENDBRANCH  17  42
BRANCH  15  45
HETATM   45  C   UNL     1      52.717  22.708  10.339  1.00  0.00     0.014 C 
HETATM   46  C   UNL     1      54.206  23.072  10.334  1.00  0.00     0.012 C 
BRANCH  45  47
HETATM   47  C   UNL     1      52.031  23.353  11.559  1.00  0.00     0.002 C 
HETATM   48  C   UNL     1      52.888  24.401  12.253  1.00  0.00     0.005 C 
ENDBRANCH  45  47
ENDBRANCH  15  45
TORSDOF 9
ENDMDL
MODEL 12
REMARK VINA RESULT:    -4.687      2.063      8.140
REMARK INTER + INTRA:          -6.750
REMARK INTER:                  -7.496
REMARK INTRA:                   0.746
REMARK UNBOUND:                 0.402
REMARK  9 active torsions:
REMARK  status: ('A' for Active; 'I' for Inactive)
REMARK    1  A    between atoms: C_13  and  C_16 
REMARK    2  A    between atoms: C_14  and  C_17 
REMARK    3  A    between atoms: C_15  and  C_18 
REMARK    4  A    between atoms: C_16  and  C_22 
REMARK    5  A    between atoms: C_17  and  C_23 
REMARK    6  A    between atoms: C_18  and  C_24 
REMARK    7  A    between atoms: C_19  and  C_25 
REMARK    8  A    between atoms: C_20  and  C_26 
REMARK    9  A    between atoms: C_21  and  C_27 
ROOT
HETATM    1  O   UNL     1      50.069  22.620   8.228  1.00  0.00    -0.304 OA
HETATM    2  O   UNL     1      51.768  20.587   3.898  1.00  0.00    -0.304 OA
HETATM    3  O   UNL     1      54.089  22.352   7.765  1.00  0.00    -0.304 OA
HETATM    4  O   UNL     1      49.240  21.064   6.327  1.00  0.00    -0.270 OA
HETATM    5  O   UNL     1      54.794  24.520  10.352  1.00  0.00    -0.270 OA
HETATM    6  O   UNL     1      52.386  20.038   6.399  1.00  0.00    -0.270 OA
HETATM    7  O   UNL     1      50.473  24.581   9.374  1.00  0.00    -0.263 OA
HETATM    8  O   UNL     1      52.048  22.868   4.120  1.00  0.00    -0.263 OA
HETATM    9  O   UNL     1      55.613  21.683   9.354  1.00  0.00    -0.263 OA
HETATM   10  N   UNL     1      49.328  22.824   4.817  1.00  0.00    -0.340 N 
HETATM   11  N   UNL     1      52.755  23.423  10.469  1.00  0.00    -0.340 N 
HETATM   12  N   UNL     1      54.678  20.318   6.169  1.00  0.00    -0.340 N 
HETATM   13  C   UNL     1      49.829  21.930   3.754  1.00  0.00     0.190 C 
HETATM   14  C   UNL     1      51.725  22.543   9.877  1.00  0.00     0.190 C 
HETATM   15  C   UNL     1      54.909  20.128   7.619  1.00  0.00     0.190 C 
HETATM   16  C   UNL     1      49.190  23.256   7.276  1.00  0.00     0.227 C 
HETATM   17  C   UNL     1      53.166  20.353   4.157  1.00  0.00     0.227 C 
HETATM   18  C   UNL     1      53.951  23.688   8.258  1.00  0.00     0.227 C 
HETATM   19  C   UNL     1      49.225  22.281   6.106  1.00  0.00     0.250 C 
HETATM   20  C   UNL     1      53.885  23.901   9.786  1.00  0.00     0.250 C 
HETATM   21  C   UNL     1      53.369  20.226   5.672  1.00  0.00     0.250 C 
HETATM   22  C   UNL     1      50.693  23.398   9.158  1.00  0.00     0.283 C 
HETATM   23  C   UNL     1      51.339  21.885   3.943  1.00  0.00     0.283 C 
HETATM   24  C   UNL     1      54.962  21.477   8.338  1.00  0.00     0.283 C 
HETATM   25  C   UNL     1      49.107  24.238   4.510  1.00  0.00     0.153 C 
HETATM   26  C   UNL     1      52.582  23.823  11.865  1.00  0.00     0.153 C 
HETATM   27  C   UNL     1      55.851  20.668   5.361  1.00  0.00     0.153 C 
ENDROOT
BRANCH  16  28
HETATM   28  C   UNL     1      47.787  23.363   7.845  1.00  0.00     0.016 C 
HETATM   29  C   UNL     1      46.808  22.526   7.024  1.00  0.00     0.012 C 
HETATM   30  C   UNL     1      47.335  24.821   7.893  1.00  0.00     0.012 C 
ENDBRANCH  16  28
BRANCH  14  31
HETATM   31  C   UNL     1      51.032  21.604  10.863  1.00  0.00     0.014 C 
HETATM   32  C   UNL     1      49.521  21.846  10.833  1.00  0.00     0.012 C 
BRANCH  31  33
HETATM   33  C   UNL     1      51.330  20.124  10.570  1.00  0.00     0.002 C 
HETATM   34  C   UNL     1      50.465  19.536   9.464  1.00  0.00     0.005 C 
ENDBRANCH  31  33
ENDBRANCH  14  31
BRANCH  13  35
HETATM   35  C   UNL     1      49.500  22.326   2.321  1.00  0.00     0.014 C 
HETATM   36  C   UNL     1      50.464  21.630   1.356  1.00  0.00     0.012 C 
BRANCH  35  37
HETATM   37  C   UNL     1      48.048  21.993   1.937  1.00  0.00     0.002 C 
HETATM   38  C   UNL     1      47.287  23.175   1.351  1.00  0.00     0.005 C 
ENDBRANCH  35  37
ENDBRANCH  13  35
BRANCH  18  39
HETATM   39  C   UNL     1      55.060  24.530   7.624  1.00  0.00     0.016 C 
HETATM   40  C   UNL     1      55.311  24.090   6.184  1.00  0.00     0.012 C 
HETATM   41  C   UNL     1      54.704  26.014   7.678  1.00  0.00     0.012 C 
ENDBRANCH  18  39
BRANCH  17  42
HETATM   42  C   UNL     1      53.535  19.047   3.468  1.00  0.00     0.016 C 
HETATM   43  C   UNL     1      53.921  19.295   2.011  1.00  0.00     0.012 C 
HETATM   44  C   UNL     1      52.382  18.047   3.552  1.00  0.00     0.012 C 
ENDBRANCH  17  42
BRANCH  15  45
HETATM   45  C   UNL     1      56.141  19.280   7.932  1.00  0.00     0.014 C 
HETATM   46  C   UNL     1      57.034  20.005   8.945  1.00  0.00     0.012 C 
BRANCH  45  47
HETATM   47  C   UNL     1      55.776  17.883   8.470  1.00  0.00     0.002 C 
HETATM   48  C   UNL     1      54.773  17.141   7.599  1.00  0.00     0.005 C 
ENDBRANCH  45  47
ENDBRANCH  15  45
TORSDOF 9
ENDMDL
MODEL 13
REMARK VINA RESULT:    -4.680      2.030      6.279
REMARK INTER + INTRA:          -6.740
REMARK INTER:                  -6.976
REMARK INTRA:                   0.236
REMARK UNBOUND:                 0.402
REMARK  9 active torsions:
REMARK  status: ('A' for Active; 'I' for Inactive)
REMARK    1  A    between atoms: C_13  and  C_16 
REMARK    2  A    between atoms: C_14  and  C_17 
REMARK    3  A    between atoms: C_15  and  C_18 
REMARK    4  A    between atoms: C_16  and  C_22 
REMARK    5  A    between atoms: C_17  and  C_23 
REMARK    6  A    between atoms: C_18  and  C_24 
REMARK    7  A    between atoms: C_19  and  C_25 
REMARK    8  A    between atoms: C_20  and  C_26 
REMARK    9  A    between atoms: C_21  and  C_27 
ROOT
HETATM    1  O   UNL     1      49.200  23.885   8.628  1.00  0.00    -0.304 OA
HETATM    2  O   UNL     1      53.880  24.440   6.742  1.00  0.00    -0.304 OA
HETATM    3  O   UNL     1      49.545  24.183   4.598  1.00  0.00    -0.304 OA
HETATM    4  O   UNL     1      51.548  24.675   9.392  1.00  0.00    -0.270 OA
HETATM    5  O   UNL     1      46.352  23.040   3.977  1.00  0.00    -0.270 OA
HETATM    6  O   UNL     1      51.684  25.822   6.290  1.00  0.00    -0.270 OA
HETATM    7  O   UNL     1      47.446  22.441   8.230  1.00  0.00    -0.263 OA
HETATM    8  O   UNL     1      52.893  22.380   6.403  1.00  0.00    -0.263 OA
HETATM    9  O   UNL     1      48.207  25.419   3.192  1.00  0.00    -0.263 OA
HETATM   10  N   UNL     1      52.374  22.519   9.159  1.00  0.00    -0.340 N 
HETATM   11  N   UNL     1      46.702  24.010   6.055  1.00  0.00    -0.340 N 
HETATM   12  N   UNL     1      51.703  25.595   3.981  1.00  0.00    -0.340 N 
HETATM   13  C   UNL     1      53.652  23.031   8.626  1.00  0.00     0.190 C 
HETATM   14  C   UNL     1      47.600  24.590   7.075  1.00  0.00     0.190 C 
HETATM   15  C   UNL     1      50.392  26.269   3.842  1.00  0.00     0.190 C 
HETATM   16  C   UNL     1      49.922  22.925   9.428  1.00  0.00     0.227 C 
HETATM   17  C   UNL     1      53.652  24.816   5.370  1.00  0.00     0.227 C 
HETATM   18  C   UNL     1      48.639  23.083   4.722  1.00  0.00     0.227 C 
HETATM   19  C   UNL     1      51.348  23.455   9.355  1.00  0.00     0.250 C 
HETATM   20  C   UNL     1      47.133  23.389   4.871  1.00  0.00     0.250 C 
HETATM   21  C   UNL     1      52.260  25.451   5.261  1.00  0.00     0.250 C 
HETATM   22  C   UNL     1      48.035  23.494   8.035  1.00  0.00     0.283 C 
HETATM   23  C   UNL     1      53.422  23.211   7.131  1.00  0.00     0.283 C 
HETATM   24  C   UNL     1      49.261  25.242   3.789  1.00  0.00     0.283 C 
HETATM   25  C   UNL     1      52.199  21.074   9.316  1.00  0.00     0.153 C 
HETATM   26  C   UNL     1      45.261  24.090   6.297  1.00  0.00     0.153 C 
HETATM   27  C   UNL     1      52.293  25.055   2.752  1.00  0.00     0.153 C 
ENDROOT
BRANCH  16  28
HETATM   28  C   UNL     1      49.414  22.944  10.858  1.00  0.00     0.016 C 
HETATM   29  C   UNL     1      50.506  23.422  11.812  1.00  0.00     0.012 C 
HETATM   30  C   UNL     1      48.911  21.561  11.270  1.00  0.00     0.012 C 
ENDBRANCH  16  28
BRANCH  14  31
HETATM   31  C   UNL     1      47.018  25.768   7.854  1.00  0.00     0.014 C 
HETATM   32  C   UNL     1      47.127  25.498   9.357  1.00  0.00     0.012 C 
BRANCH  31  33
HETATM   33  C   UNL     1      47.712  27.097   7.511  1.00  0.00     0.002 C 
HETATM   34  C   UNL     1      47.416  27.592   6.102  1.00  0.00     0.005 C 
ENDBRANCH  31  33
ENDBRANCH  14  31
BRANCH  13  35
HETATM   35  C   UNL     1      54.882  22.163   8.856  1.00  0.00     0.014 C 
HETATM   36  C   UNL     1      55.429  21.672   7.513  1.00  0.00     0.012 C 
BRANCH  35  37
HETATM   37  C   UNL     1      55.988  22.903   9.629  1.00  0.00     0.002 C 
HETATM   38  C   UNL     1      56.627  22.065  10.728  1.00  0.00     0.005 C 
ENDBRANCH  35  37
ENDBRANCH  13  35
BRANCH  18  39
HETATM   39  C   UNL     1      48.903  22.134   3.551  1.00  0.00     0.016 C 
HETATM   40  C   UNL     1      50.392  22.101   3.213  1.00  0.00     0.012 C 
HETATM   41  C   UNL     1      48.393  20.731   3.872  1.00  0.00     0.012 C 
ENDBRANCH  18  39
BRANCH  17  42
HETATM   42  C   UNL     1      54.722  25.835   5.003  1.00  0.00     0.016 C 
HETATM   43  C   UNL     1      55.848  25.173   4.208  1.00  0.00     0.012 C 
HETATM   44  C   UNL     1      55.278  26.509   6.256  1.00  0.00     0.012 C 
ENDBRANCH  17  42
BRANCH  15  45
HETATM   45  C   UNL     1      50.327  27.233   2.659  1.00  0.00     0.014 C 
HETATM   46  C   UNL     1      49.157  28.207   2.839  1.00  0.00     0.012 C 
BRANCH  45  47
HETATM   47  C   UNL     1      51.635  28.026   2.469  1.00  0.00     0.002 C 
HETATM   48  C   UNL     1      51.801  29.167   3.461  1.00  0.00     0.005 C 
ENDBRANCH  45  47
ENDBRANCH  15  45
TORSDOF 9
ENDMDL
MODEL 14
REMARK VINA RESULT:    -4.432      1.848      6.123
REMARK INTER + INTRA:          -6.361
REMARK INTER:                  -7.178
REMARK INTRA:                   0.817
REMARK UNBOUND:                 0.402
REMARK  9 active torsions:
REMARK  status: ('A' for Active; 'I' for Inactive)
REMARK    1  A    between atoms: C_13  and  C_16 
REMARK    2  A    between atoms: C_14  and  C_17 
REMARK    3  A    between atoms: C_15  and  C_18 
REMARK    4  A    between atoms: C_16  and  C_22 
REMARK    5  A    between atoms: C_17  and  C_23 
REMARK    6  A    between atoms: C_18  and  C_24 
REMARK    7  A    between atoms: C_19  and  C_25 
REMARK    8  A    between atoms: C_20  and  C_26 
REMARK    9  A    between atoms: C_21  and  C_27 
ROOT
HETATM    1  O   UNL     1      52.986  23.457   9.316  1.00  0.00    -0.304 OA
HETATM    2  O   UNL     1      48.989  21.738   6.701  1.00  0.00    -0.304 OA
HETATM    3  O   UNL     1      52.965  24.133   5.317  1.00  0.00    -0.304 OA
HETATM    4  O   UNL     1      51.106  21.685   9.535  1.00  0.00    -0.270 OA
HETATM    5  O   UNL     1      55.476  26.492   5.438  1.00  0.00    -0.270 OA
HETATM    6  O   UNL     1      51.570  21.436   6.267  1.00  0.00    -0.270 OA
HETATM    7  O   UNL     1      54.048  25.495   9.513  1.00  0.00    -0.263 OA
HETATM    8  O   UNL     1      49.101  24.026   6.984  1.00  0.00    -0.263 OA
HETATM    9  O   UNL     1      54.743  23.898   3.875  1.00  0.00    -0.263 OA
HETATM   10  N   UNL     1      49.510  23.363   9.682  1.00  0.00    -0.340 N 
HETATM   11  N   UNL     1      55.444  24.948   7.168  1.00  0.00    -0.340 N 
HETATM   12  N   UNL     1      51.565  22.243   4.092  1.00  0.00    -0.340 N 
HETATM   13  C   UNL     1      48.561  22.578   8.868  1.00  0.00     0.190 C 
HETATM   14  C   UNL     1      54.802  23.830   7.890  1.00  0.00     0.190 C 
HETATM   15  C   UNL     1      53.041  22.163   3.993  1.00  0.00     0.190 C 
HETATM   16  C   UNL     1      51.910  23.834  10.201  1.00  0.00     0.227 C 
HETATM   17  C   UNL     1      49.408  21.850   5.326  1.00  0.00     0.227 C 
HETATM   18  C   UNL     1      53.359  25.414   5.817  1.00  0.00     0.227 C 
HETATM   19  C   UNL     1      50.812  22.856   9.805  1.00  0.00     0.250 C 
HETATM   20  C   UNL     1      54.856  25.657   6.108  1.00  0.00     0.250 C 
HETATM   21  C   UNL     1      50.940  21.827   5.277  1.00  0.00     0.250 C 
HETATM   22  C   UNL     1      53.928  24.391   9.001  1.00  0.00     0.283 C 
HETATM   23  C   UNL     1      48.910  22.898   7.420  1.00  0.00     0.283 C 
HETATM   24  C   UNL     1      53.678  23.509   4.338  1.00  0.00     0.283 C 
HETATM   25  C   UNL     1      49.097  24.674  10.187  1.00  0.00     0.153 C 
HETATM   26  C   UNL     1      56.788  25.344   7.590  1.00  0.00     0.153 C 
HETATM   27  C   UNL     1      50.865  22.833   2.946  1.00  0.00     0.153 C 
ENDROOT
BRANCH  16  28
HETATM   28  C   UNL     1      52.321  23.625  11.647  1.00  0.00     0.016 C 
HETATM   29  C   UNL     1      52.758  24.945  12.279  1.00  0.00     0.012 C 
HETATM   30  C   UNL     1      53.439  22.589  11.745  1.00  0.00     0.012 C 
ENDBRANCH  16  28
BRANCH  14  31
HETATM   31  C   UNL     1      55.765  22.788   8.457  1.00  0.00     0.014 C 
HETATM   32  C   UNL     1      56.145  23.162   9.891  1.00  0.00     0.012 C 
BRANCH  31  33
HETATM   33  C   UNL     1      55.174  21.368   8.426  1.00  0.00     0.002 C 
HETATM   34  C   UNL     1      56.228  20.270   8.430  1.00  0.00     0.005 C 
ENDBRANCH  31  33
ENDBRANCH  14  31
BRANCH  13  35
HETATM   35  C   UNL     1      47.081  22.836   9.110  1.00  0.00     0.014 C 
HETATM   36  C   UNL     1      46.278  22.469   7.859  1.00  0.00     0.012 C 
BRANCH  35  37
HETATM   37  C   UNL     1      46.539  22.059  10.323  1.00  0.00     0.002 C 
HETATM   38  C   UNL     1      45.897  22.949  11.378  1.00  0.00     0.005 C 
ENDBRANCH  35  37
ENDBRANCH  13  35
BRANCH  18  39
HETATM   39  C   UNL     1      52.796  26.472   4.866  1.00  0.00     0.016 C 
HETATM   40  C   UNL     1      51.375  26.110   4.441  1.00  0.00     0.012 C 
HETATM   41  C   UNL     1      52.824  27.852   5.522  1.00  0.00     0.012 C 
ENDBRANCH  18  39
BRANCH  17  42
HETATM   42  C   UNL     1      48.841  20.646   4.587  1.00  0.00     0.016 C 
HETATM   43  C   UNL     1      47.341  20.510   4.846  1.00  0.00     0.012 C 
HETATM   44  C   UNL     1      49.572  19.368   4.997  1.00  0.00     0.012 C 
ENDBRANCH  17  42
BRANCH  15  45
HETATM   45  C   UNL     1      53.531  21.641   2.644  1.00  0.00     0.014 C 
HETATM   46  C   UNL     1      53.949  22.813   1.749  1.00  0.00     0.012 C 
BRANCH  45  47
HETATM   47  C   UNL     1      54.705  20.652   2.782  1.00  0.00     0.002 C 
HETATM   48  C   UNL     1      54.792  20.003   4.155  1.00  0.00     0.005 C 
ENDBRANCH  45  47
ENDBRANCH  15  45
TORSDOF 9
ENDMDL
MODEL 15
REMARK VINA RESULT:    -4.353      2.170      7.336
REMARK INTER + INTRA:          -6.241
REMARK INTER:                  -6.664
REMARK INTRA:                   0.423
REMARK UNBOUND:                 0.402
REMARK  9 active torsions:
REMARK  status: ('A' for Active; 'I' for Inactive)
REMARK    1  A    between atoms: C_13  and  C_16 
REMARK    2  A    between atoms: C_14  and  C_17 
REMARK    3  A    between atoms: C_15  and  C_18 
REMARK    4  A    between atoms: C_16  and  C_22 
REMARK    5  A    between atoms: C_17  and  C_23 
REMARK    6  A    between atoms: C_18  and  C_24 
REMARK    7  A    between atoms: C_19  and  C_25 
REMARK    8  A    between atoms: C_20  and  C_26 
REMARK    9  A    between atoms: C_21  and  C_27 
ROOT
HETATM    1  O   UNL     1      49.202  21.589   5.437  1.00  0.00    -0.304 OA
HETATM    2  O   UNL     1      53.474  18.863   5.737  1.00  0.00    -0.304 OA
HETATM    3  O   UNL     1      52.548  23.528   6.657  1.00  0.00    -0.304 OA
HETATM    4  O   UNL     1      49.947  19.115   5.659  1.00  0.00    -0.270 OA
HETATM    5  O   UNL     1      51.215  26.672   6.186  1.00  0.00    -0.270 OA
HETATM    6  O   UNL     1      52.345  20.466   7.497  1.00  0.00    -0.270 OA
HETATM    7  O   UNL     1      48.602  23.565   4.410  1.00  0.00    -0.263 OA
HETATM    8  O   UNL     1      53.360  20.371   3.993  1.00  0.00    -0.263 OA
HETATM    9  O   UNL     1      52.707  25.041   8.383  1.00  0.00    -0.263 OA
HETATM   10  N   UNL     1      50.863  19.175   3.528  1.00  0.00    -0.340 N 
HETATM   11  N   UNL     1      49.691  24.963   6.555  1.00  0.00    -0.340 N 
HETATM   12  N   UNL     1      54.196  21.821   7.842  1.00  0.00    -0.340 N 
HETATM   13  C   UNL     1      52.006  18.346   3.960  1.00  0.00     0.190 C 
HETATM   14  C   UNL     1      49.374  23.530   6.728  1.00  0.00     0.190 C 
HETATM   15  C   UNL     1      53.436  22.744   8.716  1.00  0.00     0.190 C 
HETATM   16  C   UNL     1      49.115  20.826   4.214  1.00  0.00     0.227 C 
HETATM   17  C   UNL     1      54.374  19.721   6.468  1.00  0.00     0.227 C 
HETATM   18  C   UNL     1      52.017  24.456   5.706  1.00  0.00     0.227 C 
HETATM   19  C   UNL     1      49.984  19.616   4.529  1.00  0.00     0.250 C 
HETATM   20  C   UNL     1      50.950  25.464   6.186  1.00  0.00     0.250 C 
HETATM   21  C   UNL     1      53.545  20.699   7.308  1.00  0.00     0.250 C 
HETATM   22  C   UNL     1      49.001  22.937   5.379  1.00  0.00     0.283 C 
HETATM   23  C   UNL     1      53.021  19.326   4.533  1.00  0.00     0.283 C 
HETATM   24  C   UNL     1      52.899  23.928   7.911  1.00  0.00     0.283 C 
HETATM   25  C   UNL     1      50.786  19.606   2.131  1.00  0.00     0.153 C 
HETATM   26  C   UNL     1      48.615  25.928   6.785  1.00  0.00     0.153 C 
HETATM   27  C   UNL     1      55.580  22.202   7.538  1.00  0.00     0.153 C 
ENDROOT
BRANCH  16  28
HETATM   28  C   UNL     1      47.680  20.406   3.957  1.00  0.00     0.016 C 
HETATM   29  C   UNL     1      47.544  18.886   4.018  1.00  0.00     0.012 C 
HETATM   30  C   UNL     1      47.196  20.933   2.607  1.00  0.00     0.012 C 
ENDBRANCH  16  28
BRANCH  14  31
HETATM   31  C   UNL     1      48.281  23.229   7.752  1.00  0.00     0.014 C 
HETATM   32  C   UNL     1      47.088  22.568   7.057  1.00  0.00     0.012 C 
BRANCH  31  33
HETATM   33  C   UNL     1      48.782  22.331   8.896  1.00  0.00     0.002 C 
HETATM   34  C   UNL     1      47.793  22.198  10.045  1.00  0.00     0.005 C 
ENDBRANCH  31  33
ENDBRANCH  14  31
BRANCH  13  35
HETATM   35  C   UNL     1      52.665  17.486   2.891  1.00  0.00     0.014 C 
HETATM   36  C   UNL     1      54.157  17.329   3.199  1.00  0.00     0.012 C 
BRANCH  35  37
HETATM   37  C   UNL     1      52.011  16.099   2.765  1.00  0.00     0.002 C 
HETATM   38  C   UNL     1      51.096  15.966   1.555  1.00  0.00     0.005 C 
ENDBRANCH  35  37
ENDBRANCH  13  35
BRANCH  18  39
HETATM   39  C   UNL     1      53.200  25.166   5.045  1.00  0.00     0.016 C 
HETATM   40  C   UNL     1      54.379  24.209   4.886  1.00  0.00     0.012 C 
HETATM   41  C   UNL     1      52.790  25.743   3.691  1.00  0.00     0.012 C 
ENDBRANCH  18  39
BRANCH  17  42
HETATM   42  C   UNL     1      55.206  18.825   7.375  1.00  0.00     0.016 C 
HETATM   43  C   UNL     1      56.613  18.638   6.809  1.00  0.00     0.012 C 
HETATM   44  C   UNL     1      54.524  17.471   7.569  1.00  0.00     0.012 C 
ENDBRANCH  17  42
BRANCH  15  45
HETATM   45  C   UNL     1      54.223  23.210   9.939  1.00  0.00     0.014 C 
HETATM   46  C   UNL     1      54.801  24.607   9.689  1.00  0.00     0.012 C 
BRANCH  45  47
HETATM   47  C   UNL     1      53.371  23.224  11.222  1.00  0.00     0.002 C 
HETATM   48  C   UNL     1      52.021  22.542  11.061  1.00  0.00     0.005 C 
ENDBRANCH  45  47
ENDBRANCH  15  45
TORSDOF 9
ENDMDL
MODEL 16
REMARK VINA RESULT:    -4.262      1.853      6.603
REMARK INTER + INTRA:          -6.102
REMARK INTER:                  -7.576
REMARK INTRA:                   1.473
REMARK UNBOUND:                 0.402
REMARK  9 active torsions:
REMARK  status: ('A' for Active; 'I' for Inactive)
REMARK    1  A    between atoms: C_13  and  C_16 
REMARK    2  A    between atoms: C_14  and  C_17 
REMARK    3  A    between atoms: C_15  and  C_18 
REMARK    4  A    between atoms: C_16  and  C_22 
REMARK    5  A    between atoms: C_17  and  C_23 
REMARK    6  A    between atoms: C_18  and  C_24 
REMARK    7  A    between atoms: C_19  and  C_25 
REMARK    8  A    between atoms: C_20  and  C_26 
REMARK    9  A    between atoms: C_21  and  C_27 
ROOT
HETATM    1  O   UNL     1      53.752  22.270   6.422  1.00  0.00    -0.304 OA
HETATM    2  O   UNL     1      49.215  21.307   4.360  1.00  0.00    -0.304 OA
HETATM    3  O   UNL     1      50.513  22.621   8.837  1.00  0.00    -0.304 OA
HETATM    4  O   UNL     1      52.630  22.188   4.086  1.00  0.00    -0.270 OA
HETATM    5  O   UNL     1      52.360  22.648  11.748  1.00  0.00    -0.270 OA
HETATM    6  O   UNL     1      50.042  23.366   5.780  1.00  0.00    -0.270 OA
HETATM    7  O   UNL     1      54.885  21.519   8.286  1.00  0.00    -0.263 OA
HETATM    8  O   UNL     1      50.012  19.717   5.832  1.00  0.00    -0.263 OA
HETATM    9  O   UNL     1      50.111  24.299  10.360  1.00  0.00    -0.263 OA
HETATM   10  N   UNL     1      52.345  19.893   4.278  1.00  0.00    -0.340 N 
HETATM   11  N   UNL     1      53.466  23.346   9.833  1.00  0.00    -0.340 N 
HETATM   12  N   UNL     1      48.380  23.253   7.395  1.00  0.00    -0.340 N 
HETATM   13  C   UNL     1      51.021  19.970   3.628  1.00  0.00     0.190 C 
HETATM   14  C   UNL     1      53.516  23.542   8.369  1.00  0.00     0.190 C 
HETATM   15  C   UNL     1      48.999  24.334   8.196  1.00  0.00     0.190 C 
HETATM   16  C   UNL     1      54.058  21.087   5.653  1.00  0.00     0.227 C 
HETATM   17  C   UNL     1      48.283  21.801   5.342  1.00  0.00     0.227 C 
HETATM   18  C   UNL     1      51.410  21.885   9.674  1.00  0.00     0.227 C 
HETATM   19  C   UNL     1      52.973  21.109   4.585  1.00  0.00     0.250 C 
HETATM   20  C   UNL     1      52.440  22.672  10.514  1.00  0.00     0.250 C 
HETATM   21  C   UNL     1      48.984  22.871   6.188  1.00  0.00     0.250 C 
HETATM   22  C   UNL     1      54.152  22.321   7.725  1.00  0.00     0.283 C 
HETATM   23  C   UNL     1      50.039  20.287   4.749  1.00  0.00     0.283 C 
HETATM   24  C   UNL     1      49.897  23.750   9.286  1.00  0.00     0.283 C 
HETATM   25  C   UNL     1      52.858  18.586   4.691  1.00  0.00     0.153 C 
HETATM   26  C   UNL     1      54.565  23.894  10.628  1.00  0.00     0.153 C 
HETATM   27  C   UNL     1      47.200  22.604   7.976  1.00  0.00     0.153 C 
ENDROOT
BRANCH  16  28
HETATM   28  C   UNL     1      55.434  21.209   5.025  1.00  0.00     0.016 C 
HETATM   29  C   UNL     1      56.440  20.319   5.752  1.00  0.00     0.012 C 
HETATM   30  C   UNL     1      55.902  22.663   5.031  1.00  0.00     0.012 C 
ENDBRANCH  16  28
BRANCH  14  31
HETATM   31  C   UNL     1      54.236  24.810   7.911  1.00  0.00     0.014 C 
HETATM   32  C   UNL     1      55.747  24.569   7.894  1.00  0.00     0.012 C 
BRANCH  31  33
HETATM   33  C   UNL     1      53.766  25.280   6.523  1.00  0.00     0.002 C 
HETATM   34  C   UNL     1      52.261  25.481   6.425  1.00  0.00     0.005 C 
ENDBRANCH  31  33
ENDBRANCH  14  31
BRANCH  13  35
HETATM   35  C   UNL     1      50.560  18.731   2.874  1.00  0.00     0.014 C 
HETATM   36  C   UNL     1      49.030  18.672   2.858  1.00  0.00     0.012 C 
BRANCH  35  37
HETATM   37  C   UNL     1      51.098  18.684   1.433  1.00  0.00     0.002 C 
HETATM   38  C   UNL     1      50.100  19.182   0.396  1.00  0.00     0.005 C 
ENDBRANCH  35  37
ENDBRANCH  13  35
BRANCH  18  39
HETATM   39  C   UNL     1      50.565  20.958  10.551  1.00  0.00     0.016 C 
HETATM   40  C   UNL     1      49.086  21.320  10.444  1.00  0.00     0.012 C 
HETATM   41  C   UNL     1      50.790  19.499  10.161  1.00  0.00     0.012 C 
ENDBRANCH  18  39
BRANCH  17  42
HETATM   42  C   UNL     1      47.117  22.417   4.580  1.00  0.00     0.016 C 
HETATM   43  C   UNL     1      45.908  21.482   4.595  1.00  0.00     0.012 C 
HETATM   44  C   UNL     1      47.523  22.743   3.143  1.00  0.00     0.012 C 
ENDBRANCH  17  42
BRANCH  15  45
HETATM   45  C   UNL     1      47.983  25.318   8.775  1.00  0.00     0.014 C 
HETATM   46  C   UNL     1      47.160  25.947   7.646  1.00  0.00     0.012 C 
BRANCH  45  47
HETATM   47  C   UNL     1      47.039  24.659   9.799  1.00  0.00     0.002 C 
HETATM   48  C   UNL     1      46.931  25.429  11.107  1.00  0.00     0.005 C 
ENDBRANCH  45  47
ENDBRANCH  15  45
TORSDOF 9
ENDMDL
MODEL 17
REMARK VINA RESULT:    -4.223      3.120      7.393
REMARK INTER + INTRA:          -6.042
REMARK INTER:                  -6.123
REMARK INTRA:                   0.081
REMARK UNBOUND:                 0.402
REMARK  9 active torsions:
REMARK  status: ('A' for Active; 'I' for Inactive)
REMARK    1  A    between atoms: C_13  and  C_16 
REMARK    2  A    between atoms: C_14  and  C_17 
REMARK    3  A    between atoms: C_15  and  C_18 
REMARK    4  A    between atoms: C_16  and  C_22 
REMARK    5  A    between atoms: C_17  and  C_23 
REMARK    6  A    between atoms: C_18  and  C_24 
REMARK    7  A    between atoms: C_19  and  C_25 
REMARK    8  A    between atoms: C_20  and  C_26 
REMARK    9  A    between atoms: C_21  and  C_27 
ROOT
HETATM    1  O   UNL     1      56.881  21.029   7.720  1.00  0.00    -0.304 OA
HETATM    2  O   UNL     1      53.283  20.115   4.259  1.00  0.00    -0.304 OA
HETATM    3  O   UNL     1      53.675  23.512   7.689  1.00  0.00    -0.304 OA
HETATM    4  O   UNL     1      56.603  19.822   5.442  1.00  0.00    -0.270 OA
HETATM    5  O   UNL     1      54.354  24.854  10.791  1.00  0.00    -0.270 OA
HETATM    6  O   UNL     1      54.546  22.348   4.859  1.00  0.00    -0.270 OA
HETATM    7  O   UNL     1      56.903  21.314  10.009  1.00  0.00    -0.263 OA
HETATM    8  O   UNL     1      52.736  19.603   6.442  1.00  0.00    -0.263 OA
HETATM    9  O   UNL     1      53.711  25.804   7.893  1.00  0.00    -0.263 OA
HETATM   10  N   UNL     1      55.198  18.254   6.419  1.00  0.00    -0.340 N 
HETATM   11  N   UNL     1      56.166  23.973   9.643  1.00  0.00    -0.340 N 
HETATM   12  N   UNL     1      52.648  23.625   5.247  1.00  0.00    -0.340 N 
HETATM   13  C   UNL     1      54.337  18.231   5.220  1.00  0.00     0.190 C 
HETATM   14  C   UNL     1      56.733  23.229   8.499  1.00  0.00     0.190 C 
HETATM   15  C   UNL     1      53.447  24.788   5.698  1.00  0.00     0.190 C 
HETATM   16  C   UNL     1      56.785  19.591   7.814  1.00  0.00     0.227 C 
HETATM   17  C   UNL     1      52.467  21.303   4.294  1.00  0.00     0.227 C 
HETATM   18  C   UNL     1      53.810  23.245   9.088  1.00  0.00     0.227 C 
HETATM   19  C   UNL     1      56.216  19.219   6.451  1.00  0.00     0.250 C 
HETATM   20  C   UNL     1      54.794  24.110   9.906  1.00  0.00     0.250 C 
HETATM   21  C   UNL     1      53.315  22.464   4.827  1.00  0.00     0.250 C 
HETATM   22  C   UNL     1      56.853  21.759   8.872  1.00  0.00     0.283 C 
HETATM   23  C   UNL     1      53.353  19.379   5.409  1.00  0.00     0.283 C 
HETATM   24  C   UNL     1      53.584  24.788   7.221  1.00  0.00     0.283 C 
HETATM   25  C   UNL     1      54.865  17.385   7.549  1.00  0.00     0.153 C 
HETATM   26  C   UNL     1      57.104  24.612  10.566  1.00  0.00     0.153 C 
HETATM   27  C   UNL     1      51.191  23.757   5.346  1.00  0.00     0.153 C 
ENDROOT
BRANCH  16  28
HETATM   28  C   UNL     1      58.162  18.983   8.005  1.00  0.00     0.016 C 
HETATM   29  C   UNL     1      58.503  18.046   6.849  1.00  0.00     0.012 C 
HETATM   30  C   UNL     1      58.242  18.240   9.338  1.00  0.00     0.012 C 
ENDBRANCH  16  28
BRANCH  14  31
HETATM   31  C   UNL     1      58.075  23.751   7.989  1.00  0.00     0.014 C 
HETATM   32  C   UNL     1      59.149  22.674   8.165  1.00  0.00     0.012 C 
BRANCH  31  33
HETATM   33  C   UNL     1      58.010  24.188   6.515  1.00  0.00     0.002 C 
HETATM   34  C   UNL     1      58.568  23.154   5.548  1.00  0.00     0.005 C 
ENDBRANCH  31  33
ENDBRANCH  14  31
BRANCH  13  35
HETATM   35  C   UNL     1      53.577  16.939   4.953  1.00  0.00     0.014 C 
HETATM   36  C   UNL     1      52.620  17.135   3.773  1.00  0.00     0.012 C 
BRANCH  35  37
HETATM   37  C   UNL     1      54.515  15.753   4.671  1.00  0.00     0.002 C 
HETATM   38  C   UNL     1      54.061  14.452   5.319  1.00  0.00     0.005 C 
ENDBRANCH  35  37
ENDBRANCH  13  35
BRANCH  18  39
HETATM   39  C   UNL     1      52.408  23.265   9.698  1.00  0.00     0.016 C 
HETATM   40  C   UNL     1      51.411  22.567   8.775  1.00  0.00     0.012 C 
HETATM   41  C   UNL     1      52.413  22.607  11.077  1.00  0.00     0.012 C 
ENDBRANCH  18  39
BRANCH  17  42
HETATM   42  C   UNL     1      52.029  21.587   2.864  1.00  0.00     0.016 C 
HETATM   43  C   UNL     1      50.586  21.135   2.641  1.00  0.00     0.012 C 
HETATM   44  C   UNL     1      52.964  20.902   1.867  1.00  0.00     0.012 C 
ENDBRANCH  17  42
BRANCH  15  45
HETATM   45  C   UNL     1      52.918  26.125   5.183  1.00  0.00     0.014 C 
HETATM   46  C   UNL     1      54.002  27.201   5.311  1.00  0.00     0.012 C 
BRANCH  45  47
HETATM   47  C   UNL     1      52.435  26.047   3.722  1.00  0.00     0.002 C 
HETATM   48  C   UNL     1      53.570  25.988   2.711  1.00  0.00     0.005 C 
ENDBRANCH  45  47
ENDBRANCH  15  45
TORSDOF 9
ENDMDL
MODEL 18
REMARK VINA RESULT:    -4.125     15.935     20.298
REMARK INTER + INTRA:          -5.893
REMARK INTER:                  -6.352
REMARK INTRA:                   0.458
REMARK UNBOUND:                 0.402
REMARK  9 active torsions:
REMARK  status: ('A' for Active; 'I' for Inactive)
REMARK    1  A    between atoms: C_13  and  C_16 
REMARK    2  A    between atoms: C_14  and  C_17 
REMARK    3  A    between atoms: C_15  and  C_18 
REMARK    4  A    between atoms: C_16  and  C_22 
REMARK    5  A    between atoms: C_17  and  C_23 
REMARK    6  A    between atoms: C_18  and  C_24 
REMARK    7  A    between atoms: C_19  and  C_25 
REMARK    8  A    between atoms: C_20  and  C_26 
REMARK    9  A    between atoms: C_21  and  C_27 
ROOT
HETATM    1  O   UNL     1      45.879   9.111  -0.647  1.00  0.00    -0.304 OA
HETATM    2  O   UNL     1      43.648   5.754  -3.733  1.00  0.00    -0.304 OA
HETATM    3  O   UNL     1      48.254   7.194  -3.318  1.00  0.00    -0.304 OA
HETATM    4  O   UNL     1      43.732   7.662  -0.755  1.00  0.00    -0.270 OA
HETATM    5  O   UNL     1      50.895   9.377  -2.932  1.00  0.00    -0.270 OA
HETATM    6  O   UNL     1      45.787   5.516  -2.213  1.00  0.00    -0.270 OA
HETATM    7  O   UNL     1      47.252  10.939  -0.951  1.00  0.00    -0.263 OA
HETATM    8  O   UNL     1      44.319   7.734  -4.712  1.00  0.00    -0.263 OA
HETATM    9  O   UNL     1      50.340   6.310  -2.914  1.00  0.00    -0.263 OA
HETATM   10  N   UNL     1      42.956   8.905  -2.555  1.00  0.00    -0.340 N 
HETATM   11  N   UNL     1      49.432   9.219  -1.139  1.00  0.00    -0.340 N 
HETATM   12  N   UNL     1      47.226   4.819  -3.895  1.00  0.00    -0.340 N 
HETATM   13  C   UNL     1      42.410   7.694  -3.198  1.00  0.00     0.190 C 
HETATM   14  C   UNL     1      48.181   8.718  -0.533  1.00  0.00     0.190 C 
HETATM   15  C   UNL     1      48.397   4.846  -2.989  1.00  0.00     0.190 C 
HETATM   16  C   UNL     1      44.685   9.838  -1.009  1.00  0.00     0.227 C 
HETATM   17  C   UNL     1      44.756   5.045  -4.323  1.00  0.00     0.227 C 
HETATM   18  C   UNL     1      48.701   8.545  -3.463  1.00  0.00     0.227 C 
HETATM   19  C   UNL     1      43.734   8.716  -1.403  1.00  0.00     0.250 C 
HETATM   20  C   UNL     1      49.781   9.067  -2.491  1.00  0.00     0.250 C 
HETATM   21  C   UNL     1      45.963   5.153  -3.383  1.00  0.00     0.250 C 
HETATM   22  C   UNL     1      47.082   9.748  -0.735  1.00  0.00     0.283 C 
HETATM   23  C   UNL     1      43.570   7.096  -3.983  1.00  0.00     0.283 C 
HETATM   24  C   UNL     1      49.138   6.179  -3.106  1.00  0.00     0.283 C 
HETATM   25  C   UNL     1      42.783  10.200  -3.216  1.00  0.00     0.153 C 
HETATM   26  C   UNL     1      50.371   9.925  -0.268  1.00  0.00     0.153 C 
HETATM   27  C   UNL     1      47.496   4.509  -5.302  1.00  0.00     0.153 C 
ENDROOT
BRANCH  16  28
HETATM   28  C   UNL     1      44.151  10.600   0.190  1.00  0.00     0.016 C 
HETATM   29  C   UNL     1      42.695  10.226   0.461  1.00  0.00     0.012 C 
HETATM   30  C   UNL     1      44.285  12.106  -0.025  1.00  0.00     0.012 C 
ENDBRANCH  16  28
BRANCH  14  31
HETATM   31  C   UNL     1      48.284   8.345   0.945  1.00  0.00     0.014 C 
HETATM   32  C   UNL     1      46.960   8.653   1.649  1.00  0.00     0.012 C 
BRANCH  31  33
HETATM   33  C   UNL     1      48.653   6.866   1.152  1.00  0.00     0.002 C 
HETATM   34  C   UNL     1      47.626   5.897   0.585  1.00  0.00     0.005 C 
ENDBRANCH  31  33
ENDBRANCH  14  31
BRANCH  13  35
HETATM   35  C   UNL     1      41.214   7.893  -4.119  1.00  0.00     0.014 C 
HETATM   36  C   UNL     1      40.952   6.611  -4.914  1.00  0.00     0.012 C 
BRANCH  35  37
HETATM   37  C   UNL     1      39.943   8.300  -3.353  1.00  0.00     0.002 C 
HETATM   38  C   UNL     1      38.992   9.167  -4.168  1.00  0.00     0.005 C 
ENDBRANCH  35  37
ENDBRANCH  13  35
BRANCH  18  39
HETATM   39  C   UNL     1      49.122   8.737  -4.921  1.00  0.00     0.016 C 
HETATM   40  C   UNL     1      48.212   7.939  -5.852  1.00  0.00     0.012 C 
HETATM   41  C   UNL     1      49.105  10.218  -5.294  1.00  0.00     0.012 C 
ENDBRANCH  18  39
BRANCH  17  42
HETATM   42  C   UNL     1      44.331   3.590  -4.463  1.00  0.00     0.016 C 
HETATM   43  C   UNL     1      42.952   3.491  -5.115  1.00  0.00     0.012 C 
HETATM   44  C   UNL     1      44.330   2.894  -3.103  1.00  0.00     0.012 C 
ENDBRANCH  17  42
BRANCH  15  45
HETATM   45  C   UNL     1      49.343   3.662  -3.183  1.00  0.00     0.014 C 
HETATM   46  C   UNL     1      50.198   3.463  -1.927  1.00  0.00     0.012 C 
BRANCH  45  47
HETATM   47  C   UNL     1      48.595   2.356  -3.512  1.00  0.00     0.002 C 
HETATM   48  C   UNL     1      49.433   1.360  -4.298  1.00  0.00     0.005 C 
ENDBRANCH  45  47
ENDBRANCH  15  45
TORSDOF 9
ENDMDL
MODEL 19
REMARK VINA RESULT:    -4.040      8.631     13.832
REMARK INTER + INTRA:          -5.763
REMARK INTER:                  -6.070
REMARK INTRA:                   0.307
REMARK UNBOUND:                 0.402
REMARK  9 active torsions:
REMARK  status: ('A' for Active; 'I' for Inactive)
REMARK    1  A    between atoms: C_13  and  C_16 
REMARK    2  A    between atoms: C_14  and  C_17 
REMARK    3  A    between atoms: C_15  and  C_18 
REMARK    4  A    between atoms: C_16  and  C_22 
REMARK    5  A    between atoms: C_17  and  C_23 
REMARK    6  A    between atoms: C_18  and  C_24 
REMARK    7  A    between atoms: C_19  and  C_25 
REMARK    8  A    between atoms: C_20  and  C_26 
REMARK    9  A    between atoms: C_21  and  C_27 
ROOT
HETATM    1  O   UNL     1      44.048  16.096   2.232  1.00  0.00    -0.304 OA
HETATM    2  O   UNL     1      45.151  11.649   0.047  1.00  0.00    -0.304 OA
HETATM    3  O   UNL     1      47.322  15.974  -0.158  1.00  0.00    -0.304 OA
HETATM    4  O   UNL     1      43.577  13.569   2.567  1.00  0.00    -0.270 OA
HETATM    5  O   UNL     1      47.594  19.402  -0.404  1.00  0.00    -0.270 OA
HETATM    6  O   UNL     1      46.673  13.294   1.431  1.00  0.00    -0.270 OA
HETATM    7  O   UNL     1      43.747  18.252   1.471  1.00  0.00    -0.263 OA
HETATM    8  O   UNL     1      44.315  13.282  -1.355  1.00  0.00    -0.263 OA
HETATM    9  O   UNL     1      49.371  16.931   0.269  1.00  0.00    -0.263 OA
HETATM   10  N   UNL     1      42.326  13.519   0.613  1.00  0.00    -0.340 N 
HETATM   11  N   UNL     1      46.508  18.598   1.481  1.00  0.00    -0.340 N 
HETATM   12  N   UNL     1      48.335  13.523  -0.172  1.00  0.00    -0.340 N 
HETATM   13  C   UNL     1      42.861  12.187   0.265  1.00  0.00     0.190 C 
HETATM   14  C   UNL     1      45.928  17.485   2.262  1.00  0.00     0.190 C 
HETATM   15  C   UNL     1      49.051  14.546   0.626  1.00  0.00     0.190 C 
HETATM   16  C   UNL     1      42.732  15.673   1.815  1.00  0.00     0.227 C 
HETATM   17  C   UNL     1      46.486  11.842  -0.464  1.00  0.00     0.227 C 
HETATM   18  C   UNL     1      46.694  17.180  -0.603  1.00  0.00     0.227 C 
HETATM   19  C   UNL     1      42.895  14.162   1.722  1.00  0.00     0.250 C 
HETATM   20  C   UNL     1      46.990  18.486   0.167  1.00  0.00     0.250 C 
HETATM   21  C   UNL     1      47.165  12.951   0.349  1.00  0.00     0.250 C 
HETATM   22  C   UNL     1      44.449  17.365   1.933  1.00  0.00     0.283 C 
HETATM   23  C   UNL     1      44.172  12.456  -0.462  1.00  0.00     0.283 C 
HETATM   24  C   UNL     1      48.639  15.953   0.192  1.00  0.00     0.283 C 
HETATM   25  C   UNL     1      41.353  14.149  -0.282  1.00  0.00     0.153 C 
HETATM   26  C   UNL     1      46.585  19.909   2.125  1.00  0.00     0.153 C 
HETATM   27  C   UNL     1      48.878  13.237  -1.504  1.00  0.00     0.153 C 
ENDROOT
BRANCH  16  28
HETATM   28  C   UNL     1      41.704  16.039   2.870  1.00  0.00     0.016 C 
HETATM   29  C   UNL     1      40.981  17.330   2.493  1.00  0.00     0.012 C 
HETATM   30  C   UNL     1      42.363  16.175   4.241  1.00  0.00     0.012 C 
ENDBRANCH  16  28
BRANCH  14  31
HETATM   31  C   UNL     1      46.122  17.587   3.774  1.00  0.00     0.014 C 
HETATM   32  C   UNL     1      44.893  18.241   4.410  1.00  0.00     0.012 C 
BRANCH  31  33
HETATM   33  C   UNL     1      46.379  16.216   4.424  1.00  0.00     0.002 C 
HETATM   34  C   UNL     1      47.709  15.592   4.025  1.00  0.00     0.005 C 
ENDBRANCH  31  33
ENDBRANCH  14  31
BRANCH  13  35
HETATM   35  C   UNL     1      41.970  11.299  -0.591  1.00  0.00     0.014 C 
HETATM   36  C   UNL     1      42.503  11.257  -2.026  1.00  0.00     0.012 C 
BRANCH  35  37
HETATM   37  C   UNL     1      41.858   9.868  -0.036  1.00  0.00     0.002 C 
HETATM   38  C   UNL     1      42.859   8.898  -0.650  1.00  0.00     0.005 C 
ENDBRANCH  35  37
ENDBRANCH  13  35
BRANCH  18  39
HETATM   39  C   UNL     1      46.993  17.331  -2.096  1.00  0.00     0.016 C 
HETATM   40  C   UNL     1      47.011  15.967  -2.780  1.00  0.00     0.012 C 
HETATM   41  C   UNL     1      45.968  18.251  -2.757  1.00  0.00     0.012 C 
ENDBRANCH  18  39
BRANCH  17  42
HETATM   42  C   UNL     1      47.229  10.526  -0.278  1.00  0.00     0.016 C 
HETATM   43  C   UNL     1      47.346   9.781  -1.607  1.00  0.00     0.012 C 
HETATM   44  C   UNL     1      46.531   9.654   0.764  1.00  0.00     0.012 C 
ENDBRANCH  17  42
BRANCH  15  45
HETATM   45  C   UNL     1      50.569  14.377   0.609  1.00  0.00     0.014 C 
HETATM   46  C   UNL     1      51.209  15.285   1.664  1.00  0.00     0.012 C 
BRANCH  45  47
HETATM   47  C   UNL     1      51.004  12.918   0.848  1.00  0.00     0.002 C 
HETATM   48  C   UNL     1      50.760  12.439   2.271  1.00  0.00     0.005 C 
ENDBRANCH  45  47
ENDBRANCH  15  45
TORSDOF 9
ENDMDL
MODEL 20
REMARK VINA RESULT:    -4.012     17.572     21.742
REMARK INTER + INTRA:          -5.720
REMARK INTER:                  -5.757
REMARK INTRA:                   0.037
REMARK UNBOUND:                 0.402
REMARK  9 active torsions:
REMARK  status: ('A' for Active; 'I' for Inactive)
REMARK    1  A    between atoms: C_13  and  C_16 
REMARK    2  A    between atoms: C_14  and  C_17 
REMARK    3  A    between atoms: C_15  and  C_18 
REMARK    4  A    between atoms: C_16  and  C_22 
REMARK    5  A    between atoms: C_17  and  C_23 
REMARK    6  A    between atoms: C_18  and  C_24 
REMARK    7  A    between atoms: C_19  and  C_25 
REMARK    8  A    between atoms: C_20  and  C_26 
REMARK    9  A    between atoms: C_21  and  C_27 
ROOT
HETATM    1  O   UNL     1      43.822   7.720  -3.459  1.00  0.00    -0.304 OA
HETATM    2  O   UNL     1      47.999   7.732  -6.344  1.00  0.00    -0.304 OA
HETATM    3  O   UNL     1      46.489   4.724  -2.861  1.00  0.00    -0.304 OA
HETATM    4  O   UNL     1      44.650   8.685  -5.718  1.00  0.00    -0.270 OA
HETATM    5  O   UNL     1      45.125   3.758   0.155  1.00  0.00    -0.270 OA
HETATM    6  O   UNL     1      46.274   5.804  -5.846  1.00  0.00    -0.270 OA
HETATM    7  O   UNL     1      43.411   7.617  -1.191  1.00  0.00    -0.263 OA
HETATM    8  O   UNL     1      48.302   8.306  -4.128  1.00  0.00    -0.263 OA
HETATM    9  O   UNL     1      46.005   2.495  -2.555  1.00  0.00    -0.263 OA
HETATM   10  N   UNL     1      46.158  10.054  -4.608  1.00  0.00    -0.340 N 
HETATM   11  N   UNL     1      43.695   4.850  -1.308  1.00  0.00    -0.340 N 
HETATM   12  N   UNL     1      47.828   4.250  -5.100  1.00  0.00    -0.340 N 
HETATM   13  C   UNL     1      47.177   9.837  -5.654  1.00  0.00     0.190 C 
HETATM   14  C   UNL     1      43.450   5.593  -2.562  1.00  0.00     0.190 C 
HETATM   15  C   UNL     1      46.772   3.281  -4.726  1.00  0.00     0.190 C 
HETATM   16  C   UNL     1      44.165   9.122  -3.420  1.00  0.00     0.227 C 
HETATM   17  C   UNL     1      48.569   6.427  -6.122  1.00  0.00     0.227 C 
HETATM   18  C   UNL     1      46.200   5.115  -1.515  1.00  0.00     0.227 C 
HETATM   19  C   UNL     1      44.988   9.285  -4.691  1.00  0.00     0.250 C 
HETATM   20  C   UNL     1      44.965   4.498  -0.823  1.00  0.00     0.250 C 
HETATM   21  C   UNL     1      47.454   5.474  -5.676  1.00  0.00     0.250 C 
HETATM   22  C   UNL     1      43.547   7.085  -2.283  1.00  0.00     0.283 C 
HETATM   23  C   UNL     1      47.895   8.554  -5.256  1.00  0.00     0.283 C 
HETATM   24  C   UNL     1      46.414   3.419  -3.246  1.00  0.00     0.283 C 
HETATM   25  C   UNL     1      46.474  10.936  -3.482  1.00  0.00     0.153 C 
HETATM   26  C   UNL     1      42.530   4.455  -0.516  1.00  0.00     0.153 C 
HETATM   27  C   UNL     1      49.205   3.876  -4.765  1.00  0.00     0.153 C 
ENDROOT
BRANCH  16  28
HETATM   28  C   UNL     1      42.910   9.972  -3.479  1.00  0.00     0.016 C 
HETATM   29  C   UNL     1      42.904  10.838  -4.737  1.00  0.00     0.012 C 
HETATM   30  C   UNL     1      42.789  10.843  -2.229  1.00  0.00     0.012 C 
ENDBRANCH  16  28
BRANCH  14  31
HETATM   31  C   UNL     1      42.125   5.275  -3.253  1.00  0.00     0.014 C 
HETATM   32  C   UNL     1      41.339   6.567  -3.485  1.00  0.00     0.012 C 
BRANCH  31  33
HETATM   33  C   UNL     1      42.325   4.538  -4.589  1.00  0.00     0.002 C 
HETATM   34  C   UNL     1      42.690   5.459  -5.744  1.00  0.00     0.005 C 
ENDBRANCH  31  33
ENDBRANCH  14  31
BRANCH  13  35
HETATM   35  C   UNL     1      48.191  10.954  -5.859  1.00  0.00     0.014 C 
HETATM   36  C   UNL     1      49.462  10.389  -6.499  1.00  0.00     0.012 C 
BRANCH  35  37
HETATM   37  C   UNL     1      47.638  12.100  -6.724  1.00  0.00     0.002 C 
HETATM   38  C   UNL     1      46.614  11.644  -7.755  1.00  0.00     0.005 C 
ENDBRANCH  35  37
ENDBRANCH  13  35
BRANCH  18  39
HETATM   39  C   UNL     1      47.470   4.899  -0.690  1.00  0.00     0.016 C 
HETATM   40  C   UNL     1      48.711   5.190  -1.529  1.00  0.00     0.012 C 
HETATM   41  C   UNL     1      47.451   5.775   0.562  1.00  0.00     0.012 C 
ENDBRANCH  18  39
BRANCH  17  42
HETATM   42  C   UNL     1      49.154   5.964  -7.449  1.00  0.00     0.016 C 
HETATM   43  C   UNL     1      50.673   6.131  -7.458  1.00  0.00     0.012 C 
HETATM   44  C   UNL     1      48.526   6.731  -8.613  1.00  0.00     0.012 C 
ENDBRANCH  17  42
BRANCH  15  45
HETATM   45  C   UNL     1      47.117   1.837  -5.086  1.00  0.00     0.014 C 
HETATM   46  C   UNL     1      45.936   0.918  -4.756  1.00  0.00     0.012 C 
BRANCH  45  47
HETATM   47  C   UNL     1      47.502   1.673  -6.569  1.00  0.00     0.002 C 
HETATM   48  C   UNL     1      46.402   2.093  -7.531  1.00  0.00     0.005 C 
ENDBRANCH  45  47
ENDBRANCH  15  45
TORSDOF 9
ENDMDL
