MODEL 1
REMARK VINA RESULT:    -5.731      0.000      0.000
REMARK INTER + INTRA:          -8.695
REMARK INTER:                  -8.747
REMARK INTRA:                   0.052
REMARK UNBOUND:                 0.052
REMARK  9 active torsions:
REMARK  status: ('A' for Active; 'I' for Inactive)
REMARK    1  A    between atoms: C_13  and  C_16 
REMARK    2  A    between atoms: C_14  and  C_17 
REMARK    3  A    between atoms: C_15  and  C_18 
REMARK    4  A    between atoms: C_16  and  C_22 
REMARK    5  A    between atoms: C_17  and  C_23 
REMARK    6  A    between atoms: C_18  and  C_24 
REMARK    7  A    between atoms: C_19  and  C_25 
REMARK    8  A    between atoms: C_20  and  C_26 
REMARK    9  A    between atoms: C_21  and  C_27 
ROOT
HETATM    1  O   UNL     1      10.591  28.711  49.387  1.00  0.00    -0.304 OA
HETATM    2  O   UNL     1       9.829  25.624  45.430  1.00  0.00    -0.304 OA
HETATM    3  O   UNL     1       7.207  29.279  47.226  1.00  0.00    -0.304 OA
HETATM    4  O   UNL     1      11.949  27.176  47.799  1.00  0.00    -0.270 OA
HETATM    5  O   UNL     1       5.700  31.256  49.615  1.00  0.00    -0.270 OA
HETATM    6  O   UNL     1       9.734  28.252  45.588  1.00  0.00    -0.270 OA
HETATM    7  O   UNL     1       9.350  29.331  51.230  1.00  0.00    -0.263 OA
HETATM    8  O   UNL     1       8.474  25.265  47.265  1.00  0.00    -0.263 OA
HETATM    9  O   UNL     1       6.324  31.298  46.562  1.00  0.00    -0.263 OA
HETATM   10  N   UNL     1      10.901  25.301  48.678  1.00  0.00    -0.340 N 
HETATM   11  N   UNL     1       8.018  31.198  49.654  1.00  0.00    -0.340 N 
HETATM   12  N   UNL     1       7.593  28.488  44.725  1.00  0.00    -0.340 N 
HETATM   13  C   UNL     1      10.837  24.672  47.344  1.00  0.00     0.190 C 
HETATM   14  C   UNL     1       9.305  30.652  49.175  1.00  0.00     0.190 C 
HETATM   15  C   UNL     1       7.584  29.947  44.978  1.00  0.00     0.190 C 
HETATM   16  C   UNL     1      10.974  27.444  49.964  1.00  0.00     0.227 C 
HETATM   17  C   UNL     1       8.750  26.253  44.711  1.00  0.00     0.227 C 
HETATM   18  C   UNL     1       6.700  29.338  48.562  1.00  0.00     0.227 C 
HETATM   19  C   UNL     1      11.346  26.630  48.731  1.00  0.00     0.250 C 
HETATM   20  C   UNL     1       6.756  30.690  49.307  1.00  0.00     0.250 C 
HETATM   21  C   UNL     1       8.739  27.748  45.052  1.00  0.00     0.250 C 
HETATM   22  C   UNL     1       9.729  29.508  50.082  1.00  0.00     0.283 C 
HETATM   23  C   UNL     1       9.562  25.208  46.705  1.00  0.00     0.283 C 
HETATM   24  C   UNL     1       6.921  30.256  46.321  1.00  0.00     0.283 C 
HETATM   25  C   UNL     1      10.373  24.573  49.833  1.00  0.00     0.153 C 
HETATM   26  C   UNL     1       8.065  32.351  50.554  1.00  0.00     0.153 C 
HETATM   27  C   UNL     1       6.349  27.908  44.209  1.00  0.00     0.153 C 
ENDROOT
BRANCH  16  28
HETATM   28  C   UNL     1      12.176  27.622  50.874  1.00  0.00     0.016 C 
HETATM   29  C   UNL     1      13.373  26.834  50.345  1.00  0.00     0.012 C 
HETATM   30  C   UNL     1      11.840  27.192  52.301  1.00  0.00     0.012 C 
ENDBRANCH  16  28
BRANCH  14  31
HETATM   31  C   UNL     1      10.436  31.672  49.056  1.00  0.00     0.014 C 
HETATM   32  C   UNL     1      11.429  31.479  50.204  1.00  0.00     0.012 C 
BRANCH  31  33
HETATM   33  C   UNL     1      11.171  31.576  47.708  1.00  0.00     0.002 C 
HETATM   34  C   UNL     1      10.237  31.484  46.510  1.00  0.00     0.005 C 
ENDBRANCH  31  33
ENDBRANCH  14  31
BRANCH  13  35
HETATM   35  C   UNL     1      10.828  23.149  47.309  1.00  0.00     0.014 C 
HETATM   36  C   UNL     1      10.164  22.663  46.018  1.00  0.00     0.012 C 
BRANCH  35  37
HETATM   37  C   UNL     1      12.241  22.551  47.425  1.00  0.00     0.002 C 
HETATM   38  C   UNL     1      13.325  23.425  46.807  1.00  0.00     0.005 C 
ENDBRANCH  35  37
ENDBRANCH  13  35
BRANCH  18  39
HETATM   39  C   UNL     1       5.280  28.770  48.542  1.00  0.00     0.016 C 
HETATM   40  C   UNL     1       5.175  27.623  47.539  1.00  0.00     0.012 C 
HETATM   41  C   UNL     1       4.869  28.302  49.937  1.00  0.00     0.012 C 
ENDBRANCH  18  39
BRANCH  17  42
HETATM   42  C   UNL     1       9.028  26.056  43.227  1.00  0.00     0.016 C 
HETATM   43  C   UNL     1       8.133  24.961  42.650  1.00  0.00     0.012 C 
HETATM   44  C   UNL     1      10.501  25.720  42.994  1.00  0.00     0.012 C 
ENDBRANCH  17  42
BRANCH  15  45
HETATM   45  C   UNL     1       6.957  30.756  43.845  1.00  0.00     0.014 C 
HETATM   46  C   UNL     1       7.156  32.255  44.098  1.00  0.00     0.012 C 
BRANCH  45  47
HETATM   47  C   UNL     1       7.531  30.384  42.464  1.00  0.00     0.002 C 
HETATM   48  C   UNL     1       6.463  30.053  41.433  1.00  0.00     0.005 C 
ENDBRANCH  45  47
ENDBRANCH  15  45
TORSDOF 9
ENDMDL
MODEL 2
REMARK VINA RESULT:    -5.487      2.028      8.008
REMARK INTER + INTRA:          -8.323
REMARK INTER:                  -8.412
REMARK INTRA:                   0.089
REMARK UNBOUND:                 0.052
REMARK  9 active torsions:
REMARK  status: ('A' for Active; 'I' for Inactive)
REMARK    1  A    between atoms: C_13  and  C_16 
REMARK    2  A    between atoms: C_14  and  C_17 
REMARK    3  A    between atoms: C_15  and  C_18 
REMARK    4  A    between atoms: C_16  and  C_22 
REMARK    5  A    between atoms: C_17  and  C_23 
REMARK    6  A    between atoms: C_18  and  C_24 
REMARK    7  A    between atoms: C_19  and  C_25 
REMARK    8  A    between atoms: C_20  and  C_26 
REMARK    9  A    between atoms: C_21  and  C_27 
ROOT
HETATM    1  O   UNL     1       8.891  25.634  44.612  1.00  0.00    -0.304 OA
HETATM    2  O   UNL     1       9.119  30.181  46.856  1.00  0.00    -0.304 OA
HETATM    3  O   UNL     1       9.649  25.691  48.595  1.00  0.00    -0.304 OA
HETATM    4  O   UNL     1       9.294  28.118  43.988  1.00  0.00    -0.270 OA
HETATM    5  O   UNL     1       8.980  22.338  49.037  1.00  0.00    -0.270 OA
HETATM    6  O   UNL     1      10.798  28.152  46.936  1.00  0.00    -0.270 OA
HETATM    7  O   UNL     1       7.726  23.682  45.004  1.00  0.00    -0.263 OA
HETATM    8  O   UNL     1       7.250  28.913  47.334  1.00  0.00    -0.263 OA
HETATM    9  O   UNL     1      11.202  24.416  49.717  1.00  0.00    -0.263 OA
HETATM   10  N   UNL     1       7.102  28.637  44.544  1.00  0.00    -0.340 N 
HETATM   11  N   UNL     1       9.633  22.975  46.905  1.00  0.00    -0.340 N 
HETATM   12  N   UNL     1      10.862  27.958  49.248  1.00  0.00    -0.340 N 
HETATM   13  C   UNL     1       7.522  29.924  45.134  1.00  0.00     0.190 C 
HETATM   14  C   UNL     1       9.969  24.019  45.914  1.00  0.00     0.190 C 
HETATM   15  C   UNL     1      11.699  26.737  49.184  1.00  0.00     0.190 C 
HETATM   16  C   UNL     1       7.759  26.288  43.999  1.00  0.00     0.227 C 
HETATM   17  C   UNL     1       9.689  29.894  48.149  1.00  0.00     0.227 C 
HETATM   18  C   UNL     1       8.657  24.664  48.513  1.00  0.00     0.227 C 
HETATM   19  C   UNL     1       8.121  27.759  44.145  1.00  0.00     0.250 C 
HETATM   20  C   UNL     1       9.118  23.226  48.187  1.00  0.00     0.250 C 
HETATM   21  C   UNL     1      10.493  28.592  48.052  1.00  0.00     0.250 C 
HETATM   22  C   UNL     1       8.718  24.385  45.132  1.00  0.00     0.283 C 
HETATM   23  C   UNL     1       7.915  29.600  46.570  1.00  0.00     0.283 C 
HETATM   24  C   UNL     1      10.827  25.483  49.247  1.00  0.00     0.283 C 
HETATM   25  C   UNL     1       5.680  28.290  44.537  1.00  0.00     0.153 C 
HETATM   26  C   UNL     1       9.852  21.581  46.519  1.00  0.00     0.153 C 
HETATM   27  C   UNL     1      10.414  28.373  50.581  1.00  0.00     0.153 C 
ENDROOT
BRANCH  16  28
HETATM   28  C   UNL     1       7.658  25.902  42.534  1.00  0.00     0.016 C 
HETATM   29  C   UNL     1       7.729  27.141  41.645  1.00  0.00     0.012 C 
HETATM   30  C   UNL     1       6.370  25.125  42.269  1.00  0.00     0.012 C 
ENDBRANCH  16  28
BRANCH  14  31
HETATM   31  C   UNL     1      11.101  23.658  44.953  1.00  0.00     0.014 C 
HETATM   32  C   UNL     1      10.555  23.557  43.527  1.00  0.00     0.012 C 
BRANCH  31  33
HETATM   33  C   UNL     1      12.255  24.675  45.000  1.00  0.00     0.002 C 
HETATM   34  C   UNL     1      13.002  24.687  46.326  1.00  0.00     0.005 C 
ENDBRANCH  31  33
ENDBRANCH  14  31
BRANCH  13  35
HETATM   35  C   UNL     1       6.493  31.046  45.122  1.00  0.00     0.014 C 
HETATM   36  C   UNL     1       6.261  31.553  46.549  1.00  0.00     0.012 C 
BRANCH  35  37
HETATM   37  C   UNL     1       6.910  32.217  44.216  1.00  0.00     0.002 C 
HETATM   38  C   UNL     1       6.953  31.856  42.737  1.00  0.00     0.005 C 
ENDBRANCH  35  37
ENDBRANCH  13  35
BRANCH  18  39
HETATM   39  C   UNL     1       7.839  24.709  49.804  1.00  0.00     0.016 C 
HETATM   40  C   UNL     1       7.668  26.149  50.281  1.00  0.00     0.012 C 
HETATM   41  C   UNL     1       6.478  24.046  49.600  1.00  0.00     0.012 C 
ENDBRANCH  18  39
BRANCH  17  42
HETATM   42  C   UNL     1      10.612  31.054  48.497  1.00  0.00     0.016 C 
HETATM   43  C   UNL     1       9.957  31.975  49.526  1.00  0.00     0.012 C 
HETATM   44  C   UNL     1      10.990  31.839  47.241  1.00  0.00     0.012 C 
ENDBRANCH  17  42
BRANCH  15  45
HETATM   45  C   UNL     1      12.805  26.704  50.237  1.00  0.00     0.014 C 
HETATM   46  C   UNL     1      13.826  25.614  49.890  1.00  0.00     0.012 C 
BRANCH  45  47
HETATM   47  C   UNL     1      13.523  28.059  50.384  1.00  0.00     0.002 C 
HETATM   48  C   UNL     1      14.121  28.281  51.765  1.00  0.00     0.005 C 
ENDBRANCH  45  47
ENDBRANCH  15  45
TORSDOF 9
ENDMDL
MODEL 3
REMARK VINA RESULT:    -5.454      2.225      6.949
REMARK INTER + INTRA:          -8.271
REMARK INTER:                  -9.554
REMARK INTRA:                   1.283
REMARK UNBOUND:                 0.052
REMARK  9 active torsions:
REMARK  status: ('A' for Active; 'I' for Inactive)
REMARK    1  A    between atoms: C_13  and  C_16 
REMARK    2  A    between atoms: C_14  and  C_17 
REMARK    3  A    between atoms: C_15  and  C_18 
REMARK    4  A    between atoms: C_16  and  C_22 
REMARK    5  A    between atoms: C_17  and  C_23 
REMARK    6  A    between atoms: C_18  and  C_24 
REMARK    7  A    between atoms: C_19  and  C_25 
REMARK    8  A    between atoms: C_20  and  C_26 
REMARK    9  A    between atoms: C_21  and  C_27 
ROOT
HETATM    1  O   UNL     1       9.774  24.848  44.245  1.00  0.00    -0.304 OA
HETATM    2  O   UNL     1       7.641  29.236  42.845  1.00  0.00    -0.304 OA
HETATM    3  O   UNL     1       8.805  27.455  47.196  1.00  0.00    -0.304 OA
HETATM    4  O   UNL     1       9.592  26.368  42.153  1.00  0.00    -0.270 OA
HETATM    5  O   UNL     1       9.104  25.120  49.715  1.00  0.00    -0.270 OA
HETATM    6  O   UNL     1       9.689  28.764  44.434  1.00  0.00    -0.270 OA
HETATM    7  O   UNL     1       9.227  23.175  45.735  1.00  0.00    -0.263 OA
HETATM    8  O   UNL     1       6.239  27.715  43.870  1.00  0.00    -0.263 OA
HETATM    9  O   UNL     1      10.090  27.995  49.027  1.00  0.00    -0.263 OA
HETATM   10  N   UNL     1       7.320  25.923  41.998  1.00  0.00    -0.340 N 
HETATM   11  N   UNL     1      10.323  24.701  47.788  1.00  0.00    -0.340 N 
HETATM   12  N   UNL     1       8.875  29.936  46.264  1.00  0.00    -0.340 N 
HETATM   13  C   UNL     1       7.040  27.319  41.603  1.00  0.00     0.190 C 
HETATM   14  C   UNL     1      10.684  25.024  46.391  1.00  0.00     0.190 C 
HETATM   15  C   UNL     1      10.003  29.504  47.121  1.00  0.00     0.190 C 
HETATM   16  C   UNL     1       8.841  24.381  43.246  1.00  0.00     0.227 C 
HETATM   17  C   UNL     1       7.701  30.040  44.040  1.00  0.00     0.227 C 
HETATM   18  C   UNL     1       8.308  26.225  47.733  1.00  0.00     0.227 C 
HETATM   19  C   UNL     1       8.632  25.628  42.396  1.00  0.00     0.250 C 
HETATM   20  C   UNL     1       9.286  25.316  48.508  1.00  0.00     0.250 C 
HETATM   21  C   UNL     1       8.840  29.518  44.925  1.00  0.00     0.250 C 
HETATM   22  C   UNL     1       9.807  24.212  45.451  1.00  0.00     0.283 C 
HETATM   23  C   UNL     1       6.902  28.087  42.910  1.00  0.00     0.283 C 
HETATM   24  C   UNL     1       9.622  28.263  47.928  1.00  0.00     0.283 C 
HETATM   25  C   UNL     1       6.209  24.975  42.089  1.00  0.00     0.153 C 
HETATM   26  C   UNL     1      11.104  23.667  48.466  1.00  0.00     0.153 C 
HETATM   27  C   UNL     1       7.823  30.722  46.917  1.00  0.00     0.153 C 
ENDROOT
BRANCH  16  28
HETATM   28  C   UNL     1       9.465  23.268  42.424  1.00  0.00     0.016 C 
HETATM   29  C   UNL     1       8.772  21.937  42.705  1.00  0.00     0.012 C 
HETATM   30  C   UNL     1      10.962  23.162  42.707  1.00  0.00     0.012 C 
ENDBRANCH  16  28
BRANCH  14  31
HETATM   31  C   UNL     1      12.156  24.821  46.040  1.00  0.00     0.014 C 
HETATM   32  C   UNL     1      13.036  25.534  47.070  1.00  0.00     0.012 C 
BRANCH  31  33
HETATM   33  C   UNL     1      12.541  23.333  45.966  1.00  0.00     0.002 C 
HETATM   34  C   UNL     1      13.785  23.066  45.130  1.00  0.00     0.005 C 
ENDBRANCH  31  33
ENDBRANCH  14  31
BRANCH  13  35
HETATM   35  C   UNL     1       5.808  27.547  40.738  1.00  0.00     0.014 C 
HETATM   36  C   UNL     1       5.500  29.045  40.660  1.00  0.00     0.012 C 
BRANCH  35  37
HETATM   37  C   UNL     1       5.971  26.974  39.319  1.00  0.00     0.002 C 
HETATM   38  C   UNL     1       4.855  26.019  38.917  1.00  0.00     0.005 C 
ENDBRANCH  35  37
ENDBRANCH  13  35
BRANCH  18  39
HETATM   39  C   UNL     1       7.070  26.555  48.569  1.00  0.00     0.016 C 
HETATM   40  C   UNL     1       6.291  27.709  47.942  1.00  0.00     0.012 C 
HETATM   41  C   UNL     1       6.178  25.323  48.716  1.00  0.00     0.012 C 
ENDBRANCH  18  39
BRANCH  17  42
HETATM   42  C   UNL     1       7.991  31.469  43.603  1.00  0.00     0.016 C 
HETATM   43  C   UNL     1       6.840  32.397  43.992  1.00  0.00     0.012 C 
HETATM   44  C   UNL     1       8.242  31.532  42.096  1.00  0.00     0.012 C 
ENDBRANCH  17  42
BRANCH  15  45
HETATM   45  C   UNL     1      10.541  30.614  48.022  1.00  0.00     0.014 C 
HETATM   46  C   UNL     1      11.083  31.766  47.168  1.00  0.00     0.012 C 
BRANCH  45  47
HETATM   47  C   UNL     1       9.478  31.150  48.999  1.00  0.00     0.002 C 
HETATM   48  C   UNL     1       9.981  32.283  49.881  1.00  0.00     0.005 C 
ENDBRANCH  45  47
ENDBRANCH  15  45
TORSDOF 9
ENDMDL
MODEL 4
REMARK VINA RESULT:    -5.423      2.901      7.596
REMARK INTER + INTRA:          -8.225
REMARK INTER:                  -8.453
REMARK INTRA:                   0.229
REMARK UNBOUND:                 0.052
REMARK  9 active torsions:
REMARK  status: ('A' for Active; 'I' for Inactive)
REMARK    1  A    between atoms: C_13  and  C_16 
REMARK    2  A    between atoms: C_14  and  C_17 
REMARK    3  A    between atoms: C_15  and  C_18 
REMARK    4  A    between atoms: C_16  and  C_22 
REMARK    5  A    between atoms: C_17  and  C_23 
REMARK    6  A    between atoms: C_18  and  C_24 
REMARK    7  A    between atoms: C_19  and  C_25 
REMARK    8  A    between atoms: C_20  and  C_26 
REMARK    9  A    between atoms: C_21  and  C_27 
ROOT
HETATM    1  O   UNL     1       6.454  28.849  43.046  1.00  0.00    -0.304 OA
HETATM    2  O   UNL     1       9.981  26.920  46.146  1.00  0.00    -0.304 OA
HETATM    3  O   UNL     1       5.976  24.996  44.218  1.00  0.00    -0.304 OA
HETATM    4  O   UNL     1       8.916  29.281  43.737  1.00  0.00    -0.270 OA
HETATM    5  O   UNL     1       2.684  24.823  43.207  1.00  0.00    -0.270 OA
HETATM    6  O   UNL     1       8.986  25.976  43.897  1.00  0.00    -0.270 OA
HETATM    7  O   UNL     1       4.154  29.002  43.094  1.00  0.00    -0.263 OA
HETATM    8  O   UNL     1       7.927  27.360  47.104  1.00  0.00    -0.263 OA
HETATM    9  O   UNL     1       5.342  23.225  42.893  1.00  0.00    -0.263 OA
HETATM   10  N   UNL     1       8.236  29.867  45.877  1.00  0.00    -0.340 N 
HETATM   11  N   UNL     1       4.001  26.397  42.127  1.00  0.00    -0.340 N 
HETATM   12  N   UNL     1       8.339  23.915  44.743  1.00  0.00    -0.340 N 
HETATM   13  C   UNL     1       9.407  29.189  46.470  1.00  0.00     0.190 C 
HETATM   14  C   UNL     1       5.272  27.136  41.980  1.00  0.00     0.190 C 
HETATM   15  C   UNL     1       7.686  23.528  43.471  1.00  0.00     0.190 C 
HETATM   16  C   UNL     1       6.633  29.952  43.960  1.00  0.00     0.227 C 
HETATM   17  C   UNL     1       9.711  25.504  46.130  1.00  0.00     0.227 C 
HETATM   18  C   UNL     1       4.654  25.513  44.403  1.00  0.00     0.227 C 
HETATM   19  C   UNL     1       8.035  29.697  44.499  1.00  0.00     0.250 C 
HETATM   20  C   UNL     1       3.699  25.530  43.189  1.00  0.00     0.250 C 
HETATM   21  C   UNL     1       8.979  25.160  44.827  1.00  0.00     0.250 C 
HETATM   22  C   UNL     1       5.185  28.436  42.765  1.00  0.00     0.283 C 
HETATM   23  C   UNL     1       8.992  27.732  46.628  1.00  0.00     0.283 C 
HETATM   24  C   UNL     1       6.192  23.852  43.512  1.00  0.00     0.283 C 
HETATM   25  C   UNL     1       7.286  30.546  46.760  1.00  0.00     0.153 C 
HETATM   26  C   UNL     1       2.986  26.584  41.090  1.00  0.00     0.153 C 
HETATM   27  C   UNL     1       8.198  22.976  45.860  1.00  0.00     0.153 C 
ENDROOT
BRANCH  16  28
HETATM   28  C   UNL     1       6.577  31.270  43.211  1.00  0.00     0.016 C 
HETATM   29  C   UNL     1       7.374  31.185  41.910  1.00  0.00     0.012 C 
HETATM   30  C   UNL     1       7.099  32.410  44.084  1.00  0.00     0.012 C 
ENDBRANCH  16  28
BRANCH  14  31
HETATM   31  C   UNL     1       5.691  27.422  40.539  1.00  0.00     0.014 C 
HETATM   32  C   UNL     1       5.418  28.889  40.202  1.00  0.00     0.012 C 
BRANCH  31  33
HETATM   33  C   UNL     1       7.173  27.095  40.285  1.00  0.00     0.002 C 
HETATM   34  C   UNL     1       7.503  25.616  40.423  1.00  0.00     0.005 C 
ENDBRANCH  31  33
ENDBRANCH  14  31
BRANCH  13  35
HETATM   35  C   UNL     1       9.904  29.732  47.802  1.00  0.00     0.014 C 
HETATM   36  C   UNL     1      10.935  28.771  48.401  1.00  0.00     0.012 C 
BRANCH  35  37
HETATM   37  C   UNL     1      10.515  31.138  47.674  1.00  0.00     0.002 C 
HETATM   38  C   UNL     1      10.560  31.904  48.990  1.00  0.00     0.005 C 
ENDBRANCH  35  37
ENDBRANCH  13  35
BRANCH  18  39
HETATM   39  C   UNL     1       4.034  24.777  45.592  1.00  0.00     0.016 C 
HETATM   40  C   UNL     1       5.090  24.491  46.657  1.00  0.00     0.012 C 
HETATM   41  C   UNL     1       2.881  25.588  46.182  1.00  0.00     0.012 C 
ENDBRANCH  18  39
BRANCH  17  42
HETATM   42  C   UNL     1      11.056  24.793  46.178  1.00  0.00     0.016 C 
HETATM   43  C   UNL     1      11.999  25.488  47.160  1.00  0.00     0.012 C 
HETATM   44  C   UNL     1      11.685  24.731  44.787  1.00  0.00     0.012 C 
ENDBRANCH  17  42
BRANCH  15  45
HETATM   45  C   UNL     1       7.932  22.072  43.080  1.00  0.00     0.014 C 
HETATM   46  C   UNL     1       7.539  21.849  41.615  1.00  0.00     0.012 C 
BRANCH  45  47
HETATM   47  C   UNL     1       9.396  21.641  43.294  1.00  0.00     0.002 C 
HETATM   48  C   UNL     1      10.359  22.243  42.282  1.00  0.00     0.005 C 
ENDBRANCH  45  47
ENDBRANCH  15  45
TORSDOF 9
ENDMDL
MODEL 5
REMARK VINA RESULT:    -5.396      2.699      7.076
REMARK INTER + INTRA:          -8.183
REMARK INTER:                  -8.010
REMARK INTRA:                  -0.173
REMARK UNBOUND:                 0.052
REMARK  9 active torsions:
REMARK  status: ('A' for Active; 'I' for Inactive)
REMARK    1  A    between atoms: C_13  and  C_16 
REMARK    2  A    between atoms: C_14  and  C_17 
REMARK    3  A    between atoms: C_15  and  C_18 
REMARK    4  A    between atoms: C_16  and  C_22 
REMARK    5  A    between atoms: C_17  and  C_23 
REMARK    6  A    between atoms: C_18  and  C_24 
REMARK    7  A    between atoms: C_19  and  C_25 
REMARK    8  A    between atoms: C_20  and  C_26 
REMARK    9  A    between atoms: C_21  and  C_27 
ROOT
HETATM    1  O   UNL     1       7.720  26.926  46.815  1.00  0.00    -0.304 OA
HETATM    2  O   UNL     1       6.976  31.310  49.264  1.00  0.00    -0.304 OA
HETATM    3  O   UNL     1       5.297  29.648  45.036  1.00  0.00    -0.304 OA
HETATM    4  O   UNL     1       7.878  27.890  49.217  1.00  0.00    -0.270 OA
HETATM    5  O   UNL     1       5.370  28.091  41.960  1.00  0.00    -0.270 OA
HETATM    6  O   UNL     1       5.243  29.625  48.217  1.00  0.00    -0.270 OA
HETATM    7  O   UNL     1       8.394  26.344  44.688  1.00  0.00    -0.263 OA
HETATM    8  O   UNL     1       8.310  31.419  47.382  1.00  0.00    -0.263 OA
HETATM    9  O   UNL     1       3.292  29.225  43.988  1.00  0.00    -0.263 OA
HETATM   10  N   UNL     1       9.642  29.255  48.577  1.00  0.00    -0.340 N 
HETATM   11  N   UNL     1       5.787  26.739  43.797  1.00  0.00    -0.340 N 
HETATM   12  N   UNL     1       4.151  31.173  46.877  1.00  0.00    -0.340 N 
HETATM   13  C   UNL     1       9.134  30.360  49.416  1.00  0.00     0.190 C 
HETATM   14  C   UNL     1       6.025  26.564  45.245  1.00  0.00     0.190 C 
HETATM   15  C   UNL     1       3.311  30.128  46.247  1.00  0.00     0.190 C 
HETATM   16  C   UNL     1       9.064  27.213  47.256  1.00  0.00     0.227 C 
HETATM   17  C   UNL     1       5.871  31.910  48.559  1.00  0.00     0.227 C 
HETATM   18  C   UNL     1       6.117  29.241  43.937  1.00  0.00     0.227 C 
HETATM   19  C   UNL     1       8.821  28.125  48.452  1.00  0.00     0.250 C 
HETATM   20  C   UNL     1       5.707  27.980  43.145  1.00  0.00     0.250 C 
HETATM   21  C   UNL     1       5.068  30.800  47.871  1.00  0.00     0.250 C 
HETATM   22  C   UNL     1       7.522  26.584  45.510  1.00  0.00     0.283 C 
HETATM   23  C   UNL     1       8.120  31.093  48.547  1.00  0.00     0.283 C 
HETATM   24  C   UNL     1       3.938  29.651  44.937  1.00  0.00     0.283 C 
HETATM   25  C   UNL     1      10.880  29.450  47.821  1.00  0.00     0.153 C 
HETATM   26  C   UNL     1       5.624  25.532  42.987  1.00  0.00     0.153 C 
HETATM   27  C   UNL     1       4.004  32.533  46.350  1.00  0.00     0.153 C 
ENDROOT
BRANCH  16  28
HETATM   28  C   UNL     1       9.760  25.935  47.688  1.00  0.00     0.016 C 
HETATM   29  C   UNL     1      10.143  26.002  49.165  1.00  0.00     0.012 C 
HETATM   30  C   UNL     1      10.994  25.675  46.826  1.00  0.00     0.012 C 
ENDBRANCH  16  28
BRANCH  14  31
HETATM   31  C   UNL     1       5.402  25.310  45.856  1.00  0.00     0.014 C 
HETATM   32  C   UNL     1       6.505  24.328  46.259  1.00  0.00     0.012 C 
BRANCH  31  33
HETATM   33  C   UNL     1       4.517  25.630  47.073  1.00  0.00     0.002 C 
HETATM   34  C   UNL     1       3.287  26.458  46.731  1.00  0.00     0.005 C 
ENDBRANCH  31  33
ENDBRANCH  14  31
BRANCH  13  35
HETATM   35  C   UNL     1      10.169  31.344  49.943  1.00  0.00     0.014 C 
HETATM   36  C   UNL     1       9.478  32.644  50.368  1.00  0.00     0.012 C 
BRANCH  35  37
HETATM   37  C   UNL     1      10.976  30.775  51.122  1.00  0.00     0.002 C 
HETATM   38  C   UNL     1      12.473  30.695  50.853  1.00  0.00     0.005 C 
ENDBRANCH  35  37
ENDBRANCH  13  35
BRANCH  18  39
HETATM   39  C   UNL     1       6.285  30.450  43.014  1.00  0.00     0.016 C 
HETATM   40  C   UNL     1       6.490  31.724  43.831  1.00  0.00     0.012 C 
HETATM   41  C   UNL     1       7.453  30.234  42.054  1.00  0.00     0.012 C 
ENDBRANCH  18  39
BRANCH  17  42
HETATM   42  C   UNL     1       5.009  32.613  49.599  1.00  0.00     0.016 C 
HETATM   43  C   UNL     1       5.264  34.120  49.583  1.00  0.00     0.012 C 
HETATM   44  C   UNL     1       5.269  32.041  50.992  1.00  0.00     0.012 C 
ENDBRANCH  17  42
BRANCH  15  45
HETATM   45  C   UNL     1       1.858  30.554  46.050  1.00  0.00     0.014 C 
HETATM   46  C   UNL     1       1.013  29.350  45.617  1.00  0.00     0.012 C 
BRANCH  45  47
HETATM   47  C   UNL     1       1.249  31.185  47.317  1.00  0.00     0.002 C 
HETATM   48  C   UNL     1       1.156  30.220  48.490  1.00  0.00     0.005 C 
ENDBRANCH  45  47
ENDBRANCH  15  45
TORSDOF 9
ENDMDL
MODEL 6
REMARK VINA RESULT:    -4.944      1.927      6.120
REMARK INTER + INTRA:          -7.494
REMARK INTER:                  -8.252
REMARK INTRA:                   0.757
REMARK UNBOUND:                 0.052
REMARK  9 active torsions:
REMARK  status: ('A' for Active; 'I' for Inactive)
REMARK    1  A    between atoms: C_13  and  C_16 
REMARK    2  A    between atoms: C_14  and  C_17 
REMARK    3  A    between atoms: C_15  and  C_18 
REMARK    4  A    between atoms: C_16  and  C_22 
REMARK    5  A    between atoms: C_17  and  C_23 
REMARK    6  A    between atoms: C_18  and  C_24 
REMARK    7  A    between atoms: C_19  and  C_25 
REMARK    8  A    between atoms: C_20  and  C_26 
REMARK    9  A    between atoms: C_21  and  C_27 
ROOT
HETATM    1  O   UNL     1      10.216  25.223  45.747  1.00  0.00    -0.304 OA
HETATM    2  O   UNL     1       7.807  29.095  43.517  1.00  0.00    -0.304 OA
HETATM    3  O   UNL     1       8.515  27.987  48.179  1.00  0.00    -0.304 OA
HETATM    4  O   UNL     1      10.168  26.461  43.469  1.00  0.00    -0.270 OA
HETATM    5  O   UNL     1       8.710  26.011  50.997  1.00  0.00    -0.270 OA
HETATM    6  O   UNL     1       9.637  29.087  45.412  1.00  0.00    -0.270 OA
HETATM    7  O   UNL     1       9.656  23.668  47.356  1.00  0.00    -0.263 OA
HETATM    8  O   UNL     1       6.460  27.520  44.534  1.00  0.00    -0.263 OA
HETATM    9  O   UNL     1       9.438  28.899  50.079  1.00  0.00    -0.263 OA
HETATM   10  N   UNL     1       8.014  25.695  43.072  1.00  0.00    -0.340 N 
HETATM   11  N   UNL     1      10.245  25.550  49.320  1.00  0.00    -0.340 N 
HETATM   12  N   UNL     1       8.425  30.334  46.949  1.00  0.00    -0.340 N 
HETATM   13  C   UNL     1       7.631  26.986  42.465  1.00  0.00     0.190 C 
HETATM   14  C   UNL     1      10.768  25.761  47.954  1.00  0.00     0.190 C 
HETATM   15  C   UNL     1       9.457  30.159  47.998  1.00  0.00     0.190 C 
HETATM   16  C   UNL     1       9.505  24.525  44.702  1.00  0.00     0.227 C 
HETATM   17  C   UNL     1       7.592  30.028  44.594  1.00  0.00     0.227 C 
HETATM   18  C   UNL     1       8.093  26.769  48.799  1.00  0.00     0.227 C 
HETATM   19  C   UNL     1       9.278  25.628  43.677  1.00  0.00     0.250 C 
HETATM   20  C   UNL     1       9.046  26.094  49.809  1.00  0.00     0.250 C 
HETATM   21  C   UNL     1       8.640  29.769  45.683  1.00  0.00     0.250 C 
HETATM   22  C   UNL     1      10.145  24.736  47.019  1.00  0.00     0.283 C 
HETATM   23  C   UNL     1       7.209  27.870  43.632  1.00  0.00     0.283 C 
HETATM   24  C   UNL     1       9.110  28.976  48.901  1.00  0.00     0.283 C 
HETATM   25  C   UNL     1       7.022  24.620  43.137  1.00  0.00     0.153 C 
HETATM   26  C   UNL     1      11.034  24.714  50.226  1.00  0.00     0.153 C 
HETATM   27  C   UNL     1       7.202  31.038  47.348  1.00  0.00     0.153 C 
ENDROOT
BRANCH  16  28
HETATM   28  C   UNL     1      10.372  23.422  44.122  1.00  0.00     0.016 C 
HETATM   29  C   UNL     1      10.618  23.657  42.633  1.00  0.00     0.012 C 
HETATM   30  C   UNL     1       9.730  22.055  44.349  1.00  0.00     0.012 C 
ENDBRANCH  16  28
BRANCH  14  31
HETATM   31  C   UNL     1      12.290  25.723  47.832  1.00  0.00     0.014 C 
HETATM   32  C   UNL     1      12.686  25.101  46.491  1.00  0.00     0.012 C 
BRANCH  31  33
HETATM   33  C   UNL     1      12.923  27.119  47.967  1.00  0.00     0.002 C 
HETATM   34  C   UNL     1      13.631  27.341  49.296  1.00  0.00     0.005 C 
ENDBRANCH  31  33
ENDBRANCH  14  31
BRANCH  13  35
HETATM   35  C   UNL     1       6.524  26.946  41.422  1.00  0.00     0.014 C 
HETATM   36  C   UNL     1       6.046  28.369  41.117  1.00  0.00     0.012 C 
BRANCH  35  37
HETATM   37  C   UNL     1       6.966  26.256  40.120  1.00  0.00     0.002 C 
HETATM   38  C   UNL     1       6.020  25.153  39.664  1.00  0.00     0.005 C 
ENDBRANCH  35  37
ENDBRANCH  13  35
BRANCH  18  39
HETATM   39  C   UNL     1       6.714  27.018  49.413  1.00  0.00     0.016 C 
HETATM   40  C   UNL     1       5.907  27.982  48.547  1.00  0.00     0.012 C 
HETATM   41  C   UNL     1       5.961  25.701  49.593  1.00  0.00     0.012 C 
ENDBRANCH  18  39
BRANCH  17  42
HETATM   42  C   UNL     1       7.771  31.425  44.017  1.00  0.00     0.016 C 
HETATM   43  C   UNL     1       6.499  32.252  44.199  1.00  0.00     0.012 C 
HETATM   44  C   UNL     1       8.156  31.354  42.540  1.00  0.00     0.012 C 
ENDBRANCH  17  42
BRANCH  15  45
HETATM   45  C   UNL     1       9.718  31.426  48.810  1.00  0.00     0.014 C 
HETATM   46  C   UNL     1       8.764  31.487  50.008  1.00  0.00     0.012 C 
BRANCH  45  47
HETATM   47  C   UNL     1      11.175  31.522  49.304  1.00  0.00     0.002 C 
HETATM   48  C   UNL     1      12.152  30.707  48.471  1.00  0.00     0.005 C 
ENDBRANCH  45  47
ENDBRANCH  15  45
TORSDOF 9
ENDMDL
MODEL 7
REMARK VINA RESULT:    -4.873      1.681      2.444
REMARK INTER + INTRA:          -7.385
REMARK INTER:                  -8.081
REMARK INTRA:                   0.696
REMARK UNBOUND:                 0.052
REMARK  9 active torsions:
REMARK  status: ('A' for Active; 'I' for Inactive)
REMARK    1  A    between atoms: C_13  and  C_16 
REMARK    2  A    between atoms: C_14  and  C_17 
REMARK    3  A    between atoms: C_15  and  C_18 
REMARK    4  A    between atoms: C_16  and  C_22 
REMARK    5  A    between atoms: C_17  and  C_23 
REMARK    6  A    between atoms: C_18  and  C_24 
REMARK    7  A    between atoms: C_19  and  C_25 
REMARK    8  A    between atoms: C_20  and  C_26 
REMARK    9  A    between atoms: C_21  and  C_27 
ROOT
HETATM    1  O   UNL     1      10.408  27.262  47.555  1.00  0.00    -0.304 OA
HETATM    2  O   UNL     1       8.355  25.606  43.218  1.00  0.00    -0.304 OA
HETATM    3  O   UNL     1       6.983  29.055  46.329  1.00  0.00    -0.304 OA
HETATM    4  O   UNL     1      11.109  25.995  45.404  1.00  0.00    -0.270 OA
HETATM    5  O   UNL     1       6.363  30.544  49.376  1.00  0.00    -0.270 OA
HETATM    6  O   UNL     1       8.921  28.053  44.013  1.00  0.00    -0.270 OA
HETATM    7  O   UNL     1       9.635  27.575  49.706  1.00  0.00    -0.263 OA
HETATM    8  O   UNL     1       7.236  25.022  45.151  1.00  0.00    -0.263 OA
HETATM    9  O   UNL     1       6.526  31.310  46.359  1.00  0.00    -0.263 OA
HETATM   10  N   UNL     1       9.779  24.191  46.006  1.00  0.00    -0.340 N 
HETATM   11  N   UNL     1       8.579  30.028  48.926  1.00  0.00    -0.340 N 
HETATM   12  N   UNL     1       6.798  28.930  43.687  1.00  0.00    -0.340 N 
HETATM   13  C   UNL     1       9.371  23.982  44.602  1.00  0.00     0.190 C 
HETATM   14  C   UNL     1       9.611  29.397  48.078  1.00  0.00     0.190 C 
HETATM   15  C   UNL     1       7.179  30.235  44.277  1.00  0.00     0.190 C 
HETATM   16  C   UNL     1      10.553  25.835  47.723  1.00  0.00     0.227 C 
HETATM   17  C   UNL     1       7.366  26.607  42.905  1.00  0.00     0.227 C 
HETATM   18  C   UNL     1       6.706  28.838  47.716  1.00  0.00     0.227 C 
HETATM   19  C   UNL     1      10.534  25.340  46.282  1.00  0.00     0.250 C 
HETATM   20  C   UNL     1       7.194  29.892  48.733  1.00  0.00     0.250 C 
HETATM   21  C   UNL     1       7.767  27.920  43.587  1.00  0.00     0.250 C 
HETATM   22  C   UNL     1       9.874  27.986  48.580  1.00  0.00     0.283 C 
HETATM   23  C   UNL     1       8.184  24.912  44.384  1.00  0.00     0.283 C 
HETATM   24  C   UNL     1       6.813  30.281  45.761  1.00  0.00     0.283 C 
HETATM   25  C   UNL     1       9.265  23.287  47.037  1.00  0.00     0.153 C 
HETATM   26  C   UNL     1       9.033  30.853  50.046  1.00  0.00     0.153 C 
HETATM   27  C   UNL     1       5.389  28.770  43.313  1.00  0.00     0.153 C 
ENDROOT
BRANCH  16  28
HETATM   28  C   UNL     1      11.882  25.516  48.383  1.00  0.00     0.016 C 
HETATM   29  C   UNL     1      11.669  25.029  49.815  1.00  0.00     0.012 C 
HETATM   30  C   UNL     1      12.800  26.737  48.365  1.00  0.00     0.012 C 
ENDBRANCH  16  28
BRANCH  14  31
HETATM   31  C   UNL     1      10.925  30.170  47.977  1.00  0.00     0.014 C 
HETATM   32  C   UNL     1      10.690  31.500  47.257  1.00  0.00     0.012 C 
BRANCH  31  33
HETATM   33  C   UNL     1      11.560  30.428  49.355  1.00  0.00     0.002 C 
HETATM   34  C   UNL     1      13.075  30.288  49.364  1.00  0.00     0.005 C 
ENDBRANCH  31  33
ENDBRANCH  14  31
BRANCH  13  35
HETATM   35  C   UNL     1       8.991  22.561  44.209  1.00  0.00     0.014 C 
HETATM   36  C   UNL     1       8.013  22.593  43.031  1.00  0.00     0.012 C 
BRANCH  35  37
HETATM   37  C   UNL     1      10.215  21.704  43.845  1.00  0.00     0.002 C 
HETATM   38  C   UNL     1      11.330  22.491  43.168  1.00  0.00     0.005 C 
ENDBRANCH  35  37
ENDBRANCH  13  35
BRANCH  18  39
HETATM   39  C   UNL     1       5.203  28.585  47.851  1.00  0.00     0.016 C 
HETATM   40  C   UNL     1       4.681  27.802  46.649  1.00  0.00     0.012 C 
HETATM   41  C   UNL     1       4.899  27.840  49.150  1.00  0.00     0.012 C 
ENDBRANCH  18  39
BRANCH  17  42
HETATM   42  C   UNL     1       7.370  26.780  41.393  1.00  0.00     0.016 C 
HETATM   43  C   UNL     1       6.078  26.236  40.784  1.00  0.00     0.012 C 
HETATM   44  C   UNL     1       8.585  26.090  40.773  1.00  0.00     0.012 C 
ENDBRANCH  17  42
BRANCH  15  45
HETATM   45  C   UNL     1       6.607  31.433  43.522  1.00  0.00     0.014 C 
HETATM   46  C   UNL     1       7.157  32.736  44.113  1.00  0.00     0.012 C 
BRANCH  45  47
HETATM   47  C   UNL     1       6.911  31.381  42.012  1.00  0.00     0.002 C 
HETATM   48  C   UNL     1       8.392  31.502  41.687  1.00  0.00     0.005 C 
ENDBRANCH  45  47
ENDBRANCH  15  45
TORSDOF 9
ENDMDL
MODEL 8
REMARK VINA RESULT:    -4.768      1.734      6.690
REMARK INTER + INTRA:          -7.225
REMARK INTER:                  -8.131
REMARK INTRA:                   0.906
REMARK UNBOUND:                 0.052
REMARK  9 active torsions:
REMARK  status: ('A' for Active; 'I' for Inactive)
REMARK    1  A    between atoms: C_13  and  C_16 
REMARK    2  A    between atoms: C_14  and  C_17 
REMARK    3  A    between atoms: C_15  and  C_18 
REMARK    4  A    between atoms: C_16  and  C_22 
REMARK    5  A    between atoms: C_17  and  C_23 
REMARK    6  A    between atoms: C_18  and  C_24 
REMARK    7  A    between atoms: C_19  and  C_25 
REMARK    8  A    between atoms: C_20  and  C_26 
REMARK    9  A    between atoms: C_21  and  C_27 
ROOT
HETATM    1  O   UNL     1       5.918  30.019  47.859  1.00  0.00    -0.304 OA
HETATM    2  O   UNL     1       8.940  26.510  45.779  1.00  0.00    -0.304 OA
HETATM    3  O   UNL     1       9.689  29.726  49.322  1.00  0.00    -0.304 OA
HETATM    4  O   UNL     1       5.733  27.815  46.505  1.00  0.00    -0.270 OA
HETATM    5  O   UNL     1       9.568  32.756  50.962  1.00  0.00    -0.270 OA
HETATM    6  O   UNL     1       8.388  27.006  48.307  1.00  0.00    -0.270 OA
HETATM    7  O   UNL     1       6.090  32.284  48.258  1.00  0.00    -0.263 OA
HETATM    8  O   UNL     1       9.426  28.703  45.247  1.00  0.00    -0.263 OA
HETATM    9  O   UNL     1      10.312  29.785  51.537  1.00  0.00    -0.263 OA
HETATM   10  N   UNL     1       6.685  28.845  44.656  1.00  0.00    -0.340 N 
HETATM   11  N   UNL     1       7.528  31.725  50.575  1.00  0.00    -0.340 N 
HETATM   12  N   UNL     1      10.586  27.251  49.010  1.00  0.00    -0.340 N 
HETATM   13  C   UNL     1       7.446  27.623  44.326  1.00  0.00     0.190 C 
HETATM   14  C   UNL     1       6.719  30.650  49.963  1.00  0.00     0.190 C 
HETATM   15  C   UNL     1      10.170  27.652  50.374  1.00  0.00     0.190 C 
HETATM   16  C   UNL     1       5.610  30.201  46.460  1.00  0.00     0.227 C 
HETATM   17  C   UNL     1      10.059  26.443  46.686  1.00  0.00     0.227 C 
HETATM   18  C   UNL     1       9.553  31.143  49.178  1.00  0.00     0.227 C 
HETATM   19  C   UNL     1       5.984  28.847  45.871  1.00  0.00     0.250 C 
HETATM   20  C   UNL     1       8.894  31.935  50.329  1.00  0.00     0.250 C 
HETATM   21  C   UNL     1       9.599  26.927  48.066  1.00  0.00     0.250 C 
HETATM   22  C   UNL     1       6.208  31.120  48.610  1.00  0.00     0.283 C 
HETATM   23  C   UNL     1       8.721  27.706  45.154  1.00  0.00     0.283 C 
HETATM   24  C   UNL     1      10.114  29.175  50.493  1.00  0.00     0.283 C 
HETATM   25  C   UNL     1       6.814  30.017  43.788  1.00  0.00     0.153 C 
HETATM   26  C   UNL     1       6.854  32.635  51.501  1.00  0.00     0.153 C 
HETATM   27  C   UNL     1      12.024  27.295  48.727  1.00  0.00     0.153 C 
ENDROOT
BRANCH  16  28
HETATM   28  C   UNL     1       4.128  30.475  46.280  1.00  0.00     0.016 C 
HETATM   29  C   UNL     1       3.492  29.422  45.375  1.00  0.00     0.012 C 
HETATM   30  C   UNL     1       3.904  31.875  45.710  1.00  0.00     0.012 C 
ENDBRANCH  16  28
BRANCH  14  31
HETATM   31  C   UNL     1       5.556  30.150  50.817  1.00  0.00     0.014 C 
HETATM   32  C   UNL     1       4.228  30.557  50.172  1.00  0.00     0.012 C 
BRANCH  31  33
HETATM   33  C   UNL     1       5.592  28.626  51.022  1.00  0.00     0.002 C 
HETATM   34  C   UNL     1       6.777  28.150  51.850  1.00  0.00     0.005 C 
ENDBRANCH  31  33
ENDBRANCH  14  31
BRANCH  13  35
HETATM   35  C   UNL     1       7.796  27.415  42.859  1.00  0.00     0.014 C 
HETATM   36  C   UNL     1       8.734  26.213  42.715  1.00  0.00     0.012 C 
BRANCH  35  37
HETATM   37  C   UNL     1       6.550  27.210  41.980  1.00  0.00     0.002 C 
HETATM   38  C   UNL     1       6.861  26.609  40.615  1.00  0.00     0.005 C 
ENDBRANCH  35  37
ENDBRANCH  13  35
BRANCH  18  39
HETATM   39  C   UNL     1      10.932  31.706  48.830  1.00  0.00     0.016 C 
HETATM   40  C   UNL     1      12.033  30.851  49.452  1.00  0.00     0.012 C 
HETATM   41  C   UNL     1      11.109  31.791  47.315  1.00  0.00     0.012 C 
ENDBRANCH  18  39
BRANCH  17  42
HETATM   42  C   UNL     1      10.488  24.985  46.758  1.00  0.00     0.016 C 
HETATM   43  C   UNL     1      11.734  24.746  45.906  1.00  0.00     0.012 C 
HETATM   44  C   UNL     1       9.352  24.064  46.313  1.00  0.00     0.012 C 
ENDBRANCH  17  42
BRANCH  15  45
HETATM   45  C   UNL     1      11.029  27.036  51.477  1.00  0.00     0.014 C 
HETATM   46  C   UNL     1      10.299  27.125  52.821  1.00  0.00     0.012 C 
BRANCH  45  47
HETATM   47  C   UNL     1      11.402  25.569  51.186  1.00  0.00     0.002 C 
HETATM   48  C   UNL     1      12.754  25.164  51.754  1.00  0.00     0.005 C 
ENDBRANCH  45  47
ENDBRANCH  15  45
TORSDOF 9
ENDMDL
MODEL 9
REMARK VINA RESULT:    -4.744      2.164      4.710
REMARK INTER + INTRA:          -7.188
REMARK INTER:                  -7.611
REMARK INTRA:                   0.423
REMARK UNBOUND:                 0.052
REMARK  9 active torsions:
REMARK  status: ('A' for Active; 'I' for Inactive)
REMARK    1  A    between atoms: C_13  and  C_16 
REMARK    2  A    between atoms: C_14  and  C_17 
REMARK    3  A    between atoms: C_15  and  C_18 
REMARK    4  A    between atoms: C_16  and  C_22 
REMARK    5  A    between atoms: C_17  and  C_23 
REMARK    6  A    between atoms: C_18  and  C_24 
REMARK    7  A    between atoms: C_19  and  C_25 
REMARK    8  A    between atoms: C_20  and  C_26 
REMARK    9  A    between atoms: C_21  and  C_27 
ROOT
HETATM    1  O   UNL     1      10.558  27.893  49.820  1.00  0.00    -0.304 OA
HETATM    2  O   UNL     1       7.683  29.284  45.875  1.00  0.00    -0.304 OA
HETATM    3  O   UNL     1       6.821  29.236  50.641  1.00  0.00    -0.304 OA
HETATM    4  O   UNL     1      10.832  28.647  47.354  1.00  0.00    -0.270 OA
HETATM    5  O   UNL     1       6.817  28.037  53.873  1.00  0.00    -0.270 OA
HETATM    6  O   UNL     1       8.237  30.554  48.115  1.00  0.00    -0.270 OA
HETATM    7  O   UNL     1      10.285  26.462  51.609  1.00  0.00    -0.263 OA
HETATM    8  O   UNL     1       7.089  27.307  46.909  1.00  0.00    -0.263 OA
HETATM    9  O   UNL     1       6.219  30.678  52.330  1.00  0.00    -0.263 OA
HETATM   10  N   UNL     1       9.814  26.695  46.620  1.00  0.00    -0.340 N 
HETATM   11  N   UNL     1       8.899  28.470  52.949  1.00  0.00    -0.340 N 
HETATM   12  N   UNL     1       6.037  30.926  48.754  1.00  0.00    -0.340 N 
HETATM   13  C   UNL     1       9.108  27.427  45.550  1.00  0.00     0.190 C 
HETATM   14  C   UNL     1       9.751  28.840  51.799  1.00  0.00     0.190 C 
HETATM   15  C   UNL     1       6.448  31.507  50.054  1.00  0.00     0.190 C 
HETATM   16  C   UNL     1      10.843  26.821  48.895  1.00  0.00     0.227 C 
HETATM   17  C   UNL     1       6.578  29.978  46.487  1.00  0.00     0.227 C 
HETATM   18  C   UNL     1       6.889  28.071  51.469  1.00  0.00     0.227 C 
HETATM   19  C   UNL     1      10.527  27.465  47.552  1.00  0.00     0.250 C 
HETATM   20  C   UNL     1       7.522  28.207  52.871  1.00  0.00     0.250 C 
HETATM   21  C   UNL     1       7.028  30.506  47.854  1.00  0.00     0.250 C 
HETATM   22  C   UNL     1      10.225  27.574  51.103  1.00  0.00     0.283 C 
HETATM   23  C   UNL     1       7.839  27.964  46.198  1.00  0.00     0.283 C 
HETATM   24  C   UNL     1       6.434  30.439  51.148  1.00  0.00     0.283 C 
HETATM   25  C   UNL     1       9.621  25.249  46.737  1.00  0.00     0.153 C 
HETATM   26  C   UNL     1       9.539  28.369  54.261  1.00  0.00     0.153 C 
HETATM   27  C   UNL     1       4.596  30.767  48.537  1.00  0.00     0.153 C 
ENDROOT
BRANCH  16  28
HETATM   28  C   UNL     1      12.308  26.434  48.974  1.00  0.00     0.016 C 
HETATM   29  C   UNL     1      12.992  26.634  47.623  1.00  0.00     0.012 C 
HETATM   30  C   UNL     1      12.460  24.987  49.442  1.00  0.00     0.012 C 
ENDBRANCH  16  28
BRANCH  14  31
HETATM   31  C   UNL     1      10.945  29.729  52.140  1.00  0.00     0.014 C 
HETATM   32  C   UNL     1      12.187  28.863  52.367  1.00  0.00     0.012 C 
BRANCH  31  33
HETATM   33  C   UNL     1      11.230  30.771  51.044  1.00  0.00     0.002 C 
HETATM   34  C   UNL     1      10.037  31.662  50.727  1.00  0.00     0.005 C 
ENDBRANCH  31  33
ENDBRANCH  14  31
BRANCH  13  35
HETATM   35  C   UNL     1       8.753  26.631  44.302  1.00  0.00     0.014 C 
HETATM   36  C   UNL     1       7.774  27.431  43.438  1.00  0.00     0.012 C 
BRANCH  35  37
HETATM   37  C   UNL     1       9.992  26.254  43.471  1.00  0.00     0.002 C 
HETATM   38  C   UNL     1       9.782  25.033  42.585  1.00  0.00     0.005 C 
ENDBRANCH  35  37
ENDBRANCH  13  35
BRANCH  18  39
HETATM   39  C   UNL     1       5.482  27.477  51.546  1.00  0.00     0.016 C 
HETATM   40  C   UNL     1       4.754  27.647  50.214  1.00  0.00     0.012 C 
HETATM   41  C   UNL     1       5.543  26.003  51.940  1.00  0.00     0.012 C 
ENDBRANCH  18  39
BRANCH  17  42
HETATM   42  C   UNL     1       6.218  31.139  45.570  1.00  0.00     0.016 C 
HETATM   43  C   UNL     1       5.006  30.790  44.707  1.00  0.00     0.012 C 
HETATM   44  C   UNL     1       7.408  31.522  44.691  1.00  0.00     0.012 C 
ENDBRANCH  17  42
BRANCH  15  45
HETATM   45  C   UNL     1       5.631  32.732  50.457  1.00  0.00     0.014 C 
HETATM   46  C   UNL     1       5.949  33.121  51.905  1.00  0.00     0.012 C 
BRANCH  45  47
HETATM   47  C   UNL     1       5.878  33.939  49.531  1.00  0.00     0.002 C 
HETATM   48  C   UNL     1       4.990  35.134  49.844  1.00  0.00     0.005 C 
ENDBRANCH  45  47
ENDBRANCH  15  45
TORSDOF 9
ENDMDL
MODEL 10
REMARK VINA RESULT:    -4.709      2.619      6.826
REMARK INTER + INTRA:          -7.135
REMARK INTER:                  -7.255
REMARK INTRA:                   0.120
REMARK UNBOUND:                 0.052
REMARK  9 active torsions:
REMARK  status: ('A' for Active; 'I' for Inactive)
REMARK    1  A    between atoms: C_13  and  C_16 
REMARK    2  A    between atoms: C_14  and  C_17 
REMARK    3  A    between atoms: C_15  and  C_18 
REMARK    4  A    between atoms: C_16  and  C_22 
REMARK    5  A    between atoms: C_17  and  C_23 
REMARK    6  A    between atoms: C_18  and  C_24 
REMARK    7  A    between atoms: C_19  and  C_25 
REMARK    8  A    between atoms: C_20  and  C_26 
REMARK    9  A    between atoms: C_21  and  C_27 
ROOT
HETATM    1  O   UNL     1       7.343  25.404  47.777  1.00  0.00    -0.304 OA
HETATM    2  O   UNL     1       7.880  29.979  45.643  1.00  0.00    -0.304 OA
HETATM    3  O   UNL     1       7.416  25.556  43.725  1.00  0.00    -0.304 OA
HETATM    4  O   UNL     1       6.987  27.904  48.366  1.00  0.00    -0.270 OA
HETATM    5  O   UNL     1       7.936  22.169  43.346  1.00  0.00    -0.270 OA
HETATM    6  O   UNL     1       6.121  28.074  45.176  1.00  0.00    -0.270 OA
HETATM    7  O   UNL     1       8.430  23.379  47.581  1.00  0.00    -0.263 OA
HETATM    8  O   UNL     1       9.718  28.587  45.523  1.00  0.00    -0.263 OA
HETATM    9  O   UNL     1       6.042  24.404  42.282  1.00  0.00    -0.263 OA
HETATM   10  N   UNL     1       9.276  28.274  48.278  1.00  0.00    -0.340 N 
HETATM   11  N   UNL     1       6.906  22.828  45.317  1.00  0.00    -0.340 N 
HETATM   12  N   UNL     1       6.516  27.908  42.896  1.00  0.00    -0.340 N 
HETATM   13  C   UNL     1       9.072  29.593  47.646  1.00  0.00     0.190 C 
HETATM   14  C   UNL     1       6.446  23.883  46.244  1.00  0.00     0.190 C 
HETATM   15  C   UNL     1       5.603  26.749  42.759  1.00  0.00     0.190 C 
HETATM   16  C   UNL     1       8.367  25.971  48.622  1.00  0.00     0.227 C 
HETATM   17  C   UNL     1       7.566  29.746  44.256  1.00  0.00     0.227 C 
HETATM   18  C   UNL     1       8.299  24.460  43.981  1.00  0.00     0.227 C 
HETATM   19  C   UNL     1       8.142  27.466  48.441  1.00  0.00     0.250 C 
HETATM   20  C   UNL     1       7.687  23.056  44.172  1.00  0.00     0.250 C 
HETATM   21  C   UNL     1       6.675  28.503  44.157  1.00  0.00     0.250 C 
HETATM   22  C   UNL     1       7.534  24.152  47.272  1.00  0.00     0.283 C 
HETATM   23  C   UNL     1       8.959  29.312  46.154  1.00  0.00     0.283 C 
HETATM   24  C   UNL     1       6.384  25.437  42.844  1.00  0.00     0.283 C 
HETATM   25  C   UNL     1      10.641  27.827  48.563  1.00  0.00     0.153 C 
HETATM   26  C   UNL     1       6.521  21.449  45.616  1.00  0.00     0.153 C 
HETATM   27  C   UNL     1       7.251  28.305  41.691  1.00  0.00     0.153 C 
ENDROOT
BRANCH  16  28
HETATM   28  C   UNL     1       8.142  25.564  50.066  1.00  0.00     0.016 C 
HETATM   29  C   UNL     1       7.808  26.783  50.924  1.00  0.00     0.012 C 
HETATM   30  C   UNL     1       9.368  24.839  50.620  1.00  0.00     0.012 C 
ENDBRANCH  16  28
BRANCH  14  31
HETATM   31  C   UNL     1       5.122  23.593  46.948  1.00  0.00     0.014 C 
HETATM   32  C   UNL     1       5.366  23.382  48.444  1.00  0.00     0.012 C 
BRANCH  31  33
HETATM   33  C   UNL     1       4.090  24.715  46.740  1.00  0.00     0.002 C 
HETATM   34  C   UNL     1       3.853  25.562  47.982  1.00  0.00     0.005 C 
ENDBRANCH  31  33
ENDBRANCH  14  31
BRANCH  13  35
HETATM   35  C   UNL     1      10.150  30.640  47.893  1.00  0.00     0.014 C 
HETATM   36  C   UNL     1      10.328  31.506  46.643  1.00  0.00     0.012 C 
BRANCH  35  37
HETATM   37  C   UNL     1       9.835  31.534  49.105  1.00  0.00     0.002 C 
HETATM   38  C   UNL     1      10.906  31.493  50.187  1.00  0.00     0.005 C 
ENDBRANCH  35  37
ENDBRANCH  13  35
BRANCH  18  39
HETATM   39  C   UNL     1       9.365  24.461  42.883  1.00  0.00     0.016 C 
HETATM   40  C   UNL     1       9.752  25.891  42.512  1.00  0.00     0.012 C 
HETATM   41  C   UNL     1      10.593  23.670  43.328  1.00  0.00     0.012 C 
ENDBRANCH  18  39
BRANCH  17  42
HETATM   42  C   UNL     1       6.813  30.972  43.757  1.00  0.00     0.016 C 
HETATM   43  C   UNL     1       7.645  31.735  42.727  1.00  0.00     0.012 C 
HETATM   44  C   UNL     1       6.437  31.886  44.922  1.00  0.00     0.012 C 
ENDBRANCH  17  42
BRANCH  15  45
HETATM   45  C   UNL     1       4.735  26.804  41.504  1.00  0.00     0.014 C 
HETATM   46  C   UNL     1       3.593  25.788  41.612  1.00  0.00     0.012 C 
BRANCH  45  47
HETATM   47  C   UNL     1       4.156  28.208  41.246  1.00  0.00     0.002 C 
HETATM   48  C   UNL     1       3.969  28.525  39.770  1.00  0.00     0.005 C 
ENDBRANCH  45  47
ENDBRANCH  15  45
TORSDOF 9
ENDMDL
MODEL 11
REMARK VINA RESULT:    -4.662      2.068      7.657
REMARK INTER + INTRA:          -7.063
REMARK INTER:                  -8.420
REMARK INTRA:                   1.357
REMARK UNBOUND:                 0.052
REMARK  9 active torsions:
REMARK  status: ('A' for Active; 'I' for Inactive)
REMARK    1  A    between atoms: C_13  and  C_16 
REMARK    2  A    between atoms: C_14  and  C_17 
REMARK    3  A    between atoms: C_15  and  C_18 
REMARK    4  A    between atoms: C_16  and  C_22 
REMARK    5  A    between atoms: C_17  and  C_23 
REMARK    6  A    between atoms: C_18  and  C_24 
REMARK    7  A    between atoms: C_19  and  C_25 
REMARK    8  A    between atoms: C_20  and  C_26 
REMARK    9  A    between atoms: C_21  and  C_27 
ROOT
HETATM    1  O   UNL     1       6.561  29.120  44.801  1.00  0.00    -0.304 OA
HETATM    2  O   UNL     1       9.698  29.542  48.770  1.00  0.00    -0.304 OA
HETATM    3  O   UNL     1       8.136  25.690  46.284  1.00  0.00    -0.304 OA
HETATM    4  O   UNL     1       8.070  30.897  45.936  1.00  0.00    -0.270 OA
HETATM    5  O   UNL     1       5.904  23.644  44.635  1.00  0.00    -0.270 OA
HETATM    6  O   UNL     1       9.997  28.263  46.487  1.00  0.00    -0.270 OA
HETATM    7  O   UNL     1       4.664  27.889  44.350  1.00  0.00    -0.263 OA
HETATM    8  O   UNL     1       7.613  28.660  49.221  1.00  0.00    -0.263 OA
HETATM    9  O   UNL     1       8.978  23.927  45.068  1.00  0.00    -0.263 OA
HETATM   10  N   UNL     1       6.696  30.904  47.805  1.00  0.00    -0.340 N 
HETATM   11  N   UNL     1       6.279  25.723  43.679  1.00  0.00    -0.340 N 
HETATM   12  N   UNL     1      10.483  26.190  47.411  1.00  0.00    -0.340 N 
HETATM   13  C   UNL     1       7.861  31.028  48.703  1.00  0.00     0.190 C 
HETATM   14  C   UNL     1       6.879  27.073  43.717  1.00  0.00     0.190 C 
HETATM   15  C   UNL     1      10.497  25.533  46.084  1.00  0.00     0.190 C 
HETATM   16  C   UNL     1       5.847  30.089  45.599  1.00  0.00     0.227 C 
HETATM   17  C   UNL     1      10.309  28.240  48.861  1.00  0.00     0.227 C 
HETATM   18  C   UNL     1       6.762  25.324  46.128  1.00  0.00     0.227 C 
HETATM   19  C   UNL     1       6.962  30.691  46.445  1.00  0.00     0.250 C 
HETATM   20  C   UNL     1       6.293  24.813  44.748  1.00  0.00     0.250 C 
HETATM   21  C   UNL     1      10.244  27.571  47.482  1.00  0.00     0.250 C 
HETATM   22  C   UNL     1       5.875  28.048  44.311  1.00  0.00     0.283 C 
HETATM   23  C   UNL     1       8.342  29.602  48.938  1.00  0.00     0.283 C 
HETATM   24  C   UNL     1       9.133  24.914  45.775  1.00  0.00     0.283 C 
HETATM   25  C   UNL     1       5.352  30.867  48.387  1.00  0.00     0.153 C 
HETATM   26  C   UNL     1       5.623  25.309  42.439  1.00  0.00     0.153 C 
HETATM   27  C   UNL     1      10.652  25.315  48.575  1.00  0.00     0.153 C 
ENDROOT
BRANCH  16  28
HETATM   28  C   UNL     1       5.219  31.144  44.708  1.00  0.00     0.016 C 
HETATM   29  C   UNL     1       6.275  32.130  44.212  1.00  0.00     0.012 C 
HETATM   30  C   UNL     1       4.104  31.881  45.448  1.00  0.00     0.012 C 
ENDBRANCH  16  28
BRANCH  14  31
HETATM   31  C   UNL     1       7.382  27.594  42.372  1.00  0.00     0.014 C 
HETATM   32  C   UNL     1       8.156  26.491  41.646  1.00  0.00     0.012 C 
BRANCH  31  33
HETATM   33  C   UNL     1       6.239  28.105  41.478  1.00  0.00     0.002 C 
HETATM   34  C   UNL     1       6.282  29.607  41.232  1.00  0.00     0.005 C 
ENDBRANCH  31  33
ENDBRANCH  14  31
BRANCH  13  35
HETATM   35  C   UNL     1       7.621  31.718  50.039  1.00  0.00     0.014 C 
HETATM   36  C   UNL     1       7.837  30.723  51.182  1.00  0.00     0.012 C 
BRANCH  35  37
HETATM   37  C   UNL     1       8.528  32.945  50.238  1.00  0.00     0.002 C 
HETATM   38  C   UNL     1      10.014  32.611  50.231  1.00  0.00     0.005 C 
ENDBRANCH  35  37
ENDBRANCH  13  35
BRANCH  18  39
HETATM   39  C   UNL     1       6.421  24.328  47.238  1.00  0.00     0.016 C 
HETATM   40  C   UNL     1       7.162  24.685  48.525  1.00  0.00     0.012 C 
HETATM   41  C   UNL     1       4.913  24.289  47.479  1.00  0.00     0.012 C 
ENDBRANCH  18  39
BRANCH  17  42
HETATM   42  C   UNL     1      11.759  28.455  49.271  1.00  0.00     0.016 C 
HETATM   43  C   UNL     1      11.915  28.338  50.786  1.00  0.00     0.012 C 
HETATM   44  C   UNL     1      12.261  29.815  48.785  1.00  0.00     0.012 C 
ENDBRANCH  17  42
BRANCH  15  45
HETATM   45  C   UNL     1      11.623  24.513  45.923  1.00  0.00     0.014 C 
HETATM   46  C   UNL     1      11.726  24.071  44.459  1.00  0.00     0.012 C 
BRANCH  45  47
HETATM   47  C   UNL     1      12.985  25.057  46.396  1.00  0.00     0.002 C 
HETATM   48  C   UNL     1      14.147  24.636  45.508  1.00  0.00     0.005 C 
ENDBRANCH  45  47
ENDBRANCH  15  45
TORSDOF 9
ENDMDL
MODEL 12
REMARK VINA RESULT:    -4.652      4.515      6.842
REMARK INTER + INTRA:          -7.047
REMARK INTER:                  -7.062
REMARK INTRA:                   0.015
REMARK UNBOUND:                 0.052
REMARK  9 active torsions:
REMARK  status: ('A' for Active; 'I' for Inactive)
REMARK    1  A    between atoms: C_13  and  C_16 
REMARK    2  A    between atoms: C_14  and  C_17 
REMARK    3  A    between atoms: C_15  and  C_18 
REMARK    4  A    between atoms: C_16  and  C_22 
REMARK    5  A    between atoms: C_17  and  C_23 
REMARK    6  A    between atoms: C_18  and  C_24 
REMARK    7  A    between atoms: C_19  and  C_25 
REMARK    8  A    between atoms: C_20  and  C_26 
REMARK    9  A    between atoms: C_21  and  C_27 
ROOT
HETATM    1  O   UNL     1       9.991  26.755  55.261  1.00  0.00    -0.304 OA
HETATM    2  O   UNL     1      11.949  28.741  51.020  1.00  0.00    -0.304 OA
HETATM    3  O   UNL     1       7.376  27.908  52.383  1.00  0.00    -0.304 OA
HETATM    4  O   UNL     1      12.169  27.904  54.450  1.00  0.00    -0.270 OA
HETATM    5  O   UNL     1       4.713  26.198  53.749  1.00  0.00    -0.270 OA
HETATM    6  O   UNL     1      10.040  29.635  52.600  1.00  0.00    -0.270 OA
HETATM    7  O   UNL     1       8.509  25.049  55.726  1.00  0.00    -0.263 OA
HETATM    8  O   UNL     1      11.068  26.616  50.825  1.00  0.00    -0.263 OA
HETATM    9  O   UNL     1       5.403  29.049  52.697  1.00  0.00    -0.263 OA
HETATM   10  N   UNL     1      12.646  26.088  53.087  1.00  0.00    -0.340 N 
HETATM   11  N   UNL     1       6.403  26.797  55.221  1.00  0.00    -0.340 N 
HETATM   12  N   UNL     1       8.427  29.876  50.949  1.00  0.00    -0.340 N 
HETATM   13  C   UNL     1      13.158  26.978  52.025  1.00  0.00     0.190 C 
HETATM   14  C   UNL     1       7.743  27.358  55.489  1.00  0.00     0.190 C 
HETATM   15  C   UNL     1       7.383  30.240  51.935  1.00  0.00     0.190 C 
HETATM   16  C   UNL     1      11.093  25.851  55.031  1.00  0.00     0.227 C 
HETATM   17  C   UNL     1      10.807  29.316  50.354  1.00  0.00     0.227 C 
HETATM   18  C   UNL     1       6.854  26.625  52.740  1.00  0.00     0.227 C 
HETATM   19  C   UNL     1      12.034  26.702  54.189  1.00  0.00     0.250 C 
HETATM   20  C   UNL     1       5.887  26.537  53.941  1.00  0.00     0.250 C 
HETATM   21  C   UNL     1       9.729  29.617  51.402  1.00  0.00     0.250 C 
HETATM   22  C   UNL     1       8.759  26.228  55.518  1.00  0.00     0.283 C 
HETATM   23  C   UNL     1      11.933  27.388  51.218  1.00  0.00     0.283 C 
HETATM   24  C   UNL     1       6.575  29.009  52.344  1.00  0.00     0.283 C 
HETATM   25  C   UNL     1      12.673  24.640  52.873  1.00  0.00     0.153 C 
HETATM   26  C   UNL     1       5.554  26.490  56.372  1.00  0.00     0.153 C 
HETATM   27  C   UNL     1       7.989  29.740  49.556  1.00  0.00     0.153 C 
ENDROOT
BRANCH  16  28
HETATM   28  C   UNL     1      11.744  25.471  56.348  1.00  0.00     0.016 C 
HETATM   29  C   UNL     1      13.193  25.953  56.392  1.00  0.00     0.012 C 
HETATM   30  C   UNL     1      11.676  23.961  56.568  1.00  0.00     0.012 C 
ENDBRANCH  16  28
BRANCH  14  31
HETATM   31  C   UNL     1       7.851  28.192  56.764  1.00  0.00     0.014 C 
HETATM   32  C   UNL     1       8.949  27.621  57.665  1.00  0.00     0.012 C 
BRANCH  31  33
HETATM   33  C   UNL     1       8.136  29.675  56.471  1.00  0.00     0.002 C 
HETATM   34  C   UNL     1       6.949  30.417  55.873  1.00  0.00     0.005 C 
ENDBRANCH  31  33
ENDBRANCH  14  31
BRANCH  13  35
HETATM   35  C   UNL     1      14.213  26.392  51.097  1.00  0.00     0.014 C 
HETATM   36  C   UNL     1      14.268  27.201  49.798  1.00  0.00     0.012 C 
BRANCH  35  37
HETATM   37  C   UNL     1      15.609  26.352  51.744  1.00  0.00     0.002 C 
HETATM   38  C   UNL     1      16.357  27.676  51.660  1.00  0.00     0.005 C 
ENDBRANCH  35  37
ENDBRANCH  13  35
BRANCH  18  39
HETATM   39  C   UNL     1       6.238  26.012  51.480  1.00  0.00     0.016 C 
HETATM   40  C   UNL     1       7.054  26.390  50.246  1.00  0.00     0.012 C 
HETATM   41  C   UNL     1       6.141  24.494  51.615  1.00  0.00     0.012 C 
ENDBRANCH  18  39
BRANCH  17  42
HETATM   42  C   UNL     1      11.275  30.607  49.698  1.00  0.00     0.016 C 
HETATM   43  C   UNL     1      11.422  30.423  48.188  1.00  0.00     0.012 C 
HETATM   44  C   UNL     1      12.595  31.075  50.309  1.00  0.00     0.012 C 
ENDBRANCH  17  42
BRANCH  15  45
HETATM   45  C   UNL     1       6.475  31.376  51.467  1.00  0.00     0.014 C 
HETATM   46  C   UNL     1       5.771  32.014  52.669  1.00  0.00     0.012 C 
BRANCH  45  47
HETATM   47  C   UNL     1       7.238  32.458  50.679  1.00  0.00     0.002 C 
HETATM   48  C   UNL     1       6.327  33.424  49.937  1.00  0.00     0.005 C 
ENDBRANCH  45  47
ENDBRANCH  15  45
TORSDOF 9
ENDMDL
MODEL 13
REMARK VINA RESULT:    -4.647      7.583     13.509
REMARK INTER + INTRA:          -7.040
REMARK INTER:                  -7.080
REMARK INTRA:                   0.040
REMARK UNBOUND:                 0.052
REMARK  9 active torsions:
REMARK  status: ('A' for Active; 'I' for Inactive)
REMARK    1  A    between atoms: C_13  and  C_16 
REMARK    2  A    between atoms: C_14  and  C_17 
REMARK    3  A    between atoms: C_15  and  C_18 
REMARK    4  A    between atoms: C_16  and  C_22 
REMARK    5  A    between atoms: C_17  and  C_23 
REMARK    6  A    between atoms: C_18  and  C_24 
REMARK    7  A    between atoms: C_19  and  C_25 
REMARK    8  A    between atoms: C_20  and  C_26 
REMARK    9  A    between atoms: C_21  and  C_27 
ROOT
HETATM    1  O   UNL     1       4.470  21.783  36.546  1.00  0.00    -0.304 OA
HETATM    2  O   UNL     1       5.716  24.919  40.338  1.00  0.00    -0.304 OA
HETATM    3  O   UNL     1       6.728  20.249  39.545  1.00  0.00    -0.304 OA
HETATM    4  O   UNL     1       4.684  24.326  37.007  1.00  0.00    -0.270 OA
HETATM    5  O   UNL     1       6.168  16.970  38.642  1.00  0.00    -0.270 OA
HETATM    6  O   UNL     1       7.220  23.322  38.881  1.00  0.00    -0.270 OA
HETATM    7  O   UNL     1       3.485  19.702  36.412  1.00  0.00    -0.263 OA
HETATM    8  O   UNL     1       4.140  23.308  40.838  1.00  0.00    -0.263 OA
HETATM    9  O   UNL     1       8.549  18.862  39.322  1.00  0.00    -0.263 OA
HETATM   10  N   UNL     1       2.903  24.229  38.492  1.00  0.00    -0.340 N 
HETATM   11  N   UNL     1       5.957  18.543  36.951  1.00  0.00    -0.340 N 
HETATM   12  N   UNL     1       8.176  22.173  40.656  1.00  0.00    -0.340 N 
HETATM   13  C   UNL     1       3.565  25.189  39.399  1.00  0.00     0.190 C 
HETATM   14  C   UNL     1       5.915  19.946  36.491  1.00  0.00     0.190 C 
HETATM   15  C   UNL     1       8.879  21.234  39.750  1.00  0.00     0.190 C 
HETATM   16  C   UNL     1       3.212  22.461  36.752  1.00  0.00     0.227 C 
HETATM   17  C   UNL     1       6.736  24.197  41.056  1.00  0.00     0.227 C 
HETATM   18  C   UNL     1       5.747  19.221  39.377  1.00  0.00     0.227 C 
HETATM   19  C   UNL     1       3.653  23.766  37.401  1.00  0.00     0.250 C 
HETATM   20  C   UNL     1       5.994  18.145  38.298  1.00  0.00     0.250 C 
HETATM   21  C   UNL     1       7.392  23.194  40.099  1.00  0.00     0.250 C 
HETATM   22  C   UNL     1       4.471  20.421  36.472  1.00  0.00     0.283 C 
HETATM   23  C   UNL     1       4.476  24.346  40.281  1.00  0.00     0.283 C 
HETATM   24  C   UNL     1       8.058  19.959  39.555  1.00  0.00     0.283 C 
HETATM   25  C   UNL     1       1.580  23.713  38.848  1.00  0.00     0.153 C 
HETATM   26  C   UNL     1       5.959  17.495  35.931  1.00  0.00     0.153 C 
HETATM   27  C   UNL     1       8.301  21.910  42.093  1.00  0.00     0.153 C 
ENDROOT
BRANCH  16  28
HETATM   28  C   UNL     1       2.533  22.726  35.420  1.00  0.00     0.016 C 
HETATM   29  C   UNL     1       2.541  24.219  35.099  1.00  0.00     0.012 C 
HETATM   30  C   UNL     1       1.104  22.187  35.427  1.00  0.00     0.012 C 
ENDBRANCH  16  28
BRANCH  14  31
HETATM   31  C   UNL     1       6.567  20.200  35.133  1.00  0.00     0.014 C 
HETATM   32  C   UNL     1       5.486  20.404  34.069  1.00  0.00     0.012 C 
BRANCH  31  33
HETATM   33  C   UNL     1       7.513  21.414  35.155  1.00  0.00     0.002 C 
HETATM   34  C   UNL     1       8.707  21.238  36.082  1.00  0.00     0.005 C 
ENDBRANCH  31  33
ENDBRANCH  14  31
BRANCH  13  35
HETATM   35  C   UNL     1       2.653  26.043  40.268  1.00  0.00     0.014 C 
HETATM   36  C   UNL     1       3.095  25.952  41.731  1.00  0.00     0.012 C 
BRANCH  35  37
HETATM   37  C   UNL     1       2.627  27.516  39.823  1.00  0.00     0.002 C 
HETATM   38  C   UNL     1       3.979  28.209  39.933  1.00  0.00     0.005 C 
ENDBRANCH  35  37
ENDBRANCH  13  35
BRANCH  18  39
HETATM   39  C   UNL     1       5.501  18.590  40.749  1.00  0.00     0.016 C 
HETATM   40  C   UNL     1       5.577  19.648  41.847  1.00  0.00     0.012 C 
HETATM   41  C   UNL     1       4.148  17.882  40.779  1.00  0.00     0.012 C 
ENDBRANCH  18  39
BRANCH  17  42
HETATM   42  C   UNL     1       7.761  25.220  41.526  1.00  0.00     0.016 C 
HETATM   43  C   UNL     1       7.570  25.534  43.009  1.00  0.00     0.012 C 
HETATM   44  C   UNL     1       7.669  26.498  40.693  1.00  0.00     0.012 C 
ENDBRANCH  17  42
BRANCH  15  45
HETATM   45  C   UNL     1      10.307  20.918  40.192  1.00  0.00     0.014 C 
HETATM   46  C   UNL     1      11.043  20.160  39.082  1.00  0.00     0.012 C 
BRANCH  45  47
HETATM   47  C   UNL     1      11.102  22.182  40.571  1.00  0.00     0.002 C 
HETATM   48  C   UNL     1      12.001  22.691  39.454  1.00  0.00     0.005 C 
ENDBRANCH  45  47
ENDBRANCH  15  45
TORSDOF 9
ENDMDL
MODEL 14
REMARK VINA RESULT:    -4.575      7.269     12.653
REMARK INTER + INTRA:          -6.930
REMARK INTER:                  -7.539
REMARK INTRA:                   0.609
REMARK UNBOUND:                 0.052
REMARK  9 active torsions:
REMARK  status: ('A' for Active; 'I' for Inactive)
REMARK    1  A    between atoms: C_13  and  C_16 
REMARK    2  A    between atoms: C_14  and  C_17 
REMARK    3  A    between atoms: C_15  and  C_18 
REMARK    4  A    between atoms: C_16  and  C_22 
REMARK    5  A    between atoms: C_17  and  C_23 
REMARK    6  A    between atoms: C_18  and  C_24 
REMARK    7  A    between atoms: C_19  and  C_25 
REMARK    8  A    between atoms: C_20  and  C_26 
REMARK    9  A    between atoms: C_21  and  C_27 
ROOT
HETATM    1  O   UNL     1       8.303  20.738  37.054  1.00  0.00    -0.304 OA
HETATM    2  O   UNL     1       4.372  23.675  38.355  1.00  0.00    -0.304 OA
HETATM    3  O   UNL     1       7.797  21.504  41.005  1.00  0.00    -0.304 OA
HETATM    4  O   UNL     1       6.736  22.511  35.995  1.00  0.00    -0.270 OA
HETATM    5  O   UNL     1       9.929  18.997  42.032  1.00  0.00    -0.270 OA
HETATM    6  O   UNL     1       6.916  23.833  39.024  1.00  0.00    -0.270 OA
HETATM    7  O   UNL     1       9.063  18.658  37.699  1.00  0.00    -0.263 OA
HETATM    8  O   UNL     1       4.170  21.433  38.868  1.00  0.00    -0.263 OA
HETATM    9  O   UNL     1       9.442  22.036  42.523  1.00  0.00    -0.263 OA
HETATM   10  N   UNL     1       4.931  21.067  36.191  1.00  0.00    -0.340 N 
HETATM   11  N   UNL     1      10.293  19.835  39.901  1.00  0.00    -0.340 N 
HETATM   12  N   UNL     1       6.581  23.839  41.320  1.00  0.00    -0.340 N 
HETATM   13  C   UNL     1       4.035  22.184  36.554  1.00  0.00     0.190 C 
HETATM   14  C   UNL     1       9.897  20.693  38.765  1.00  0.00     0.190 C 
HETATM   15  C   UNL     1       8.036  23.792  41.594  1.00  0.00     0.190 C 
HETATM   16  C   UNL     1       7.273  20.192  36.202  1.00  0.00     0.227 C 
HETATM   17  C   UNL     1       4.635  24.005  39.734  1.00  0.00     0.227 C 
HETATM   18  C   UNL     1       8.042  20.094  41.021  1.00  0.00     0.227 C 
HETATM   19  C   UNL     1       6.299  21.358  36.090  1.00  0.00     0.250 C 
HETATM   20  C   UNL     1       9.508  19.607  41.042  1.00  0.00     0.250 C 
HETATM   21  C   UNL     1       6.142  23.880  39.988  1.00  0.00     0.250 C 
HETATM   22  C   UNL     1       9.061  19.876  37.792  1.00  0.00     0.283 C 
HETATM   23  C   UNL     1       4.192  22.352  38.060  1.00  0.00     0.283 C 
HETATM   24  C   UNL     1       8.497  22.350  41.811  1.00  0.00     0.283 C 
HETATM   25  C   UNL     1       4.377  19.715  36.097  1.00  0.00     0.153 C 
HETATM   26  C   UNL     1      11.598  19.177  39.829  1.00  0.00     0.153 C 
HETATM   27  C   UNL     1       5.695  23.764  42.486  1.00  0.00     0.153 C 
ENDROOT
BRANCH  16  28
HETATM   28  C   UNL     1       7.847  19.839  34.843  1.00  0.00     0.016 C 
HETATM   29  C   UNL     1       7.357  20.820  33.779  1.00  0.00     0.012 C 
HETATM   30  C   UNL     1       7.483  18.406  34.459  1.00  0.00     0.012 C 
ENDBRANCH  16  28
BRANCH  14  31
HETATM   31  C   UNL     1      11.054  21.363  38.026  1.00  0.00     0.014 C 
HETATM   32  C   UNL     1      10.605  21.767  36.619  1.00  0.00     0.012 C 
BRANCH  31  33
HETATM   33  C   UNL     1      11.592  22.595  38.775  1.00  0.00     0.002 C 
HETATM   34  C   UNL     1      12.958  23.055  38.288  1.00  0.00     0.005 C 
ENDBRANCH  31  33
ENDBRANCH  14  31
BRANCH  13  35
HETATM   35  C   UNL     1       2.563  22.016  36.204  1.00  0.00     0.014 C 
HETATM   36  C   UNL     1       1.715  22.954  37.068  1.00  0.00     0.012 C 
BRANCH  35  37
HETATM   37  C   UNL     1       2.278  22.280  34.716  1.00  0.00     0.002 C 
HETATM   38  C   UNL     1       0.812  22.571  34.419  1.00  0.00     0.005 C 
ENDBRANCH  35  37
ENDBRANCH  13  35
BRANCH  18  39
HETATM   39  C   UNL     1       7.239  19.500  42.179  1.00  0.00     0.016 C 
HETATM   40  C   UNL     1       5.906  20.228  42.337  1.00  0.00     0.012 C 
HETATM   41  C   UNL     1       7.012  18.005  41.963  1.00  0.00     0.012 C 
ENDBRANCH  18  39
BRANCH  17  42
HETATM   42  C   UNL     1       4.186  25.444  39.942  1.00  0.00     0.016 C 
HETATM   43  C   UNL     1       2.709  25.606  39.582  1.00  0.00     0.012 C 
HETATM   44  C   UNL     1       5.045  26.403  39.118  1.00  0.00     0.012 C 
ENDBRANCH  17  42
BRANCH  15  45
HETATM   45  C   UNL     1       8.467  24.695  42.748  1.00  0.00     0.014 C 
HETATM   46  C   UNL     1       9.945  25.072  42.596  1.00  0.00     0.012 C 
BRANCH  45  47
HETATM   47  C   UNL     1       7.614  25.975  42.848  1.00  0.00     0.002 C 
HETATM   48  C   UNL     1       7.828  26.938  41.690  1.00  0.00     0.005 C 
ENDBRANCH  45  47
ENDBRANCH  15  45
TORSDOF 9
ENDMDL
MODEL 15
REMARK VINA RESULT:    -4.365      2.686      7.451
REMARK INTER + INTRA:          -6.610
REMARK INTER:                  -7.791
REMARK INTRA:                   1.181
REMARK UNBOUND:                 0.052
REMARK  9 active torsions:
REMARK  status: ('A' for Active; 'I' for Inactive)
REMARK    1  A    between atoms: C_13  and  C_16 
REMARK    2  A    between atoms: C_14  and  C_17 
REMARK    3  A    between atoms: C_15  and  C_18 
REMARK    4  A    between atoms: C_16  and  C_22 
REMARK    5  A    between atoms: C_17  and  C_23 
REMARK    6  A    between atoms: C_18  and  C_24 
REMARK    7  A    between atoms: C_19  and  C_25 
REMARK    8  A    between atoms: C_20  and  C_26 
REMARK    9  A    between atoms: C_21  and  C_27 
ROOT
HETATM    1  O   UNL     1       7.192  28.959  52.068  1.00  0.00    -0.304 OA
HETATM    2  O   UNL     1       5.517  31.673  48.118  1.00  0.00    -0.304 OA
HETATM    3  O   UNL     1       9.646  29.249  48.852  1.00  0.00    -0.304 OA
HETATM    4  O   UNL     1       4.954  29.803  51.069  1.00  0.00    -0.270 OA
HETATM    5  O   UNL     1      12.430  28.122  50.546  1.00  0.00    -0.270 OA
HETATM    6  O   UNL     1       6.530  29.242  48.213  1.00  0.00    -0.270 OA
HETATM    7  O   UNL     1       9.107  28.967  53.354  1.00  0.00    -0.263 OA
HETATM    8  O   UNL     1       7.204  32.639  49.364  1.00  0.00    -0.263 OA
HETATM    9  O   UNL     1      10.876  27.550  47.905  1.00  0.00    -0.263 OA
HETATM   10  N   UNL     1       5.546  31.997  51.538  1.00  0.00    -0.340 N 
HETATM   11  N   UNL     1      10.379  27.452  51.396  1.00  0.00    -0.340 N 
HETATM   12  N   UNL     1       8.209  29.598  46.652  1.00  0.00    -0.340 N 
HETATM   13  C   UNL     1       4.949  32.464  50.271  1.00  0.00     0.190 C 
HETATM   14  C   UNL     1       8.902  27.509  51.403  1.00  0.00     0.190 C 
HETATM   15  C   UNL     1       8.787  28.253  46.875  1.00  0.00     0.190 C 
HETATM   16  C   UNL     1       6.624  30.096  52.752  1.00  0.00     0.227 C 
HETATM   17  C   UNL     1       6.439  31.340  47.061  1.00  0.00     0.227 C 
HETATM   18  C   UNL     1      10.558  29.500  49.926  1.00  0.00     0.227 C 
HETATM   19  C   UNL     1       5.614  30.610  51.734  1.00  0.00     0.250 C 
HETATM   20  C   UNL     1      11.207  28.290  50.633  1.00  0.00     0.250 C 
HETATM   21  C   UNL     1       7.060  29.971  47.366  1.00  0.00     0.250 C 
HETATM   22  C   UNL     1       8.449  28.555  52.410  1.00  0.00     0.283 C 
HETATM   23  C   UNL     1       6.039  32.289  49.222  1.00  0.00     0.283 C 
HETATM   24  C   UNL     1       9.922  28.318  47.897  1.00  0.00     0.283 C 
HETATM   25  C   UNL     1       6.153  32.978  52.440  1.00  0.00     0.153 C 
HETATM   26  C   UNL     1      11.021  26.450  52.247  1.00  0.00     0.153 C 
HETATM   27  C   UNL     1       8.941  30.479  45.736  1.00  0.00     0.153 C 
ENDROOT
BRANCH  16  28
HETATM   28  C   UNL     1       5.926  29.651  54.024  1.00  0.00     0.016 C 
HETATM   29  C   UNL     1       6.709  30.104  55.255  1.00  0.00     0.012 C 
HETATM   30  C   UNL     1       5.742  28.134  54.035  1.00  0.00     0.012 C 
ENDBRANCH  16  28
BRANCH  14  31
HETATM   31  C   UNL     1       8.205  26.179  51.681  1.00  0.00     0.014 C 
HETATM   32  C   UNL     1       8.743  25.105  50.732  1.00  0.00     0.012 C 
BRANCH  31  33
HETATM   33  C   UNL     1       8.378  25.721  53.139  1.00  0.00     0.002 C 
HETATM   34  C   UNL     1       7.313  24.735  53.599  1.00  0.00     0.005 C 
ENDBRANCH  31  33
ENDBRANCH  14  31
BRANCH  13  35
HETATM   35  C   UNL     1       4.437  33.898  50.247  1.00  0.00     0.014 C 
HETATM   36  C   UNL     1       5.486  34.812  49.608  1.00  0.00     0.012 C 
BRANCH  35  37
HETATM   37  C   UNL     1       3.101  34.034  49.496  1.00  0.00     0.002 C 
HETATM   38  C   UNL     1       2.335  32.724  49.376  1.00  0.00     0.005 C 
ENDBRANCH  35  37
ENDBRANCH  13  35
BRANCH  18  39
HETATM   39  C   UNL     1      11.615  30.481  49.413  1.00  0.00     0.016 C 
HETATM   40  C   UNL     1      10.973  31.547  48.528  1.00  0.00     0.012 C 
HETATM   41  C   UNL     1      12.358  31.127  50.580  1.00  0.00     0.012 C 
ENDBRANCH  18  39
BRANCH  17  42
HETATM   42  C   UNL     1       5.634  31.274  45.771  1.00  0.00     0.016 C 
HETATM   43  C   UNL     1       6.346  32.030  44.650  1.00  0.00     0.012 C 
HETATM   44  C   UNL     1       4.228  31.834  45.983  1.00  0.00     0.012 C 
ENDBRANCH  17  42
BRANCH  15  45
HETATM   45  C   UNL     1       9.233  27.562  45.588  1.00  0.00     0.014 C 
HETATM   46  C   UNL     1       9.368  26.053  45.822  1.00  0.00     0.012 C 
BRANCH  45  47
HETATM   47  C   UNL     1       8.268  27.819  44.414  1.00  0.00     0.002 C 
HETATM   48  C   UNL     1       6.946  27.076  44.542  1.00  0.00     0.005 C 
ENDBRANCH  45  47
ENDBRANCH  15  45
TORSDOF 9
ENDMDL
MODEL 16
REMARK VINA RESULT:    -4.146      3.621      7.867
REMARK INTER + INTRA:          -6.275
REMARK INTER:                  -6.711
REMARK INTRA:                   0.436
REMARK UNBOUND:                 0.052
REMARK  9 active torsions:
REMARK  status: ('A' for Active; 'I' for Inactive)
REMARK    1  A    between atoms: C_13  and  C_16 
REMARK    2  A    between atoms: C_14  and  C_17 
REMARK    3  A    between atoms: C_15  and  C_18 
REMARK    4  A    between atoms: C_16  and  C_22 
REMARK    5  A    between atoms: C_17  and  C_23 
REMARK    6  A    between atoms: C_18  and  C_24 
REMARK    7  A    between atoms: C_19  and  C_25 
REMARK    8  A    between atoms: C_20  and  C_26 
REMARK    9  A    between atoms: C_21  and  C_27 
ROOT
HETATM    1  O   UNL     1       2.496  29.770  48.695  1.00  0.00    -0.304 OA
HETATM    2  O   UNL     1       7.012  31.060  50.622  1.00  0.00    -0.304 OA
HETATM    3  O   UNL     1       5.774  28.875  46.480  1.00  0.00    -0.304 OA
HETATM    4  O   UNL     1       3.498  31.416  50.430  1.00  0.00    -0.270 OA
HETATM    5  O   UNL     1       4.093  26.706  44.392  1.00  0.00    -0.270 OA
HETATM    6  O   UNL     1       5.979  31.516  48.242  1.00  0.00    -0.270 OA
HETATM    7  O   UNL     1       1.577  27.825  47.864  1.00  0.00    -0.263 OA
HETATM    8  O   UNL     1       6.522  28.803  50.622  1.00  0.00    -0.263 OA
HETATM    9  O   UNL     1       6.015  29.153  44.209  1.00  0.00    -0.263 OA
HETATM   10  N   UNL     1       4.111  29.641  51.793  1.00  0.00    -0.340 N 
HETATM   11  N   UNL     1       2.804  28.337  45.419  1.00  0.00    -0.340 N 
HETATM   12  N   UNL     1       7.721  30.592  47.020  1.00  0.00    -0.340 N 
HETATM   13  C   UNL     1       5.376  30.313  52.154  1.00  0.00     0.190 C 
HETATM   14  C   UNL     1       2.651  29.446  46.384  1.00  0.00     0.190 C 
HETATM   15  C   UNL     1       6.998  30.770  45.739  1.00  0.00     0.190 C 
HETATM   16  C   UNL     1       2.321  29.368  50.070  1.00  0.00     0.227 C 
HETATM   17  C   UNL     1       7.915  30.901  49.509  1.00  0.00     0.227 C 
HETATM   18  C   UNL     1       5.033  27.654  46.393  1.00  0.00     0.227 C 
HETATM   19  C   UNL     1       3.336  30.244  50.792  1.00  0.00     0.250 C 
HETATM   20  C   UNL     1       3.948  27.532  45.302  1.00  0.00     0.250 C 
HETATM   21  C   UNL     1       7.115  31.028  48.208  1.00  0.00     0.250 C 
HETATM   22  C   UNL     1       2.161  28.887  47.711  1.00  0.00     0.283 C 
HETATM   23  C   UNL     1       6.360  29.938  51.054  1.00  0.00     0.283 C 
HETATM   24  C   UNL     1       6.248  29.492  45.362  1.00  0.00     0.283 C 
HETATM   25  C   UNL     1       3.808  28.335  52.381  1.00  0.00     0.153 C 
HETATM   26  C   UNL     1       1.680  28.061  44.524  1.00  0.00     0.153 C 
HETATM   27  C   UNL     1       9.008  29.893  46.951  1.00  0.00     0.153 C 
ENDROOT
BRANCH  16  28
HETATM   28  C   UNL     1       0.911  29.684  50.534  1.00  0.00     0.016 C 
HETATM   29  C   UNL     1       0.936  30.673  51.698  1.00  0.00     0.012 C 
HETATM   30  C   UNL     1       0.175  28.406  50.934  1.00  0.00     0.012 C 
ENDBRANCH  16  28
BRANCH  14  31
HETATM   31  C   UNL     1       1.739  30.582  45.925  1.00  0.00     0.014 C 
HETATM   32  C   UNL     1       0.383  30.472  46.627  1.00  0.00     0.012 C 
BRANCH  31  33
HETATM   33  C   UNL     1       2.352  31.968  46.189  1.00  0.00     0.002 C 
HETATM   34  C   UNL     1       3.749  32.136  45.608  1.00  0.00     0.005 C 
ENDBRANCH  31  33
ENDBRANCH  14  31
BRANCH  13  35
HETATM   35  C   UNL     1       5.967  29.965  53.514  1.00  0.00     0.014 C 
HETATM   36  C   UNL     1       7.382  29.409  53.337  1.00  0.00     0.012 C 
BRANCH  35  37
HETATM   37  C   UNL     1       5.997  31.172  54.468  1.00  0.00     0.002 C 
HETATM   38  C   UNL     1       5.861  32.512  53.758  1.00  0.00     0.005 C 
ENDBRANCH  35  37
ENDBRANCH  13  35
BRANCH  18  39
HETATM   39  C   UNL     1       6.044  26.508  46.307  1.00  0.00     0.016 C 
HETATM   40  C   UNL     1       7.281  26.819  47.145  1.00  0.00     0.012 C 
HETATM   41  C   UNL     1       5.405  25.195  46.759  1.00  0.00     0.012 C 
ENDBRANCH  18  39
BRANCH  17  42
HETATM   42  C   UNL     1       8.942  32.020  49.605  1.00  0.00     0.016 C 
HETATM   43  C   UNL     1      10.292  31.477  50.072  1.00  0.00     0.012 C 
HETATM   44  C   UNL     1       8.455  33.121  50.546  1.00  0.00     0.012 C 
ENDBRANCH  17  42
BRANCH  15  45
HETATM   45  C   UNL     1       7.894  31.249  44.598  1.00  0.00     0.014 C 
HETATM   46  C   UNL     1       8.366  30.053  43.764  1.00  0.00     0.012 C 
BRANCH  45  47
HETATM   47  C   UNL     1       7.192  32.272  43.684  1.00  0.00     0.002 C 
HETATM   48  C   UNL     1       6.922  31.748  42.282  1.00  0.00     0.005 C 
ENDBRANCH  45  47
ENDBRANCH  15  45
TORSDOF 9
ENDMDL
MODEL 17
REMARK VINA RESULT:    -4.095      4.140      8.728
REMARK INTER + INTRA:          -6.198
REMARK INTER:                  -6.637
REMARK INTRA:                   0.438
REMARK UNBOUND:                 0.052
REMARK  9 active torsions:
REMARK  status: ('A' for Active; 'I' for Inactive)
REMARK    1  A    between atoms: C_13  and  C_16 
REMARK    2  A    between atoms: C_14  and  C_17 
REMARK    3  A    between atoms: C_15  and  C_18 
REMARK    4  A    between atoms: C_16  and  C_22 
REMARK    5  A    between atoms: C_17  and  C_23 
REMARK    6  A    between atoms: C_18  and  C_24 
REMARK    7  A    between atoms: C_19  and  C_25 
REMARK    8  A    between atoms: C_20  and  C_26 
REMARK    9  A    between atoms: C_21  and  C_27 
ROOT
HETATM    1  O   UNL     1       7.523  27.097  44.436  1.00  0.00    -0.304 OA
HETATM    2  O   UNL     1       3.075  29.131  45.796  1.00  0.00    -0.304 OA
HETATM    3  O   UNL     1       4.354  26.401  42.004  1.00  0.00    -0.304 OA
HETATM    4  O   UNL     1       6.338  27.998  46.559  1.00  0.00    -0.270 OA
HETATM    5  O   UNL     1       6.284  25.301  39.368  1.00  0.00    -0.270 OA
HETATM    6  O   UNL     1       3.683  26.663  45.103  1.00  0.00    -0.270 OA
HETATM    7  O   UNL     1       8.808  27.125  42.521  1.00  0.00    -0.263 OA
HETATM    8  O   UNL     1       4.120  30.109  43.984  1.00  0.00    -0.263 OA
HETATM    9  O   UNL     1       3.795  24.401  41.014  1.00  0.00    -0.263 OA
HETATM   10  N   UNL     1       6.354  30.147  45.685  1.00  0.00    -0.340 N 
HETATM   11  N   UNL     1       7.223  25.088  41.478  1.00  0.00    -0.340 N 
HETATM   12  N   UNL     1       2.107  26.471  43.411  1.00  0.00    -0.340 N 
HETATM   13  C   UNL     1       5.010  30.415  46.232  1.00  0.00     0.190 C 
HETATM   14  C   UNL     1       7.196  25.335  42.935  1.00  0.00     0.190 C 
HETATM   15  C   UNL     1       2.611  25.138  43.008  1.00  0.00     0.190 C 
HETATM   16  C   UNL     1       7.950  28.414  44.845  1.00  0.00     0.227 C 
HETATM   17  C   UNL     1       2.123  28.472  44.937  1.00  0.00     0.227 C 
HETATM   18  C   UNL     1       5.366  26.749  41.054  1.00  0.00     0.227 C 
HETATM   19  C   UNL     1       6.833  28.833  45.793  1.00  0.00     0.250 C 
HETATM   20  C   UNL     1       6.316  25.638  40.558  1.00  0.00     0.250 C 
HETATM   21  C   UNL     1       2.712  27.127  44.494  1.00  0.00     0.250 C 
HETATM   22  C   UNL     1       7.959  26.615  43.237  1.00  0.00     0.283 C 
HETATM   23  C   UNL     1       4.036  29.889  45.186  1.00  0.00     0.283 C 
HETATM   24  C   UNL     1       3.615  25.266  41.862  1.00  0.00     0.283 C 
HETATM   25  C   UNL     1       7.044  31.206  44.946  1.00  0.00     0.153 C 
HETATM   26  C   UNL     1       8.271  24.209  40.959  1.00  0.00     0.153 C 
HETATM   27  C   UNL     1       1.041  27.044  42.582  1.00  0.00     0.153 C 
ENDROOT
BRANCH  16  28
HETATM   28  C   UNL     1       9.276  28.334  45.579  1.00  0.00     0.016 C 
HETATM   29  C   UNL     1       9.208  27.300  46.701  1.00  0.00     0.012 C 
HETATM   30  C   UNL     1       9.669  29.701  46.135  1.00  0.00     0.012 C 
ENDBRANCH  16  28
BRANCH  14  31
HETATM   31  C   UNL     1       7.732  24.191  43.794  1.00  0.00     0.014 C 
HETATM   32  C   UNL     1       9.075  24.590  44.409  1.00  0.00     0.012 C 
BRANCH  31  33
HETATM   33  C   UNL     1       6.749  23.784  44.906  1.00  0.00     0.002 C 
HETATM   34  C   UNL     1       7.190  24.216  46.297  1.00  0.00     0.005 C 
ENDBRANCH  31  33
ENDBRANCH  14  31
BRANCH  13  35
HETATM   35  C   UNL     1       4.684  31.867  46.555  1.00  0.00     0.014 C 
HETATM   36  C   UNL     1       3.169  32.083  46.501  1.00  0.00     0.012 C 
BRANCH  35  37
HETATM   37  C   UNL     1       5.222  32.299  47.931  1.00  0.00     0.002 C 
HETATM   38  C   UNL     1       4.321  33.292  48.652  1.00  0.00     0.005 C 
ENDBRANCH  35  37
ENDBRANCH  13  35
BRANCH  18  39
HETATM   39  C   UNL     1       4.677  27.459  39.887  1.00  0.00     0.016 C 
HETATM   40  C   UNL     1       3.296  27.960  40.303  1.00  0.00     0.012 C 
HETATM   41  C   UNL     1       5.538  28.615  39.380  1.00  0.00     0.012 C 
ENDBRANCH  18  39
BRANCH  17  42
HETATM   42  C   UNL     1       0.862  28.246  45.760  1.00  0.00     0.016 C 
HETATM   43  C   UNL     1      -0.077  29.446  45.650  1.00  0.00     0.012 C 
HETATM   44  C   UNL     1       1.213  27.974  47.222  1.00  0.00     0.012 C 
ENDBRANCH  17  42
BRANCH  15  45
HETATM   45  C   UNL     1       1.500  24.145  42.670  1.00  0.00     0.014 C 
HETATM   46  C   UNL     1       2.059  22.718  42.658  1.00  0.00     0.012 C 
BRANCH  45  47
HETATM   47  C   UNL     1       0.314  24.228  43.651  1.00  0.00     0.002 C 
HETATM   48  C   UNL     1      -0.833  23.295  43.295  1.00  0.00     0.005 C 
ENDBRANCH  45  47
ENDBRANCH  15  45
TORSDOF 9
ENDMDL
MODEL 18
REMARK VINA RESULT:    -4.049      2.538      8.324
REMARK INTER + INTRA:          -6.127
REMARK INTER:                  -6.811
REMARK INTRA:                   0.684
REMARK UNBOUND:                 0.052
REMARK  9 active torsions:
REMARK  status: ('A' for Active; 'I' for Inactive)
REMARK    1  A    between atoms: C_13  and  C_16 
REMARK    2  A    between atoms: C_14  and  C_17 
REMARK    3  A    between atoms: C_15  and  C_18 
REMARK    4  A    between atoms: C_16  and  C_22 
REMARK    5  A    between atoms: C_17  and  C_23 
REMARK    6  A    between atoms: C_18  and  C_24 
REMARK    7  A    between atoms: C_19  and  C_25 
REMARK    8  A    between atoms: C_20  and  C_26 
REMARK    9  A    between atoms: C_21  and  C_27 
ROOT
HETATM    1  O   UNL     1      10.241  24.635  47.845  1.00  0.00    -0.304 OA
HETATM    2  O   UNL     1      10.026  29.538  49.141  1.00  0.00    -0.304 OA
HETATM    3  O   UNL     1      11.097  25.566  51.698  1.00  0.00    -0.304 OA
HETATM    4  O   UNL     1      10.350  26.972  46.727  1.00  0.00    -0.270 OA
HETATM    5  O   UNL     1      10.815  22.319  52.820  1.00  0.00    -0.270 OA
HETATM    6  O   UNL     1      11.921  27.750  49.535  1.00  0.00    -0.270 OA
HETATM    7  O   UNL     1       9.311  22.692  48.668  1.00  0.00    -0.263 OA
HETATM    8  O   UNL     1       8.323  28.205  49.949  1.00  0.00    -0.263 OA
HETATM    9  O   UNL     1      12.811  24.708  52.970  1.00  0.00    -0.263 OA
HETATM   10  N   UNL     1       8.130  27.363  47.277  1.00  0.00    -0.340 N 
HETATM   11  N   UNL     1      11.335  22.580  50.575  1.00  0.00    -0.340 N 
HETATM   12  N   UNL     1      12.069  28.030  51.834  1.00  0.00    -0.340 N 
HETATM   13  C   UNL     1       8.421  28.779  47.582  1.00  0.00     0.190 C 
HETATM   14  C   UNL     1      11.527  23.434  49.384  1.00  0.00     0.190 C 
HETATM   15  C   UNL     1      13.034  26.914  51.969  1.00  0.00     0.190 C 
HETATM   16  C   UNL     1       9.027  25.033  47.172  1.00  0.00     0.227 C 
HETATM   17  C   UNL     1      10.660  29.576  50.435  1.00  0.00     0.227 C 
HETATM   18  C   UNL     1      10.223  24.446  51.867  1.00  0.00     0.227 C 
HETATM   19  C   UNL     1       9.228  26.533  47.009  1.00  0.00     0.250 C 
HETATM   20  C   UNL     1      10.831  23.028  51.807  1.00  0.00     0.250 C 
HETATM   21  C   UNL     1      11.600  28.370  50.556  1.00  0.00     0.250 C 
HETATM   22  C   UNL     1      10.222  23.504  48.608  1.00  0.00     0.283 C 
HETATM   23  C   UNL     1       8.886  28.791  49.033  1.00  0.00     0.283 C 
HETATM   24  C   UNL     1      12.308  25.614  52.319  1.00  0.00     0.283 C 
HETATM   25  C   UNL     1       6.755  26.877  47.408  1.00  0.00     0.153 C 
HETATM   26  C   UNL     1      11.697  21.167  50.460  1.00  0.00     0.153 C 
HETATM   27  C   UNL     1      11.615  28.655  53.080  1.00  0.00     0.153 C 
ENDROOT
BRANCH  16  28
HETATM   28  C   UNL     1       8.930  24.353  45.818  1.00  0.00     0.016 C 
HETATM   29  C   UNL     1       8.042  23.113  45.900  1.00  0.00     0.012 C 
HETATM   30  C   UNL     1      10.319  23.983  45.299  1.00  0.00     0.012 C 
ENDBRANCH  16  28
BRANCH  14  31
HETATM   31  C   UNL     1      12.664  23.006  48.459  1.00  0.00     0.014 C 
HETATM   32  C   UNL     1      12.111  22.138  47.326  1.00  0.00     0.012 C 
BRANCH  31  33
HETATM   33  C   UNL     1      13.425  24.208  47.872  1.00  0.00     0.002 C 
HETATM   34  C   UNL     1      14.232  24.981  48.905  1.00  0.00     0.005 C 
ENDBRANCH  31  33
ENDBRANCH  14  31
BRANCH  13  35
HETATM   35  C   UNL     1       7.274  29.763  47.401  1.00  0.00     0.014 C 
HETATM   36  C   UNL     1       7.522  31.011  48.254  1.00  0.00     0.012 C 
BRANCH  35  37
HETATM   37  C   UNL     1       7.075  30.170  45.930  1.00  0.00     0.002 C 
HETATM   38  C   UNL     1       8.067  31.221  45.450  1.00  0.00     0.005 C 
ENDBRANCH  35  37
ENDBRANCH  13  35
BRANCH  18  39
HETATM   39  C   UNL     1       9.440  24.665  53.163  1.00  0.00     0.016 C 
HETATM   40  C   UNL     1       9.134  26.147  53.361  1.00  0.00     0.012 C 
HETATM   41  C   UNL     1       8.151  23.846  53.155  1.00  0.00     0.012 C 
ENDBRANCH  18  39
BRANCH  17  42
HETATM   42  C   UNL     1      11.458  30.871  50.503  1.00  0.00     0.016 C 
HETATM   43  C   UNL     1      10.617  32.050  50.015  1.00  0.00     0.012 C 
HETATM   44  C   UNL     1      12.744  30.757  49.686  1.00  0.00     0.012 C 
ENDBRANCH  17  42
BRANCH  15  45
HETATM   45  C   UNL     1      14.165  27.206  52.953  1.00  0.00     0.014 C 
HETATM   46  C   UNL     1      14.926  25.915  53.275  1.00  0.00     0.012 C 
BRANCH  45  47
HETATM   47  C   UNL     1      15.148  28.269  52.427  1.00  0.00     0.002 C 
HETATM   48  C   UNL     1      16.321  27.681  51.657  1.00  0.00     0.005 C 
ENDBRANCH  45  47
ENDBRANCH  15  45
TORSDOF 9
ENDMDL
MODEL 19
REMARK VINA RESULT:    -3.966      3.560      5.847
REMARK INTER + INTRA:          -6.000
REMARK INTER:                  -6.745
REMARK INTRA:                   0.745
REMARK UNBOUND:                 0.052
REMARK  9 active torsions:
REMARK  status: ('A' for Active; 'I' for Inactive)
REMARK    1  A    between atoms: C_13  and  C_16 
REMARK    2  A    between atoms: C_14  and  C_17 
REMARK    3  A    between atoms: C_15  and  C_18 
REMARK    4  A    between atoms: C_16  and  C_22 
REMARK    5  A    between atoms: C_17  and  C_23 
REMARK    6  A    between atoms: C_18  and  C_24 
REMARK    7  A    between atoms: C_19  and  C_25 
REMARK    8  A    between atoms: C_20  and  C_26 
REMARK    9  A    between atoms: C_21  and  C_27 
ROOT
HETATM    1  O   UNL     1       7.958  28.255  53.934  1.00  0.00    -0.304 OA
HETATM    2  O   UNL     1      11.335  29.186  50.260  1.00  0.00    -0.304 OA
HETATM    3  O   UNL     1       6.534  28.551  50.148  1.00  0.00    -0.304 OA
HETATM    4  O   UNL     1      10.338  29.244  53.654  1.00  0.00    -0.270 OA
HETATM    5  O   UNL     1       3.481  27.140  50.906  1.00  0.00    -0.270 OA
HETATM    6  O   UNL     1       9.053  30.376  50.822  1.00  0.00    -0.270 OA
HETATM    7  O   UNL     1       6.321  26.666  54.275  1.00  0.00    -0.263 OA
HETATM    8  O   UNL     1      10.463  27.048  50.312  1.00  0.00    -0.263 OA
HETATM    9  O   UNL     1       4.633  29.660  49.478  1.00  0.00    -0.263 OA
HETATM   10  N   UNL     1      11.154  27.163  53.031  1.00  0.00    -0.340 N 
HETATM   11  N   UNL     1       4.602  28.151  52.667  1.00  0.00    -0.340 N 
HETATM   12  N   UNL     1       8.108  30.134  48.716  1.00  0.00    -0.340 N 
HETATM   13  C   UNL     1      12.040  27.777  52.021  1.00  0.00     0.190 C 
HETATM   14  C   UNL     1       5.800  28.812  53.227  1.00  0.00     0.190 C 
HETATM   15  C   UNL     1       6.812  30.695  49.165  1.00  0.00     0.190 C 
HETATM   16  C   UNL     1       9.025  27.364  54.325  1.00  0.00     0.227 C 
HETATM   17  C   UNL     1      10.516  29.531  49.125  1.00  0.00     0.227 C 
HETATM   18  C   UNL     1       5.857  27.380  50.613  1.00  0.00     0.227 C 
HETATM   19  C   UNL     1      10.238  28.011  53.670  1.00  0.00     0.250 C 
HETATM   20  C   UNL     1       4.537  27.559  51.395  1.00  0.00     0.250 C 
HETATM   21  C   UNL     1       9.165  30.046  49.635  1.00  0.00     0.250 C 
HETATM   22  C   UNL     1       6.687  27.763  53.880  1.00  0.00     0.283 C 
HETATM   23  C   UNL     1      11.183  27.926  50.771  1.00  0.00     0.283 C 
HETATM   24  C   UNL     1       5.851  29.576  49.567  1.00  0.00     0.283 C 
HETATM   25  C   UNL     1      11.177  25.710  53.206  1.00  0.00     0.153 C 
HETATM   26  C   UNL     1       3.399  28.112  53.499  1.00  0.00     0.153 C 
HETATM   27  C   UNL     1       8.161  29.636  47.338  1.00  0.00     0.153 C 
ENDROOT
BRANCH  16  28
HETATM   28  C   UNL     1       9.172  27.351  55.836  1.00  0.00     0.016 C 
HETATM   29  C   UNL     1      10.549  27.868  56.247  1.00  0.00     0.012 C 
HETATM   30  C   UNL     1       8.940  25.946  56.388  1.00  0.00     0.012 C 
ENDBRANCH  16  28
BRANCH  14  31
HETATM   31  C   UNL     1       5.513  29.942  54.213  1.00  0.00     0.014 C 
HETATM   32  C   UNL     1       6.104  29.598  55.582  1.00  0.00     0.012 C 
BRANCH  31  33
HETATM   33  C   UNL     1       6.067  31.294  53.730  1.00  0.00     0.002 C 
HETATM   34  C   UNL     1       5.008  32.383  53.625  1.00  0.00     0.005 C 
ENDBRANCH  31  33
ENDBRANCH  14  31
BRANCH  13  35
HETATM   35  C   UNL     1      13.316  27.017  51.684  1.00  0.00     0.014 C 
HETATM   36  C   UNL     1      13.863  27.495  50.336  1.00  0.00     0.012 C 
BRANCH  35  37
HETATM   37  C   UNL     1      14.396  27.171  52.768  1.00  0.00     0.002 C 
HETATM   38  C   UNL     1      15.484  28.173  52.405  1.00  0.00     0.005 C 
ENDBRANCH  35  37
ENDBRANCH  13  35
BRANCH  18  39
HETATM   39  C   UNL     1       5.673  26.448  49.413  1.00  0.00     0.016 C 
HETATM   40  C   UNL     1       6.851  26.574  48.450  1.00  0.00     0.012 C 
HETATM   41  C   UNL     1       5.511  25.002  49.878  1.00  0.00     0.012 C 
ENDBRANCH  18  39
BRANCH  17  42
HETATM   42  C   UNL     1      11.245  30.633  48.369  1.00  0.00     0.016 C 
HETATM   43  C   UNL     1      12.757  30.504  48.550  1.00  0.00     0.012 C 
HETATM   44  C   UNL     1      10.768  32.010  48.828  1.00  0.00     0.012 C 
ENDBRANCH  17  42
BRANCH  15  45
HETATM   45  C   UNL     1       6.176  31.642  48.149  1.00  0.00     0.014 C 
HETATM   46  C   UNL     1       5.152  30.884  47.297  1.00  0.00     0.012 C 
BRANCH  45  47
HETATM   47  C   UNL     1       5.499  32.855  48.814  1.00  0.00     0.002 C 
HETATM   48  C   UNL     1       6.260  33.391  50.017  1.00  0.00     0.005 C 
ENDBRANCH  45  47
ENDBRANCH  15  45
TORSDOF 9
ENDMDL
MODEL 20
REMARK VINA RESULT:    -3.944      7.674     13.169
REMARK INTER + INTRA:          -5.967
REMARK INTER:                  -7.564
REMARK INTRA:                   1.598
REMARK UNBOUND:                 0.052
REMARK  9 active torsions:
REMARK  status: ('A' for Active; 'I' for Inactive)
REMARK    1  A    between atoms: C_13  and  C_16 
REMARK    2  A    between atoms: C_14  and  C_17 
REMARK    3  A    between atoms: C_15  and  C_18 
REMARK    4  A    between atoms: C_16  and  C_22 
REMARK    5  A    between atoms: C_17  and  C_23 
REMARK    6  A    between atoms: C_18  and  C_24 
REMARK    7  A    between atoms: C_19  and  C_25 
REMARK    8  A    between atoms: C_20  and  C_26 
REMARK    9  A    between atoms: C_21  and  C_27 
ROOT
HETATM    1  O   UNL     1       6.361  21.126  36.406  1.00  0.00    -0.304 OA
HETATM    2  O   UNL     1       3.283  24.658  38.359  1.00  0.00    -0.304 OA
HETATM    3  O   UNL     1       6.919  22.114  40.300  1.00  0.00    -0.304 OA
HETATM    4  O   UNL     1       4.838  23.067  35.609  1.00  0.00    -0.270 OA
HETATM    5  O   UNL     1       8.881  19.364  40.989  1.00  0.00    -0.270 OA
HETATM    6  O   UNL     1       5.910  24.467  38.410  1.00  0.00    -0.270 OA
HETATM    7  O   UNL     1       6.969  18.984  37.009  1.00  0.00    -0.263 OA
HETATM    8  O   UNL     1       2.911  22.493  39.068  1.00  0.00    -0.263 OA
HETATM    9  O   UNL     1       8.935  22.459  41.354  1.00  0.00    -0.263 OA
HETATM   10  N   UNL     1       2.956  21.913  36.321  1.00  0.00    -0.340 N 
HETATM   11  N   UNL     1       8.835  20.055  38.775  1.00  0.00    -0.340 N 
HETATM   12  N   UNL     1       6.137  24.614  40.715  1.00  0.00    -0.340 N 
HETATM   13  C   UNL     1       2.330  23.162  36.798  1.00  0.00     0.190 C 
HETATM   14  C   UNL     1       8.297  20.916  37.702  1.00  0.00     0.190 C 
HETATM   15  C   UNL     1       7.595  24.364  40.649  1.00  0.00     0.190 C 
HETATM   16  C   UNL     1       5.095  20.705  35.857  1.00  0.00     0.227 C 
HETATM   17  C   UNL     1       3.908  25.000  39.612  1.00  0.00     0.227 C 
HETATM   18  C   UNL     1       6.971  20.686  40.362  1.00  0.00     0.227 C 
HETATM   19  C   UNL     1       4.287  21.995  35.887  1.00  0.00     0.250 C 
HETATM   20  C   UNL     1       8.321  19.990  40.080  1.00  0.00     0.250 C 
HETATM   21  C   UNL     1       5.402  24.666  39.521  1.00  0.00     0.250 C 
HETATM   22  C   UNL     1       7.152  20.193  37.010  1.00  0.00     0.283 C 
HETATM   23  C   UNL     1       2.862  23.366  38.211  1.00  0.00     0.283 C 
HETATM   24  C   UNL     1       7.897  22.880  40.858  1.00  0.00     0.283 C 
HETATM   25  C   UNL     1       2.221  20.654  36.457  1.00  0.00     0.153 C 
HETATM   26  C   UNL     1       9.985  19.210  38.453  1.00  0.00     0.153 C 
HETATM   27  C   UNL     1       5.552  24.716  42.056  1.00  0.00     0.153 C 
ENDROOT
BRANCH  16  28
HETATM   28  C   UNL     1       5.276  20.217  34.431  1.00  0.00     0.016 C 
HETATM   29  C   UNL     1       5.115  18.700  34.355  1.00  0.00     0.012 C 
HETATM   30  C   UNL     1       6.640  20.638  33.887  1.00  0.00     0.012 C 
ENDBRANCH  16  28
BRANCH  14  31
HETATM   31  C   UNL     1       9.323  21.379  36.669  1.00  0.00     0.014 C 
HETATM   32  C   UNL     1      10.613  21.803  37.376  1.00  0.00     0.012 C 
BRANCH  31  33
HETATM   33  C   UNL     1       9.633  20.293  35.624  1.00  0.00     0.002 C 
HETATM   34  C   UNL     1      10.348  20.822  34.390  1.00  0.00     0.005 C 
ENDBRANCH  31  33
ENDBRANCH  14  31
BRANCH  13  35
HETATM   35  C   UNL     1       0.808  23.199  36.811  1.00  0.00     0.014 C 
HETATM   36  C   UNL     1       0.321  24.157  37.902  1.00  0.00     0.012 C 
BRANCH  35  37
HETATM   37  C   UNL     1       0.218  23.615  35.452  1.00  0.00     0.002 C 
HETATM   38  C   UNL     1      -0.656  22.544  34.814  1.00  0.00     0.005 C 
ENDBRANCH  35  37
ENDBRANCH  13  35
BRANCH  18  39
HETATM   39  C   UNL     1       6.395  20.262  41.715  1.00  0.00     0.016 C 
HETATM   40  C   UNL     1       5.245  21.181  42.119  1.00  0.00     0.012 C 
HETATM   41  C   UNL     1       5.931  18.808  41.668  1.00  0.00     0.012 C 
ENDBRANCH  18  39
BRANCH  17  42
HETATM   42  C   UNL     1       3.717  26.497  39.812  1.00  0.00     0.016 C 
HETATM   43  C   UNL     1       5.019  27.249  39.537  1.00  0.00     0.012 C 
HETATM   44  C   UNL     1       3.217  26.794  41.225  1.00  0.00     0.012 C 
ENDBRANCH  17  42
BRANCH  15  45
HETATM   45  C   UNL     1       8.405  25.240  41.603  1.00  0.00     0.014 C 
HETATM   46  C   UNL     1       9.878  25.255  41.179  1.00  0.00     0.012 C 
BRANCH  45  47
HETATM   47  C   UNL     1       7.873  26.684  41.677  1.00  0.00     0.002 C 
HETATM   48  C   UNL     1       7.953  27.289  43.070  1.00  0.00     0.005 C 
ENDBRANCH  45  47
ENDBRANCH  15  45
TORSDOF 9
ENDMDL
