MODEL 1
REMARK VINA RESULT:    -9.305      0.000      0.000
REMARK INTER + INTRA:          -8.532
REMARK INTER:                  -9.337
REMARK INTRA:                   0.805
REMARK UNBOUND:                 4.581
REMARK  7 active torsions:
REMARK  status: ('A' for Active; 'I' for Inactive)
REMARK    1  A    between atoms: C_13  and  C_14 
REMARK    2  A    between atoms: C_14  and  C_19 
REMARK    3  A    between atoms: C_15  and  C_20 
REMARK    4  A    between atoms: C_16  and  C_21 
REMARK    5  A    between atoms: C_17  and  C_23 
REMARK    6  A    between atoms: C_18  and  C_26 
REMARK    7  A    between atoms: C_22  and  C_28 
ROOT
HETATM    1  O   UNL     1      13.076  -3.757   3.737  1.00  0.00    -0.304 OA
HETATM    2  O   UNL     1      12.360   0.514   0.814  1.00  0.00    -0.304 OA
HETATM    3  O   UNL     1       9.773  -3.304  -0.221  1.00  0.00    -0.304 OA
HETATM    4  O   UNL     1      14.726  -1.365   1.851  1.00  0.00    -0.270 OA
HETATM    5  O   UNL     1      11.325  -2.266   3.914  1.00  0.00    -0.263 OA
HETATM    6  O   UNL     1      13.108  -3.723   1.145  1.00  0.00    -0.270 OA
HETATM    7  O   UNL     1       9.673  -0.637  -2.061  1.00  0.00    -0.270 OA
HETATM    8  O   UNL     1      12.126   2.749   0.335  1.00  0.00    -0.263 OA
HETATM    9  O   UNL     1      10.680  -3.411  -2.334  1.00  0.00    -0.263 OA
HETATM   10  N   UNL     1      13.412  -0.383   3.494  1.00  0.00    -0.340 N 
HETATM   11  N   UNL     1      11.328  -5.161   0.801  1.00  0.00    -0.340 N 
HETATM   12  N   UNL     1       9.828  -0.117   0.201  1.00  0.00    -0.340 N 
HETATM   13  C   UNL     1      13.603  -1.550   4.380  1.00  0.00     0.190 C 
HETATM   14  C   UNL     1      11.438  -4.976  -0.662  1.00  0.00     0.190 C 
HETATM   15  C   UNL     1      10.254   1.273  -0.065  1.00  0.00     0.190 C 
HETATM   16  C   UNL     1      13.715   0.721   1.260  1.00  0.00     0.227 C 
HETATM   17  C   UNL     1      12.228  -4.750   3.119  1.00  0.00     0.227 C 
HETATM   18  C   UNL     1       8.810  -2.284  -0.542  1.00  0.00     0.227 C 
HETATM   19  C   UNL     1      14.002  -0.432   2.218  1.00  0.00     0.250 C 
HETATM   20  C   UNL     1      12.515  -2.540   4.001  1.00  0.00     0.283 C 
HETATM   21  C   UNL     1      12.261  -4.494   1.610  1.00  0.00     0.250 C 
HETATM   22  C   UNL     1       9.483  -0.945  -0.881  1.00  0.00     0.250 C 
HETATM   23  C   UNL     1      11.671   1.610   0.391  1.00  0.00     0.283 C 
HETATM   24  C   UNL     1      10.606  -3.802  -1.173  1.00  0.00     0.283 C 
HETATM   25  C   UNL     1      12.592   0.727   3.989  1.00  0.00     0.153 C 
HETATM   26  C   UNL     1      10.235  -5.994   1.307  1.00  0.00     0.153 C 
HETATM   27  C   UNL     1       9.612  -0.504   1.596  1.00  0.00     0.153 C 
ENDROOT
BRANCH  17  28
HETATM   28  C   UNL     1      12.831  -6.108   3.447  1.00  0.00     0.016 C 
HETATM   29  C   UNL     1      14.209  -5.947   4.086  1.00  0.00     0.012 C 
HETATM   30  C   UNL     1      11.904  -6.902   4.367  1.00  0.00     0.012 C 
ENDBRANCH  17  28
BRANCH  13  31
HETATM   31  C   UNL     1      13.558  -1.265   5.878  1.00  0.00     0.014 C 
HETATM   32  C   UNL     1      13.594  -2.581   6.658  1.00  0.00     0.012 C 
BRANCH  31  33
HETATM   33  C   UNL     1      14.711  -0.323   6.268  1.00  0.00     0.002 C 
HETATM   34  C   UNL     1      14.349   0.665   7.368  1.00  0.00     0.005 C 
ENDBRANCH  31  33
ENDBRANCH  13  31
BRANCH  14  35
HETATM   35  C   UNL     1      11.105  -6.232  -1.467  1.00  0.00     0.010 C 
HETATM   36  C   UNL     1       9.858  -6.012  -2.320  1.00  0.00     0.012 C 
HETATM   37  C   UNL     1      12.288  -6.640  -2.345  1.00  0.00     0.012 C 
ENDBRANCH  14  35
BRANCH  16  38
HETATM   38  C   UNL     1      14.640   0.689   0.046  1.00  0.00     0.016 C 
HETATM   39  C   UNL     1      15.072   2.103  -0.340  1.00  0.00     0.012 C 
HETATM   40  C   UNL     1      13.957  -0.001  -1.134  1.00  0.00     0.012 C 
ENDBRANCH  16  38
BRANCH  18  41
HETATM   41  C   UNL     1       7.833  -2.744  -1.623  1.00  0.00     0.016 C 
HETATM   42  C   UNL     1       6.801  -1.657  -1.912  1.00  0.00     0.012 C 
HETATM   43  C   UNL     1       7.144  -4.041  -1.207  1.00  0.00     0.012 C 
ENDBRANCH  18  41
BRANCH  15  44
HETATM   44  C   UNL     1       9.254   2.280   0.505  1.00  0.00     0.010 C 
HETATM   45  C   UNL     1       8.855   3.298  -0.560  1.00  0.00     0.012 C 
HETATM   46  C   UNL     1       9.840   2.980   1.728  1.00  0.00     0.012 C 
ENDBRANCH  15  44
TORSDOF 7
ENDMDL
MODEL 2
REMARK VINA RESULT:    -9.126      1.696      8.194
REMARK INTER + INTRA:          -8.280
REMARK INTER:                  -9.305
REMARK INTRA:                   1.025
REMARK UNBOUND:                 4.581
REMARK  7 active torsions:
REMARK  status: ('A' for Active; 'I' for Inactive)
REMARK    1  A    between atoms: C_13  and  C_14 
REMARK    2  A    between atoms: C_14  and  C_19 
REMARK    3  A    between atoms: C_15  and  C_20 
REMARK    4  A    between atoms: C_16  and  C_21 
REMARK    5  A    between atoms: C_17  and  C_23 
REMARK    6  A    between atoms: C_18  and  C_26 
REMARK    7  A    between atoms: C_22  and  C_28 
ROOT
HETATM    1  O   UNL     1       9.213  -0.275  -0.758  1.00  0.00    -0.304 OA
HETATM    2  O   UNL     1      12.443  -4.247   0.282  1.00  0.00    -0.304 OA
HETATM    3  O   UNL     1      12.912  -0.313   2.861  1.00  0.00    -0.304 OA
HETATM    4  O   UNL     1      11.437  -2.506  -2.199  1.00  0.00    -0.270 OA
HETATM    5  O   UNL     1       9.029  -1.750   1.005  1.00  0.00    -0.263 OA
HETATM    6  O   UNL     1      11.791  -0.070  -0.581  1.00  0.00    -0.270 OA
HETATM    7  O   UNL     1      14.973  -2.797   3.165  1.00  0.00    -0.270 OA
HETATM    8  O   UNL     1      13.103  -6.424   0.603  1.00  0.00    -0.263 OA
HETATM    9  O   UNL     1      15.073  -0.024   2.123  1.00  0.00    -0.263 OA
HETATM   10  N   UNL     1       9.788  -3.616  -1.000  1.00  0.00    -0.340 N 
HETATM   11  N   UNL     1      11.856   1.419   1.188  1.00  0.00    -0.340 N 
HETATM   12  N   UNL     1      12.787  -3.526   2.842  1.00  0.00    -0.340 N 
HETATM   13  C   UNL     1       8.818  -2.540  -1.287  1.00  0.00     0.190 C 
HETATM   14  C   UNL     1      13.334   1.369   1.200  1.00  0.00     0.190 C 
HETATM   15  C   UNL     1      13.212  -4.891   2.468  1.00  0.00     0.190 C 
HETATM   16  C   UNL     1      12.131  -4.513  -1.099  1.00  0.00     0.227 C 
HETATM   17  C   UNL     1       9.666   0.783   0.115  1.00  0.00     0.227 C 
HETATM   18  C   UNL     1      13.244  -1.286   3.869  1.00  0.00     0.227 C 
HETATM   19  C   UNL     1      11.098  -3.458  -1.487  1.00  0.00     0.250 C 
HETATM   20  C   UNL     1       9.015  -1.503  -0.193  1.00  0.00     0.283 C 
HETATM   21  C   UNL     1      11.190   0.667   0.209  1.00  0.00     0.250 C 
HETATM   22  C   UNL     1      13.757  -2.596   3.254  1.00  0.00     0.250 C 
HETATM   23  C   UNL     1      12.906  -5.289   1.027  1.00  0.00     0.283 C 
HETATM   24  C   UNL     1      13.880   0.259   2.096  1.00  0.00     0.283 C 
HETATM   25  C   UNL     1       9.331  -4.755  -0.198  1.00  0.00     0.153 C 
HETATM   26  C   UNL     1      11.189   2.217   2.219  1.00  0.00     0.153 C 
HETATM   27  C   UNL     1      11.350  -3.267   2.936  1.00  0.00     0.153 C 
ENDROOT
BRANCH  17  28
HETATM   28  C   UNL     1       9.267   2.097  -0.542  1.00  0.00     0.016 C 
HETATM   29  C   UNL     1       9.551   2.058  -2.043  1.00  0.00     0.012 C 
HETATM   30  C   UNL     1       7.792   2.402  -0.284  1.00  0.00     0.012 C 
ENDBRANCH  17  28
BRANCH  13  31
HETATM   31  C   UNL     1       7.354  -2.960  -1.356  1.00  0.00     0.014 C 
HETATM   32  C   UNL     1       6.474  -1.738  -1.623  1.00  0.00     0.012 C 
BRANCH  31  33
HETATM   33  C   UNL     1       7.172  -4.055  -2.423  1.00  0.00     0.002 C 
HETATM   34  C   UNL     1       5.924  -4.903  -2.223  1.00  0.00     0.005 C 
ENDBRANCH  31  33
ENDBRANCH  13  31
BRANCH  14  35
HETATM   35  C   UNL     1      13.991   2.698   1.569  1.00  0.00     0.010 C 
HETATM   36  C   UNL     1      14.693   2.597   2.922  1.00  0.00     0.012 C 
HETATM   37  C   UNL     1      14.979   3.131   0.486  1.00  0.00     0.012 C 
ENDBRANCH  14  35
BRANCH  16  38
HETATM   38  C   UNL     1      13.408  -4.383  -1.924  1.00  0.00     0.016 C 
HETATM   39  C   UNL     1      13.924  -5.759  -2.341  1.00  0.00     0.012 C 
HETATM   40  C   UNL     1      14.480  -3.625  -1.142  1.00  0.00     0.012 C 
ENDBRANCH  16  38
BRANCH  18  41
HETATM   41  C   UNL     1      14.196  -0.713   4.918  1.00  0.00     0.016 C 
HETATM   42  C   UNL     1      14.554  -1.776   5.955  1.00  0.00     0.012 C 
HETATM   43  C   UNL     1      13.577   0.508   5.594  1.00  0.00     0.012 C 
ENDBRANCH  18  41
BRANCH  15  44
HETATM   44  C   UNL     1      12.656  -5.932   3.441  1.00  0.00     0.010 C 
HETATM   45  C   UNL     1      12.405  -5.304   4.809  1.00  0.00     0.012 C 
HETATM   46  C   UNL     1      13.611  -7.117   3.558  1.00  0.00     0.012 C 
ENDBRANCH  15  44
TORSDOF 7
ENDMDL
MODEL 3
REMARK VINA RESULT:    -9.047      1.925      8.276
REMARK INTER + INTRA:          -8.168
REMARK INTER:                 -10.866
REMARK INTRA:                   2.698
REMARK UNBOUND:                 4.581
REMARK  7 active torsions:
REMARK  status: ('A' for Active; 'I' for Inactive)
REMARK    1  A    between atoms: C_13  and  C_14 
REMARK    2  A    between atoms: C_14  and  C_19 
REMARK    3  A    between atoms: C_15  and  C_20 
REMARK    4  A    between atoms: C_16  and  C_21 
REMARK    5  A    between atoms: C_17  and  C_23 
REMARK    6  A    between atoms: C_18  and  C_26 
REMARK    7  A    between atoms: C_22  and  C_28 
ROOT
HETATM    1  O   UNL     1       8.775  -3.156  -1.233  1.00  0.00    -0.304 OA
HETATM    2  O   UNL     1      13.026  -6.013  -0.205  1.00  0.00    -0.304 OA
HETATM    3  O   UNL     1      12.250  -2.202   2.480  1.00  0.00    -0.304 OA
HETATM    4  O   UNL     1      11.589  -4.575  -2.669  1.00  0.00    -0.270 OA
HETATM    5  O   UNL     1       9.009  -4.673   0.488  1.00  0.00    -0.263 OA
HETATM    6  O   UNL     1      11.169  -2.196  -0.983  1.00  0.00    -0.270 OA
HETATM    7  O   UNL     1      14.954  -3.965   2.778  1.00  0.00    -0.270 OA
HETATM    8  O   UNL     1      14.300  -7.903   0.079  1.00  0.00    -0.263 OA
HETATM    9  O   UNL     1      14.239  -1.258   1.807  1.00  0.00    -0.263 OA
HETATM   10  N   UNL     1      10.327  -6.164  -1.542  1.00  0.00    -0.340 N 
HETATM   11  N   UNL     1      10.754  -0.812   0.823  1.00  0.00    -0.340 N 
HETATM   12  N   UNL     1      13.093  -5.303   2.379  1.00  0.00    -0.340 N 
HETATM   13  C   UNL     1       9.084  -5.417  -1.828  1.00  0.00     0.190 C 
HETATM   14  C   UNL     1      12.179  -0.419   0.873  1.00  0.00     0.190 C 
HETATM   15  C   UNL     1      13.913  -6.467   1.983  1.00  0.00     0.190 C 
HETATM   16  C   UNL     1      12.832  -6.317  -1.601  1.00  0.00     0.227 C 
HETATM   17  C   UNL     1       8.875  -2.039  -0.323  1.00  0.00     0.227 C 
HETATM   18  C   UNL     1      12.840  -3.061   3.472  1.00  0.00     0.227 C 
HETATM   19  C   UNL     1      11.538  -5.607  -1.990  1.00  0.00     0.250 C 
HETATM   20  C   UNL     1       8.943  -4.404  -0.704  1.00  0.00     0.283 C 
HETATM   21  C   UNL     1      10.362  -1.697  -0.192  1.00  0.00     0.250 C 
HETATM   22  C   UNL     1      13.733  -4.139   2.839  1.00  0.00     0.250 C 
HETATM   23  C   UNL     1      13.766  -6.893   0.525  1.00  0.00     0.283 C 
HETATM   24  C   UNL     1      13.016  -1.343   1.755  1.00  0.00     0.283 C 
HETATM   25  C   UNL     1      10.217  -7.412  -0.781  1.00  0.00     0.153 C 
HETATM   26  C   UNL     1       9.861  -0.282   1.855  1.00  0.00     0.153 C 
HETATM   27  C   UNL     1      11.642  -5.487   2.442  1.00  0.00     0.153 C 
ENDROOT
BRANCH  17  28
HETATM   28  C   UNL     1       8.113  -0.884  -0.957  1.00  0.00     0.016 C 
HETATM   29  C   UNL     1       9.006  -0.118  -1.932  1.00  0.00     0.012 C 
HETATM   30  C   UNL     1       6.858  -1.391  -1.667  1.00  0.00     0.012 C 
ENDBRANCH  17  28
BRANCH  13  31
HETATM   31  C   UNL     1       7.815  -6.253  -1.946  1.00  0.00     0.014 C 
HETATM   32  C   UNL     1       7.590  -7.042  -0.655  1.00  0.00     0.012 C 
BRANCH  31  33
HETATM   33  C   UNL     1       6.620  -5.348  -2.293  1.00  0.00     0.002 C 
HETATM   34  C   UNL     1       5.486  -5.415  -1.279  1.00  0.00     0.005 C 
ENDBRANCH  31  33
ENDBRANCH  13  31
BRANCH  14  35
HETATM   35  C   UNL     1      12.402   1.034   1.292  1.00  0.00     0.010 C 
HETATM   36  C   UNL     1      13.856   1.444   1.066  1.00  0.00     0.012 C 
HETATM   37  C   UNL     1      11.460   1.966   0.531  1.00  0.00     0.012 C 
ENDBRANCH  14  35
BRANCH  16  38
HETATM   38  C   UNL     1      14.027  -5.786  -2.388  1.00  0.00     0.016 C 
HETATM   39  C   UNL     1      15.055  -6.892  -2.619  1.00  0.00     0.012 C 
HETATM   40  C   UNL     1      14.667  -4.603  -1.664  1.00  0.00     0.012 C 
ENDBRANCH  16  38
BRANCH  18  41
HETATM   41  C   UNL     1      13.558  -2.265   4.561  1.00  0.00     0.016 C 
HETATM   42  C   UNL     1      13.902  -3.164   5.746  1.00  0.00     0.012 C 
HETATM   43  C   UNL     1      12.702  -1.083   5.013  1.00  0.00     0.012 C 
ENDBRANCH  18  41
BRANCH  15  44
HETATM   44  C   UNL     1      13.677  -7.656   2.915  1.00  0.00     0.010 C 
HETATM   45  C   UNL     1      13.774  -7.219   4.374  1.00  0.00     0.012 C 
HETATM   46  C   UNL     1      14.673  -8.772   2.619  1.00  0.00     0.012 C 
ENDBRANCH  15  44
TORSDOF 7
ENDMDL
MODEL 4
REMARK VINA RESULT:    -8.680      1.956      7.525
REMARK INTER + INTRA:          -7.652
REMARK INTER:                 -10.063
REMARK INTRA:                   2.412
REMARK UNBOUND:                 4.581
REMARK  7 active torsions:
REMARK  status: ('A' for Active; 'I' for Inactive)
REMARK    1  A    between atoms: C_13  and  C_14 
REMARK    2  A    between atoms: C_14  and  C_19 
REMARK    3  A    between atoms: C_15  and  C_20 
REMARK    4  A    between atoms: C_16  and  C_21 
REMARK    5  A    between atoms: C_17  and  C_23 
REMARK    6  A    between atoms: C_18  and  C_26 
REMARK    7  A    between atoms: C_22  and  C_28 
ROOT
HETATM    1  O   UNL     1       8.825  -3.549  -1.377  1.00  0.00    -0.304 OA
HETATM    2  O   UNL     1      13.281  -3.667   1.347  1.00  0.00    -0.304 OA
HETATM    3  O   UNL     1      10.078  -0.399   2.532  1.00  0.00    -0.304 OA
HETATM    4  O   UNL     1      12.275  -3.561  -1.683  1.00  0.00    -0.270 OA
HETATM    5  O   UNL     1       9.107  -4.447   0.728  1.00  0.00    -0.263 OA
HETATM    6  O   UNL     1      10.327  -1.487  -0.920  1.00  0.00    -0.270 OA
HETATM    7  O   UNL     1      13.008  -0.485   3.918  1.00  0.00    -0.270 OA
HETATM    8  O   UNL     1      15.075  -4.583   2.452  1.00  0.00    -0.263 OA
HETATM    9  O   UNL     1      11.555   1.300   2.049  1.00  0.00    -0.263 OA
HETATM   10  N   UNL     1      11.535  -5.368  -0.428  1.00  0.00    -0.340 N 
HETATM   11  N   UNL     1       8.775  -0.236   0.254  1.00  0.00    -0.340 N 
HETATM   12  N   UNL     1      12.166  -2.622   3.550  1.00  0.00    -0.340 N 
HETATM   13  C   UNL     1      10.266  -5.406  -1.185  1.00  0.00     0.190 C 
HETATM   14  C   UNL     1       9.779   0.824   0.488  1.00  0.00     0.190 C 
HETATM   15  C   UNL     1      13.491  -3.258   3.708  1.00  0.00     0.190 C 
HETATM   16  C   UNL     1      13.717  -4.244   0.100  1.00  0.00     0.227 C 
HETATM   17  C   UNL     1       8.119  -2.407  -0.846  1.00  0.00     0.227 C 
HETATM   18  C   UNL     1      10.615  -0.674   3.839  1.00  0.00     0.227 C 
HETATM   19  C   UNL     1      12.455  -4.355  -0.752  1.00  0.00     0.250 C 
HETATM   20  C   UNL     1       9.332  -4.440  -0.475  1.00  0.00     0.283 C 
HETATM   21  C   UNL     1       9.170  -1.346  -0.508  1.00  0.00     0.250 C 
HETATM   22  C   UNL     1      12.042  -1.239   3.765  1.00  0.00     0.250 C 
HETATM   23  C   UNL     1      14.039  -3.925   2.449  1.00  0.00     0.283 C 
HETATM   24  C   UNL     1      10.587   0.602   1.764  1.00  0.00     0.283 C 
HETATM   25  C   UNL     1      11.732  -6.363   0.631  1.00  0.00     0.153 C 
HETATM   26  C   UNL     1       7.453  -0.074   0.863  1.00  0.00     0.153 C 
HETATM   27  C   UNL     1      11.012  -3.501   3.353  1.00  0.00     0.153 C 
ENDROOT
BRANCH  17  28
HETATM   28  C   UNL     1       7.191  -1.912  -1.945  1.00  0.00     0.016 C 
HETATM   29  C   UNL     1       6.535  -3.088  -2.667  1.00  0.00     0.012 C 
HETATM   30  C   UNL     1       6.128  -0.975  -1.373  1.00  0.00     0.012 C 
ENDBRANCH  17  28
BRANCH  13  31
HETATM   31  C   UNL     1       9.608  -6.775  -1.315  1.00  0.00     0.014 C 
HETATM   32  C   UNL     1       8.089  -6.616  -1.390  1.00  0.00     0.012 C 
BRANCH  31  33
HETATM   33  C   UNL     1      10.178  -7.518  -2.537  1.00  0.00     0.002 C 
HETATM   34  C   UNL     1      11.070  -8.697  -2.175  1.00  0.00     0.005 C 
ENDBRANCH  31  33
ENDBRANCH  13  31
BRANCH  14  35
HETATM   35  C   UNL     1       9.194   2.236   0.488  1.00  0.00     0.010 C 
HETATM   36  C   UNL     1       9.572   2.977   1.769  1.00  0.00     0.012 C 
HETATM   37  C   UNL     1       9.664   3.016  -0.740  1.00  0.00     0.012 C 
ENDBRANCH  14  35
BRANCH  16  38
HETATM   38  C   UNL     1      14.747  -3.314  -0.535  1.00  0.00     0.016 C 
HETATM   39  C   UNL     1      14.247  -1.871  -0.531  1.00  0.00     0.012 C 
HETATM   40  C   UNL     1      15.073  -3.763  -1.959  1.00  0.00     0.012 C 
ENDBRANCH  16  38
BRANCH  18  41
HETATM   41  C   UNL     1      10.506   0.536   4.765  1.00  0.00     0.016 C 
HETATM   42  C   UNL     1      11.004   0.188   6.165  1.00  0.00     0.012 C 
HETATM   43  C   UNL     1       9.066   1.043   4.818  1.00  0.00     0.012 C 
ENDBRANCH  18  41
BRANCH  15  44
HETATM   44  C   UNL     1      13.500  -4.240   4.880  1.00  0.00     0.010 C 
HETATM   45  C   UNL     1      14.595  -3.871   5.877  1.00  0.00     0.012 C 
HETATM   46  C   UNL     1      13.685  -5.669   4.379  1.00  0.00     0.012 C 
ENDBRANCH  15  44
TORSDOF 7
ENDMDL
MODEL 5
REMARK VINA RESULT:    -8.299      1.448      1.847
REMARK INTER + INTRA:          -7.115
REMARK INTER:                  -8.180
REMARK INTRA:                   1.065
REMARK UNBOUND:                 4.581
REMARK  7 active torsions:
REMARK  status: ('A' for Active; 'I' for Inactive)
REMARK    1  A    between atoms: C_13  and  C_14 
REMARK    2  A    between atoms: C_14  and  C_19 
REMARK    3  A    between atoms: C_15  and  C_20 
REMARK    4  A    between atoms: C_16  and  C_21 
REMARK    5  A    between atoms: C_17  and  C_23 
REMARK    6  A    between atoms: C_18  and  C_26 
REMARK    7  A    between atoms: C_22  and  C_28 
ROOT
HETATM    1  O   UNL     1      13.179  -1.865   4.675  1.00  0.00    -0.304 OA
HETATM    2  O   UNL     1      12.042   1.589   0.924  1.00  0.00    -0.304 OA
HETATM    3  O   UNL     1      10.590  -2.867   0.308  1.00  0.00    -0.304 OA
HETATM    4  O   UNL     1      14.553   0.543   2.599  1.00  0.00    -0.270 OA
HETATM    5  O   UNL     1      11.136  -0.851   4.336  1.00  0.00    -0.263 OA
HETATM    6  O   UNL     1      13.648  -2.224   2.152  1.00  0.00    -0.270 OA
HETATM    7  O   UNL     1      10.216  -0.626  -2.004  1.00  0.00    -0.270 OA
HETATM    8  O   UNL     1      11.401   3.593   0.001  1.00  0.00    -0.263 OA
HETATM    9  O   UNL     1      11.848  -3.068  -1.609  1.00  0.00    -0.263 OA
HETATM   10  N   UNL     1      12.791   1.406   3.839  1.00  0.00    -0.340 N 
HETATM   11  N   UNL     1      12.321  -4.096   1.859  1.00  0.00    -0.340 N 
HETATM   12  N   UNL     1       9.859   0.258   0.118  1.00  0.00    -0.340 N 
HETATM   13  C   UNL     1      13.082   0.475   4.949  1.00  0.00     0.190 C 
HETATM   14  C   UNL     1      12.636  -4.117   0.415  1.00  0.00     0.190 C 
HETATM   15  C   UNL     1      10.004   1.653  -0.350  1.00  0.00     0.190 C 
HETATM   16  C   UNL     1      13.220   2.194   1.495  1.00  0.00     0.227 C 
HETATM   17  C   UNL     1      12.694  -3.122   4.153  1.00  0.00     0.227 C 
HETATM   18  C   UNL     1       9.493  -2.182  -0.324  1.00  0.00     0.227 C 
HETATM   19  C   UNL     1      13.588   1.311   2.684  1.00  0.00     0.250 C 
HETATM   20  C   UNL     1      12.324  -0.802   4.628  1.00  0.00     0.283 C 
HETATM   21  C   UNL     1      12.928  -3.101   2.640  1.00  0.00     0.250 C 
HETATM   22  C   UNL     1       9.899  -0.786  -0.821  1.00  0.00     0.250 C 
HETATM   23  C   UNL     1      11.210   2.399   0.214  1.00  0.00     0.283 C 
HETATM   24  C   UNL     1      11.665  -3.281  -0.415  1.00  0.00     0.283 C 
HETATM   25  C   UNL     1      11.671   2.338   4.003  1.00  0.00     0.153 C 
HETATM   26  C   UNL     1      11.371  -5.088   2.368  1.00  0.00     0.153 C 
HETATM   27  C   UNL     1       9.498   0.049   1.521  1.00  0.00     0.153 C 
ENDROOT
BRANCH  17  28
HETATM   28  C   UNL     1      13.519  -4.219   4.810  1.00  0.00     0.016 C 
HETATM   29  C   UNL     1      14.753  -4.543   3.968  1.00  0.00     0.012 C 
HETATM   30  C   UNL     1      13.928  -3.814   6.225  1.00  0.00     0.012 C 
ENDBRANCH  17  28
BRANCH  13  31
HETATM   31  C   UNL     1      12.718   0.967   6.346  1.00  0.00     0.014 C 
HETATM   32  C   UNL     1      12.524  -0.227   7.282  1.00  0.00     0.012 C 
BRANCH  31  33
HETATM   33  C   UNL     1      13.795   1.940   6.857  1.00  0.00     0.002 C 
HETATM   34  C   UNL     1      13.242   3.290   7.293  1.00  0.00     0.005 C 
ENDBRANCH  31  33
ENDBRANCH  13  31
BRANCH  14  35
HETATM   35  C   UNL     1      12.736  -5.525  -0.172  1.00  0.00     0.010 C 
HETATM   36  C   UNL     1      11.572  -5.798  -1.122  1.00  0.00     0.012 C 
HETATM   37  C   UNL     1      14.070  -5.716  -0.893  1.00  0.00     0.012 C 
ENDBRANCH  14  35
BRANCH  16  38
HETATM   38  C   UNL     1      14.323   2.208   0.440  1.00  0.00     0.016 C 
HETATM   39  C   UNL     1      14.465   3.600  -0.173  1.00  0.00     0.012 C 
HETATM   40  C   UNL     1      14.043   1.171  -0.647  1.00  0.00     0.012 C 
ENDBRANCH  16  38
BRANCH  18  41
HETATM   41  C   UNL     1       8.845  -3.032  -1.415  1.00  0.00     0.016 C 
HETATM   42  C   UNL     1       7.678  -2.285  -2.055  1.00  0.00     0.012 C 
HETATM   43  C   UNL     1       8.379  -4.371  -0.846  1.00  0.00     0.012 C 
ENDBRANCH  18  41
BRANCH  15  44
HETATM   44  C   UNL     1       8.722   2.453  -0.117  1.00  0.00     0.010 C 
HETATM   45  C   UNL     1       7.495   1.586  -0.384  1.00  0.00     0.012 C 
HETATM   46  C   UNL     1       8.703   3.699  -0.998  1.00  0.00     0.012 C 
ENDBRANCH  15  44
TORSDOF 7
ENDMDL
MODEL 6
REMARK VINA RESULT:    -8.119      2.250      7.215
REMARK INTER + INTRA:          -6.860
REMARK INTER:                  -9.997
REMARK INTRA:                   3.137
REMARK UNBOUND:                 4.581
REMARK  7 active torsions:
REMARK  status: ('A' for Active; 'I' for Inactive)
REMARK    1  A    between atoms: C_13  and  C_14 
REMARK    2  A    between atoms: C_14  and  C_19 
REMARK    3  A    between atoms: C_15  and  C_20 
REMARK    4  A    between atoms: C_16  and  C_21 
REMARK    5  A    between atoms: C_17  and  C_23 
REMARK    6  A    between atoms: C_18  and  C_26 
REMARK    7  A    between atoms: C_22  and  C_28 
ROOT
HETATM    1  O   UNL     1      13.297  -7.269   0.913  1.00  0.00    -0.304 OA
HETATM    2  O   UNL     1       9.017  -4.500  -0.231  1.00  0.00    -0.304 OA
HETATM    3  O   UNL     1      12.404  -2.358   2.277  1.00  0.00    -0.304 OA
HETATM    4  O   UNL     1       9.836  -7.308   1.054  1.00  0.00    -0.270 OA
HETATM    5  O   UNL     1      13.114  -5.672  -0.740  1.00  0.00    -0.263 OA
HETATM    6  O   UNL     1      11.902  -5.933   2.641  1.00  0.00    -0.270 OA
HETATM    7  O   UNL     1       9.565  -0.912   1.677  1.00  0.00    -0.270 OA
HETATM    8  O   UNL     1       7.264  -3.719  -1.493  1.00  0.00    -0.263 OA
HETATM    9  O   UNL     1      10.963  -2.028   4.041  1.00  0.00    -0.263 OA
HETATM   10  N   UNL     1      10.587  -6.921  -1.108  1.00  0.00    -0.340 N 
HETATM   11  N   UNL     1      13.568  -4.476   3.313  1.00  0.00    -0.340 N 
HETATM   12  N   UNL     1      10.304  -2.150  -0.149  1.00  0.00    -0.340 N 
HETATM   13  C   UNL     1      11.804  -7.720  -0.856  1.00  0.00     0.190 C 
HETATM   14  C   UNL     1      12.620  -3.773   4.204  1.00  0.00     0.190 C 
HETATM   15  C   UNL     1       8.970  -2.161  -0.785  1.00  0.00     0.190 C 
HETATM   16  C   UNL     1       8.485  -5.839  -0.264  1.00  0.00     0.227 C 
HETATM   17  C   UNL     1      14.075  -6.384   1.747  1.00  0.00     0.227 C 
HETATM   18  C   UNL     1      11.940  -1.230   1.513  1.00  0.00     0.227 C 
HETATM   19  C   UNL     1       9.685  -6.754  -0.041  1.00  0.00     0.250 C 
HETATM   20  C   UNL     1      12.815  -6.756  -0.257  1.00  0.00     0.283 C 
HETATM   21  C   UNL     1      13.086  -5.582   2.598  1.00  0.00     0.250 C 
HETATM   22  C   UNL     1      10.492  -1.417   1.036  1.00  0.00     0.250 C 
HETATM   23  C   UNL     1       8.320  -3.537  -0.895  1.00  0.00     0.283 C 
HETATM   24  C   UNL     1      11.885  -2.632   3.504  1.00  0.00     0.283 C 
HETATM   25  C   UNL     1      10.420  -6.327  -2.438  1.00  0.00     0.153 C 
HETATM   26  C   UNL     1      14.931  -3.948   3.211  1.00  0.00     0.153 C 
HETATM   27  C   UNL     1      11.411  -2.758  -0.889  1.00  0.00     0.153 C 
ENDROOT
BRANCH  17  28
HETATM   28  C   UNL     1      14.951  -7.263   2.628  1.00  0.00     0.016 C 
HETATM   29  C   UNL     1      14.393  -7.329   4.049  1.00  0.00     0.012 C 
HETATM   30  C   UNL     1      15.073  -8.667   2.036  1.00  0.00     0.012 C 
ENDBRANCH  17  28
BRANCH  13  31
HETATM   31  C   UNL     1      12.403  -8.425  -2.068  1.00  0.00     0.014 C 
HETATM   32  C   UNL     1      13.912  -8.590  -1.880  1.00  0.00     0.012 C 
BRANCH  31  33
HETATM   33  C   UNL     1      11.692  -9.770  -2.298  1.00  0.00     0.002 C 
HETATM   34  C   UNL     1      10.964  -9.858  -3.633  1.00  0.00     0.005 C 
ENDBRANCH  31  33
ENDBRANCH  13  31
BRANCH  14  35
HETATM   35  C   UNL     1      13.254  -3.260   5.497  1.00  0.00     0.010 C 
HETATM   36  C   UNL     1      14.201  -4.303   6.085  1.00  0.00     0.012 C 
HETATM   37  C   UNL     1      13.995  -1.945   5.250  1.00  0.00     0.012 C 
ENDBRANCH  14  35
BRANCH  16  38
HETATM   38  C   UNL     1       7.451  -5.982   0.850  1.00  0.00     0.016 C 
HETATM   39  C   UNL     1       7.901  -7.025   1.872  1.00  0.00     0.012 C 
HETATM   40  C   UNL     1       6.085  -6.352   0.273  1.00  0.00     0.012 C 
ENDBRANCH  16  38
BRANCH  18  41
HETATM   41  C   UNL     1      12.150   0.087   2.259  1.00  0.00     0.016 C 
HETATM   42  C   UNL     1      11.577   1.254   1.459  1.00  0.00     0.012 C 
HETATM   43  C   UNL     1      13.634   0.310   2.546  1.00  0.00     0.012 C 
ENDBRANCH  18  41
BRANCH  15  44
HETATM   44  C   UNL     1       8.998  -1.470  -2.149  1.00  0.00     0.010 C 
HETATM   45  C   UNL     1       9.829  -2.280  -3.140  1.00  0.00     0.012 C 
HETATM   46  C   UNL     1       9.546  -0.052  -2.018  1.00  0.00     0.012 C 
ENDBRANCH  15  44
TORSDOF 7
ENDMDL
MODEL 7
REMARK VINA RESULT:    -7.992      1.827      8.115
REMARK INTER + INTRA:          -6.681
REMARK INTER:                  -8.902
REMARK INTRA:                   2.221
REMARK UNBOUND:                 4.581
REMARK  7 active torsions:
REMARK  status: ('A' for Active; 'I' for Inactive)
REMARK    1  A    between atoms: C_13  and  C_14 
REMARK    2  A    between atoms: C_14  and  C_19 
REMARK    3  A    between atoms: C_15  and  C_20 
REMARK    4  A    between atoms: C_16  and  C_21 
REMARK    5  A    between atoms: C_17  and  C_23 
REMARK    6  A    between atoms: C_18  and  C_26 
REMARK    7  A    between atoms: C_22  and  C_28 
ROOT
HETATM    1  O   UNL     1       9.488  -2.370  -1.250  1.00  0.00    -0.304 OA
HETATM    2  O   UNL     1      13.481  -5.043   0.800  1.00  0.00    -0.304 OA
HETATM    3  O   UNL     1      12.489  -0.817   2.670  1.00  0.00    -0.304 OA
HETATM    4  O   UNL     1      12.417  -4.041  -2.041  1.00  0.00    -0.270 OA
HETATM    5  O   UNL     1       9.452  -3.568   0.720  1.00  0.00    -0.263 OA
HETATM    6  O   UNL     1      11.860  -1.402  -0.856  1.00  0.00    -0.270 OA
HETATM    7  O   UNL     1      15.075  -2.526   3.617  1.00  0.00    -0.270 OA
HETATM    8  O   UNL     1      14.649  -6.867   1.568  1.00  0.00    -0.263 OA
HETATM    9  O   UNL     1      14.576  -0.021   2.113  1.00  0.00    -0.263 OA
HETATM   10  N   UNL     1      10.972  -5.399  -0.835  1.00  0.00    -0.340 N 
HETATM   11  N   UNL     1      11.262   0.278   0.618  1.00  0.00    -0.340 N 
HETATM   12  N   UNL     1      13.239  -3.896   3.211  1.00  0.00    -0.340 N 
HETATM   13  C   UNL     1       9.800  -4.702  -1.405  1.00  0.00     0.190 C 
HETATM   14  C   UNL     1      12.680   0.660   0.787  1.00  0.00     0.190 C 
HETATM   15  C   UNL     1      14.066  -5.118   3.131  1.00  0.00     0.190 C 
HETATM   16  C   UNL     1      13.458  -5.583  -0.536  1.00  0.00     0.227 C 
HETATM   17  C   UNL     1       9.507  -1.112  -0.539  1.00  0.00     0.227 C 
HETATM   18  C   UNL     1      12.919  -1.497   3.862  1.00  0.00     0.227 C 
HETATM   19  C   UNL     1      12.248  -4.939  -1.208  1.00  0.00     0.250 C 
HETATM   20  C   UNL     1       9.548  -3.508  -0.499  1.00  0.00     0.283 C 
HETATM   21  C   UNL     1      10.975  -0.766  -0.274  1.00  0.00     0.250 C 
HETATM   22  C   UNL     1      13.851  -2.676   3.546  1.00  0.00     0.250 C 
HETATM   23  C   UNL     1      14.094  -5.789   1.760  1.00  0.00     0.283 C 
HETATM   24  C   UNL     1      13.368  -0.104   1.916  1.00  0.00     0.283 C 
HETATM   25  C   UNL     1      10.726  -6.495   0.108  1.00  0.00     0.153 C 
HETATM   26  C   UNL     1      10.260   0.987   1.417  1.00  0.00     0.153 C 
HETATM   27  C   UNL     1      11.787  -4.054   3.113  1.00  0.00     0.153 C 
ENDROOT
BRANCH  17  28
HETATM   28  C   UNL     1       8.868  -0.079  -1.456  1.00  0.00     0.016 C 
HETATM   29  C   UNL     1       7.764   0.682  -0.724  1.00  0.00     0.012 C 
HETATM   30  C   UNL     1       9.921   0.891  -1.992  1.00  0.00     0.012 C 
ENDBRANCH  17  28
BRANCH  13  31
HETATM   31  C   UNL     1       8.531  -5.535  -1.544  1.00  0.00     0.014 C 
HETATM   32  C   UNL     1       7.431  -4.699  -2.200  1.00  0.00     0.012 C 
BRANCH  31  33
HETATM   33  C   UNL     1       8.832  -6.824  -2.330  1.00  0.00     0.002 C 
HETATM   34  C   UNL     1       7.950  -8.001  -1.937  1.00  0.00     0.005 C 
ENDBRANCH  31  33
ENDBRANCH  13  31
BRANCH  14  35
HETATM   35  C   UNL     1      12.893   2.162   0.977  1.00  0.00     0.010 C 
HETATM   36  C   UNL     1      13.081   2.498   2.454  1.00  0.00     0.012 C 
HETATM   37  C   UNL     1      14.094   2.644   0.162  1.00  0.00     0.012 C 
ENDBRANCH  14  35
BRANCH  16  38
HETATM   38  C   UNL     1      14.760  -5.207  -1.239  1.00  0.00     0.016 C 
HETATM   39  C   UNL     1      15.007  -3.702  -1.148  1.00  0.00     0.012 C 
HETATM   40  C   UNL     1      14.734  -5.657  -2.698  1.00  0.00     0.012 C 
ENDBRANCH  16  38
BRANCH  18  41
HETATM   41  C   UNL     1      13.517  -0.530   4.884  1.00  0.00     0.016 C 
HETATM   42  C   UNL     1      14.021  -1.287   6.109  1.00  0.00     0.012 C 
HETATM   43  C   UNL     1      12.489   0.524   5.290  1.00  0.00     0.012 C 
ENDBRANCH  18  41
BRANCH  15  44
HETATM   44  C   UNL     1      13.675  -6.125   4.213  1.00  0.00     0.010 C 
HETATM   45  C   UNL     1      14.920  -6.723   4.862  1.00  0.00     0.012 C 
HETATM   46  C   UNL     1      12.793  -7.223   3.626  1.00  0.00     0.012 C 
ENDBRANCH  15  44
TORSDOF 7
ENDMDL
MODEL 8
REMARK VINA RESULT:    -6.625      2.831      5.080
REMARK INTER + INTRA:          -4.755
REMARK INTER:                  -7.813
REMARK INTRA:                   3.058
REMARK UNBOUND:                 4.581
REMARK  7 active torsions:
REMARK  status: ('A' for Active; 'I' for Inactive)
REMARK    1  A    between atoms: C_13  and  C_14 
REMARK    2  A    between atoms: C_14  and  C_19 
REMARK    3  A    between atoms: C_15  and  C_20 
REMARK    4  A    between atoms: C_16  and  C_21 
REMARK    5  A    between atoms: C_17  and  C_23 
REMARK    6  A    between atoms: C_18  and  C_26 
REMARK    7  A    between atoms: C_22  and  C_28 
ROOT
HETATM    1  O   UNL     1      10.014  -7.110   1.989  1.00  0.00    -0.304 OA
HETATM    2  O   UNL     1      13.085  -3.716  -0.528  1.00  0.00    -0.304 OA
HETATM    3  O   UNL     1       8.412  -3.075  -0.826  1.00  0.00    -0.304 OA
HETATM    4  O   UNL     1      12.640  -6.867  -0.256  1.00  0.00    -0.270 OA
HETATM    5  O   UNL     1      10.548  -4.981   2.694  1.00  0.00    -0.263 OA
HETATM    6  O   UNL     1       9.736  -6.437  -0.498  1.00  0.00    -0.270 OA
HETATM    7  O   UNL     1      10.487  -1.243  -2.514  1.00  0.00    -0.270 OA
HETATM    8  O   UNL     1      14.887  -2.335  -0.881  1.00  0.00    -0.263 OA
HETATM    9  O   UNL     1       8.469  -3.331  -3.113  1.00  0.00    -0.263 OA
HETATM   10  N   UNL     1      13.109  -5.733   1.714  1.00  0.00    -0.340 N 
HETATM   11  N   UNL     1       7.614  -5.531  -0.332  1.00  0.00    -0.340 N 
HETATM   12  N   UNL     1      11.296  -1.724  -0.387  1.00  0.00    -0.340 N 
HETATM   13  C   UNL     1      12.279  -6.680   2.487  1.00  0.00     0.190 C 
HETATM   14  C   UNL     1       7.645  -5.149  -1.760  1.00  0.00     0.190 C 
HETATM   15  C   UNL     1      12.682  -1.355  -0.743  1.00  0.00     0.190 C 
HETATM   16  C   UNL     1      13.942  -4.875  -0.493  1.00  0.00     0.227 C 
HETATM   17  C   UNL     1       8.675  -6.705   1.629  1.00  0.00     0.227 C 
HETATM   18  C   UNL     1       8.830  -1.698  -0.836  1.00  0.00     0.227 C 
HETATM   19  C   UNL     1      13.177  -5.915   0.321  1.00  0.00     0.250 C 
HETATM   20  C   UNL     1      10.862  -6.133   2.426  1.00  0.00     0.283 C 
HETATM   21  C   UNL     1       8.728  -6.213   0.180  1.00  0.00     0.250 C 
HETATM   22  C   UNL     1      10.274  -1.541  -1.334  1.00  0.00     0.250 C 
HETATM   23  C   UNL     1      13.683  -2.507  -0.714  1.00  0.00     0.283 C 
HETATM   24  C   UNL     1       8.235  -3.760  -1.988  1.00  0.00     0.283 C 
HETATM   25  C   UNL     1      13.773  -4.649   2.445  1.00  0.00     0.153 C 
HETATM   26  C   UNL     1       6.443  -5.141   0.456  1.00  0.00     0.153 C 
HETATM   27  C   UNL     1      11.030  -2.095   1.004  1.00  0.00     0.153 C 
ENDROOT
BRANCH  17  28
HETATM   28  C   UNL     1       7.794  -7.941   1.745  1.00  0.00     0.016 C 
HETATM   29  C   UNL     1       6.685  -7.719   2.772  1.00  0.00     0.012 C 
HETATM   30  C   UNL     1       7.200  -8.310   0.386  1.00  0.00     0.012 C 
ENDBRANCH  17  28
BRANCH  13  31
HETATM   31  C   UNL     1      12.695  -6.903   3.937  1.00  0.00     0.014 C 
HETATM   32  C   UNL     1      11.650  -7.761   4.651  1.00  0.00     0.012 C 
BRANCH  31  33
HETATM   33  C   UNL     1      14.100  -7.529   3.989  1.00  0.00     0.002 C 
HETATM   34  C   UNL     1      14.327  -8.612   2.945  1.00  0.00     0.005 C 
ENDBRANCH  31  33
ENDBRANCH  13  31
BRANCH  14  35
HETATM   35  C   UNL     1       6.287  -5.252  -2.454  1.00  0.00     0.010 C 
HETATM   36  C   UNL     1       5.944  -6.708  -2.759  1.00  0.00     0.012 C 
HETATM   37  C   UNL     1       5.193  -4.613  -1.597  1.00  0.00     0.012 C 
ENDBRANCH  14  35
BRANCH  16  38
HETATM   38  C   UNL     1      14.186  -5.346  -1.924  1.00  0.00     0.016 C 
HETATM   39  C   UNL     1      12.862  -5.627  -2.633  1.00  0.00     0.012 C 
HETATM   40  C   UNL     1      15.075  -6.588  -1.939  1.00  0.00     0.012 C 
ENDBRANCH  16  38
BRANCH  18  41
HETATM   41  C   UNL     1       7.844  -0.810  -1.593  1.00  0.00     0.016 C 
HETATM   42  C   UNL     1       8.069   0.660  -1.244  1.00  0.00     0.012 C 
HETATM   43  C   UNL     1       6.406  -1.221  -1.285  1.00  0.00     0.012 C 
ENDBRANCH  18  41
BRANCH  15  44
HETATM   44  C   UNL     1      13.183  -0.189   0.110  1.00  0.00     0.010 C 
HETATM   45  C   UNL     1      12.094   0.871   0.259  1.00  0.00     0.012 C 
HETATM   46  C   UNL     1      14.444   0.416  -0.500  1.00  0.00     0.012 C 
ENDBRANCH  15  44
TORSDOF 7
ENDMDL
