MODEL 1
REMARK VINA RESULT:    -5.366      0.000      0.000
REMARK INTER + INTRA:          -7.013
REMARK INTER:                  -7.875
REMARK INTRA:                   0.863
REMARK UNBOUND:                 0.863
REMARK  8 active torsions:
REMARK  status: ('A' for Active; 'I' for Inactive)
REMARK    1  A    between atoms: C_13  and  C_15 
REMARK    2  A    between atoms: C_14  and  C_16 
REMARK    3  A    between atoms: C_15  and  C_22 
REMARK    4  A    between atoms: C_16  and  C_23 
REMARK    5  A    between atoms: C_17  and  C_21 
REMARK    6  A    between atoms: C_18  and  C_24 
REMARK    7  A    between atoms: C_19  and  C_27 
REMARK    8  A    between atoms: C_20  and  C_30 
ROOT
HETATM    1  O   UNL     1      24.397  32.956  56.990  1.00  0.00    -0.304 OA
HETATM    2  O   UNL     1      28.006  30.233  58.725  1.00  0.00    -0.304 OA
HETATM    3  O   UNL     1      24.581  28.086  58.410  1.00  0.00    -0.304 OA
HETATM    4  O   UNL     1      26.085  31.047  56.324  1.00  0.00    -0.270 OA
HETATM    5  O   UNL     1      24.547  32.572  59.261  1.00  0.00    -0.263 OA
HETATM    6  O   UNL     1      23.146  29.647  56.920  1.00  0.00    -0.270 OA
HETATM    7  O   UNL     1      30.121  29.541  58.139  1.00  0.00    -0.263 OA
HETATM    8  O   UNL     1      29.576  27.924  60.748  1.00  0.00    -0.270 OA
HETATM    9  O   UNL     1      25.272  26.969  60.306  1.00  0.00    -0.263 OA
HETATM   10  N   UNL     1      28.015  32.183  56.929  1.00  0.00    -0.340 N 
HETATM   11  N   UNL     1      22.416  30.805  58.793  1.00  0.00    -0.340 N 
HETATM   12  N   UNL     1      27.893  27.103  59.380  1.00  0.00    -0.340 N 
HETATM   13  C   UNL     1      28.870  31.004  56.652  1.00  0.00     0.190 C 
HETATM   14  C   UNL     1      22.480  32.088  58.066  1.00  0.00     0.190 C 
HETATM   15  C   UNL     1      25.783  33.344  56.927  1.00  0.00     0.227 C 
HETATM   16  C   UNL     1      26.789  27.317  58.421  1.00  0.00     0.190 C 
HETATM   17  C   UNL     1      23.324  28.485  58.999  1.00  0.00     0.227 C 
HETATM   18  C   UNL     1      27.982  29.556  59.986  1.00  0.00     0.227 C 
HETATM   19  C   UNL     1      26.634  32.088  56.703  1.00  0.00     0.250 C 
HETATM   20  C   UNL     1      23.920  32.563  58.210  1.00  0.00     0.283 C 
HETATM   21  C   UNL     1      22.931  29.678  58.137  1.00  0.00     0.250 C 
HETATM   22  C   UNL     1      29.113  30.204  57.932  1.00  0.00     0.283 C 
HETATM   23  C   UNL     1      28.569  28.129  60.061  1.00  0.00     0.250 C 
HETATM   24  C   UNL     1      25.479  27.412  59.186  1.00  0.00     0.283 C 
HETATM   25  C   UNL     1      28.685  33.356  57.499  1.00  0.00     0.153 C 
HETATM   26  C   UNL     1      21.963  30.801  60.186  1.00  0.00     0.153 C 
HETATM   27  C   UNL     1      28.310  25.725  59.636  1.00  0.00     0.153 C 
ENDROOT
BRANCH  15  28
HETATM   28  C   UNL     1      25.927  34.292  55.743  1.00  0.00     0.016 C 
HETATM   29  C   UNL     1      25.593  33.575  54.435  1.00  0.00     0.012 C 
HETATM   30  C   UNL     1      25.034  35.519  55.923  1.00  0.00     0.012 C 
ENDBRANCH  15  28
BRANCH  14  31
HETATM   31  C   UNL     1      21.529  33.183  58.532  1.00  0.00     0.014 C 
HETATM   32  C   UNL     1      22.254  34.530  58.536  1.00  0.00     0.012 C 
BRANCH  31  33
HETATM   33  C   UNL     1      20.267  33.271  57.657  1.00  0.00     0.002 C 
HETATM   34  C   UNL     1      20.533  33.805  56.256  1.00  0.00     0.005 C 
ENDBRANCH  31  33
ENDBRANCH  14  31
BRANCH  13  35
HETATM   35  C   UNL     1      30.183  31.358  55.955  1.00  0.00     0.014 C 
HETATM   36  C   UNL     1      30.685  30.154  55.153  1.00  0.00     0.012 C 
BRANCH  35  37
HETATM   37  C   UNL     1      30.046  32.579  55.029  1.00  0.00     0.002 C 
HETATM   38  C   UNL     1      31.325  33.395  54.904  1.00  0.00     0.005 C 
ENDBRANCH  35  37
ENDBRANCH  13  35
BRANCH  17  39
HETATM   39  C   UNL     1      22.305  27.368  58.868  1.00  0.00     0.016 C 
HETATM   40  C   UNL     1      21.957  26.795  60.239  1.00  0.00     0.012 C 
HETATM   41  C   UNL     1      22.828  26.270  57.944  1.00  0.00     0.012 C 
ENDBRANCH  17  39
BRANCH  18  42
HETATM   42  C   UNL     1      28.628  30.481  61.018  1.00  0.00     0.016 C 
HETATM   43  C   UNL     1      28.285  31.941  60.724  1.00  0.00     0.012 C 
HETATM   44  C   UNL     1      28.189  30.103  62.431  1.00  0.00     0.012 C 
ENDBRANCH  18  42
BRANCH  16  45
HETATM   45  C   UNL     1      26.676  26.264  57.320  1.00  0.00     0.010 C 
HETATM   46  C   UNL     1      26.051  26.864  56.061  1.00  0.00     0.012 C 
HETATM   47  C   UNL     1      25.862  25.063  57.800  1.00  0.00     0.012 C 
ENDBRANCH  16  45
TORSDOF 8
ENDMDL
MODEL 2
REMARK VINA RESULT:    -5.296      2.582      4.281
REMARK INTER + INTRA:          -6.909
REMARK INTER:                  -7.638
REMARK INTRA:                   0.729
REMARK UNBOUND:                 0.863
REMARK  8 active torsions:
REMARK  status: ('A' for Active; 'I' for Inactive)
REMARK    1  A    between atoms: C_13  and  C_15 
REMARK    2  A    between atoms: C_14  and  C_16 
REMARK    3  A    between atoms: C_15  and  C_22 
REMARK    4  A    between atoms: C_16  and  C_23 
REMARK    5  A    between atoms: C_17  and  C_21 
REMARK    6  A    between atoms: C_18  and  C_24 
REMARK    7  A    between atoms: C_19  and  C_27 
REMARK    8  A    between atoms: C_20  and  C_30 
ROOT
HETATM    1  O   UNL     1      26.230  30.698  57.164  1.00  0.00    -0.304 OA
HETATM    2  O   UNL     1      30.956  29.791  57.703  1.00  0.00    -0.304 OA
HETATM    3  O   UNL     1      28.932  26.428  56.685  1.00  0.00    -0.304 OA
HETATM    4  O   UNL     1      28.437  30.219  55.808  1.00  0.00    -0.270 OA
HETATM    5  O   UNL     1      26.996  29.764  59.131  1.00  0.00    -0.263 OA
HETATM    6  O   UNL     1      26.670  27.422  55.904  1.00  0.00    -0.270 OA
HETATM    7  O   UNL     1      32.984  30.482  56.861  1.00  0.00    -0.263 OA
HETATM    8  O   UNL     1      33.789  28.098  58.700  1.00  0.00    -0.270 OA
HETATM    9  O   UNL     1      30.429  25.291  58.023  1.00  0.00    -0.263 OA
HETATM   10  N   UNL     1      29.698  31.922  56.752  1.00  0.00    -0.340 N 
HETATM   11  N   UNL     1      25.882  27.408  58.086  1.00  0.00    -0.340 N 
HETATM   12  N   UNL     1      32.441  27.009  57.160  1.00  0.00    -0.340 N 
HETATM   13  C   UNL     1      30.926  31.489  56.043  1.00  0.00     0.190 C 
HETATM   14  C   UNL     1      25.196  28.699  57.882  1.00  0.00     0.190 C 
HETATM   15  C   UNL     1      27.234  31.731  57.221  1.00  0.00     0.227 C 
HETATM   16  C   UNL     1      31.196  26.920  56.369  1.00  0.00     0.190 C 
HETATM   17  C   UNL     1      27.782  25.933  57.404  1.00  0.00     0.227 C 
HETATM   18  C   UNL     1      31.504  28.844  58.625  1.00  0.00     0.227 C 
HETATM   19  C   UNL     1      28.504  31.217  56.534  1.00  0.00     0.250 C 
HETATM   20  C   UNL     1      26.248  29.764  58.162  1.00  0.00     0.283 C 
HETATM   21  C   UNL     1      26.716  26.962  57.050  1.00  0.00     0.250 C 
HETATM   22  C   UNL     1      31.765  30.571  56.933  1.00  0.00     0.283 C 
HETATM   23  C   UNL     1      32.687  27.967  58.157  1.00  0.00     0.250 C 
HETATM   24  C   UNL     1      30.176  26.098  57.141  1.00  0.00     0.283 C 
HETATM   25  C   UNL     1      29.848  33.030  57.701  1.00  0.00     0.153 C 
HETATM   26  C   UNL     1      25.774  26.745  59.388  1.00  0.00     0.153 C 
HETATM   27  C   UNL     1      33.492  26.030  56.882  1.00  0.00     0.153 C 
ENDROOT
BRANCH  15  28
HETATM   28  C   UNL     1      26.679  32.933  56.467  1.00  0.00     0.016 C 
HETATM   29  C   UNL     1      25.522  32.515  55.563  1.00  0.00     0.012 C 
HETATM   30  C   UNL     1      26.231  34.021  57.441  1.00  0.00     0.012 C 
ENDBRANCH  15  28
BRANCH  14  31
HETATM   31  C   UNL     1      23.962  28.957  58.737  1.00  0.00     0.014 C 
HETATM   32  C   UNL     1      23.682  30.460  58.800  1.00  0.00     0.012 C 
BRANCH  31  33
HETATM   33  C   UNL     1      22.720  28.216  58.209  1.00  0.00     0.002 C 
HETATM   34  C   UNL     1      22.140  27.217  59.201  1.00  0.00     0.005 C 
ENDBRANCH  31  33
ENDBRANCH  14  31
BRANCH  13  35
HETATM   35  C   UNL     1      31.755  32.652  55.500  1.00  0.00     0.014 C 
HETATM   36  C   UNL     1      30.954  33.407  54.436  1.00  0.00     0.012 C 
BRANCH  35  37
HETATM   37  C   UNL     1      32.196  33.627  56.607  1.00  0.00     0.002 C 
HETATM   38  C   UNL     1      32.626  34.989  56.084  1.00  0.00     0.005 C 
ENDBRANCH  35  37
ENDBRANCH  13  35
BRANCH  17  39
HETATM   39  C   UNL     1      27.393  24.559  56.891  1.00  0.00     0.016 C 
HETATM   40  C   UNL     1      25.922  24.534  56.483  1.00  0.00     0.012 C 
HETATM   41  C   UNL     1      27.675  23.492  57.947  1.00  0.00     0.012 C 
ENDBRANCH  17  39
BRANCH  18  42
HETATM   42  C   UNL     1      31.841  29.597  59.913  1.00  0.00     0.016 C 
HETATM   43  C   UNL     1      30.822  30.706  60.173  1.00  0.00     0.012 C 
HETATM   44  C   UNL     1      31.902  28.637  61.099  1.00  0.00     0.012 C 
ENDBRANCH  18  42
BRANCH  16  45
HETATM   45  C   UNL     1      31.364  26.355  54.960  1.00  0.00     0.010 C 
HETATM   46  C   UNL     1      30.764  27.303  53.922  1.00  0.00     0.012 C 
HETATM   47  C   UNL     1      30.725  24.971  54.851  1.00  0.00     0.012 C 
ENDBRANCH  16  45
TORSDOF 8
ENDMDL
MODEL 3
REMARK VINA RESULT:    -5.167      1.889      6.938
REMARK INTER + INTRA:          -6.720
REMARK INTER:                  -7.373
REMARK INTRA:                   0.653
REMARK UNBOUND:                 0.863
REMARK  8 active torsions:
REMARK  status: ('A' for Active; 'I' for Inactive)
REMARK    1  A    between atoms: C_13  and  C_15 
REMARK    2  A    between atoms: C_14  and  C_16 
REMARK    3  A    between atoms: C_15  and  C_22 
REMARK    4  A    between atoms: C_16  and  C_23 
REMARK    5  A    between atoms: C_17  and  C_21 
REMARK    6  A    between atoms: C_18  and  C_24 
REMARK    7  A    between atoms: C_19  and  C_27 
REMARK    8  A    between atoms: C_20  and  C_30 
ROOT
HETATM    1  O   UNL     1      29.832  29.790  56.132  1.00  0.00    -0.304 OA
HETATM    2  O   UNL     1      26.466  28.471  59.353  1.00  0.00    -0.304 OA
HETATM    3  O   UNL     1      25.650  32.129  57.807  1.00  0.00    -0.304 OA
HETATM    4  O   UNL     1      27.354  28.919  56.332  1.00  0.00    -0.270 OA
HETATM    5  O   UNL     1      29.931  30.612  58.286  1.00  0.00    -0.263 OA
HETATM    6  O   UNL     1      27.247  32.179  55.767  1.00  0.00    -0.270 OA
HETATM    7  O   UNL     1      24.962  26.769  59.723  1.00  0.00    -0.263 OA
HETATM    8  O   UNL     1      24.257  28.800  61.980  1.00  0.00    -0.270 OA
HETATM    9  O   UNL     1      24.808  32.666  59.886  1.00  0.00    -0.263 OA
HETATM   10  N   UNL     1      27.840  27.037  57.598  1.00  0.00    -0.340 N 
HETATM   11  N   UNL     1      28.971  32.970  57.104  1.00  0.00    -0.340 N 
HETATM   12  N   UNL     1      23.803  30.080  60.101  1.00  0.00    -0.340 N 
HETATM   13  C   UNL     1      26.406  26.704  57.767  1.00  0.00     0.190 C 
HETATM   14  C   UNL     1      29.955  32.136  56.387  1.00  0.00     0.190 C 
HETATM   15  C   UNL     1      29.683  28.440  56.614  1.00  0.00     0.227 C 
HETATM   16  C   UNL     1      24.175  30.589  58.764  1.00  0.00     0.190 C 
HETATM   17  C   UNL     1      26.586  33.229  57.807  1.00  0.00     0.227 C 
HETATM   18  C   UNL     1      26.135  29.208  60.535  1.00  0.00     0.227 C 
HETATM   19  C   UNL     1      28.191  28.162  56.835  1.00  0.00     0.250 C 
HETATM   20  C   UNL     1      29.911  30.778  57.074  1.00  0.00     0.283 C 
HETATM   21  C   UNL     1      27.619  32.771  56.786  1.00  0.00     0.250 C 
HETATM   22  C   UNL     1      25.875  27.274  59.083  1.00  0.00     0.283 C 
HETATM   23  C   UNL     1      24.647  29.325  60.932  1.00  0.00     0.250 C 
HETATM   24  C   UNL     1      24.892  31.920  58.922  1.00  0.00     0.283 C 
HETATM   25  C   UNL     1      28.797  26.189  58.316  1.00  0.00     0.153 C 
HETATM   26  C   UNL     1      29.433  33.839  58.189  1.00  0.00     0.153 C 
HETATM   27  C   UNL     1      22.458  30.383  60.591  1.00  0.00     0.153 C 
ENDROOT
BRANCH  15  28
HETATM   28  C   UNL     1      30.233  27.518  55.534  1.00  0.00     0.016 C 
HETATM   29  C   UNL     1      30.515  28.298  54.251  1.00  0.00     0.012 C 
HETATM   30  C   UNL     1      31.499  26.814  56.019  1.00  0.00     0.012 C 
ENDBRANCH  15  28
BRANCH  14  31
HETATM   31  C   UNL     1      31.388  32.650  56.355  1.00  0.00     0.014 C 
HETATM   32  C   UNL     1      32.360  31.469  56.302  1.00  0.00     0.012 C 
BRANCH  31  33
HETATM   33  C   UNL     1      31.645  33.592  55.166  1.00  0.00     0.002 C 
HETATM   34  C   UNL     1      32.321  34.899  55.559  1.00  0.00     0.005 C 
ENDBRANCH  31  33
ENDBRANCH  14  31
BRANCH  13  35
HETATM   35  C   UNL     1      26.112  25.210  57.644  1.00  0.00     0.014 C 
HETATM   36  C   UNL     1      24.684  25.003  57.130  1.00  0.00     0.012 C 
BRANCH  35  37
HETATM   37  C   UNL     1      27.108  24.489  56.718  1.00  0.00     0.002 C 
HETATM   38  C   UNL     1      26.968  22.974  56.735  1.00  0.00     0.005 C 
ENDBRANCH  35  37
ENDBRANCH  13  35
BRANCH  17  39
HETATM   39  C   UNL     1      25.900  34.501  57.343  1.00  0.00     0.016 C 
HETATM   40  C   UNL     1      25.613  35.419  58.528  1.00  0.00     0.012 C 
HETATM   41  C   UNL     1      24.611  34.174  56.593  1.00  0.00     0.012 C 
ENDBRANCH  17  39
BRANCH  18  42
HETATM   42  C   UNL     1      26.977  28.643  61.680  1.00  0.00     0.016 C 
HETATM   43  C   UNL     1      28.362  28.231  61.181  1.00  0.00     0.012 C 
HETATM   44  C   UNL     1      27.098  29.659  62.814  1.00  0.00     0.012 C 
ENDBRANCH  18  42
BRANCH  16  45
HETATM   45  C   UNL     1      23.015  30.732  57.781  1.00  0.00     0.010 C 
HETATM   46  C   UNL     1      23.479  30.452  56.352  1.00  0.00     0.012 C 
HETATM   47  C   UNL     1      22.394  32.125  57.876  1.00  0.00     0.012 C 
ENDBRANCH  16  45
TORSDOF 8
ENDMDL
MODEL 4
REMARK VINA RESULT:    -5.165     11.334     17.593
REMARK INTER + INTRA:          -6.718
REMARK INTER:                  -7.396
REMARK INTRA:                   0.678
REMARK UNBOUND:                 0.863
REMARK  8 active torsions:
REMARK  status: ('A' for Active; 'I' for Inactive)
REMARK    1  A    between atoms: C_13  and  C_15 
REMARK    2  A    between atoms: C_14  and  C_16 
REMARK    3  A    between atoms: C_15  and  C_22 
REMARK    4  A    between atoms: C_16  and  C_23 
REMARK    5  A    between atoms: C_17  and  C_21 
REMARK    6  A    between atoms: C_18  and  C_24 
REMARK    7  A    between atoms: C_19  and  C_27 
REMARK    8  A    between atoms: C_20  and  C_30 
ROOT
HETATM    1  O   UNL     1      39.805  35.981  54.941  1.00  0.00    -0.304 OA
HETATM    2  O   UNL     1      36.827  39.779  55.324  1.00  0.00    -0.304 OA
HETATM    3  O   UNL     1      39.630  40.407  52.463  1.00  0.00    -0.304 OA
HETATM    4  O   UNL     1      37.792  37.190  53.748  1.00  0.00    -0.270 OA
HETATM    5  O   UNL     1      40.470  37.836  56.142  1.00  0.00    -0.263 OA
HETATM    6  O   UNL     1      40.569  38.013  52.147  1.00  0.00    -0.270 OA
HETATM    7  O   UNL     1      34.583  40.273  55.181  1.00  0.00    -0.263 OA
HETATM    8  O   UNL     1      35.879  43.090  55.492  1.00  0.00    -0.270 OA
HETATM    9  O   UNL     1      39.577  42.625  53.095  1.00  0.00    -0.263 OA
HETATM   10  N   UNL     1      36.363  37.182  55.576  1.00  0.00    -0.340 N 
HETATM   11  N   UNL     1      42.066  38.343  53.888  1.00  0.00    -0.340 N 
HETATM   12  N   UNL     1      36.831  42.403  53.493  1.00  0.00    -0.340 N 
HETATM   13  C   UNL     1      35.343  37.984  54.861  1.00  0.00     0.190 C 
HETATM   14  C   UNL     1      41.877  36.957  54.359  1.00  0.00     0.190 C 
HETATM   15  C   UNL     1      38.546  35.933  55.641  1.00  0.00     0.227 C 
HETATM   16  C   UNL     1      37.515  41.382  52.671  1.00  0.00     0.190 C 
HETATM   17  C   UNL     1      41.051  40.288  52.689  1.00  0.00     0.227 C 
HETATM   18  C   UNL     1      37.243  41.114  55.628  1.00  0.00     0.227 C 
HETATM   19  C   UNL     1      37.542  36.826  54.903  1.00  0.00     0.250 C 
HETATM   20  C   UNL     1      40.655  37.001  55.267  1.00  0.00     0.283 C 
HETATM   21  C   UNL     1      41.223  38.784  52.858  1.00  0.00     0.250 C 
HETATM   22  C   UNL     1      35.508  39.470  55.179  1.00  0.00     0.283 C 
HETATM   23  C   UNL     1      36.574  42.281  54.868  1.00  0.00     0.250 C 
HETATM   24  C   UNL     1      39.018  41.586  52.776  1.00  0.00     0.283 C 
HETATM   25  C   UNL     1      36.087  36.878  56.984  1.00  0.00     0.153 C 
HETATM   26  C   UNL     1      43.002  39.213  54.604  1.00  0.00     0.153 C 
HETATM   27  C   UNL     1      36.391  43.627  52.823  1.00  0.00     0.153 C 
ENDROOT
BRANCH  15  28
HETATM   28  C   UNL     1      38.078  34.484  55.615  1.00  0.00     0.016 C 
HETATM   29  C   UNL     1      39.068  33.610  54.848  1.00  0.00     0.012 C 
HETATM   30  C   UNL     1      37.885  33.954  57.035  1.00  0.00     0.012 C 
ENDBRANCH  15  28
BRANCH  14  31
HETATM   31  C   UNL     1      43.047  36.324  55.100  1.00  0.00     0.014 C 
HETATM   32  C   UNL     1      42.531  35.242  56.051  1.00  0.00     0.012 C 
BRANCH  31  33
HETATM   33  C   UNL     1      44.090  35.723  54.142  1.00  0.00     0.002 C 
HETATM   34  C   UNL     1      43.524  34.653  53.218  1.00  0.00     0.005 C 
ENDBRANCH  31  33
ENDBRANCH  14  31
BRANCH  13  35
HETATM   35  C   UNL     1      33.912  37.512  55.115  1.00  0.00     0.014 C 
HETATM   36  C   UNL     1      32.956  38.206  54.142  1.00  0.00     0.012 C 
BRANCH  35  37
HETATM   37  C   UNL     1      33.766  35.985  54.988  1.00  0.00     0.002 C 
HETATM   38  C   UNL     1      32.590  35.556  54.122  1.00  0.00     0.005 C 
ENDBRANCH  35  37
ENDBRANCH  13  35
BRANCH  17  39
HETATM   39  C   UNL     1      41.819  40.784  51.478  1.00  0.00     0.016 C 
HETATM   40  C   UNL     1      42.558  39.632  50.801  1.00  0.00     0.012 C 
HETATM   41  C   UNL     1      42.798  41.887  51.878  1.00  0.00     0.012 C 
ENDBRANCH  17  39
BRANCH  18  42
HETATM   42  C   UNL     1      37.134  41.297  57.142  1.00  0.00     0.016 C 
HETATM   43  C   UNL     1      37.500  40.004  57.871  1.00  0.00     0.012 C 
HETATM   44  C   UNL     1      38.023  42.446  57.612  1.00  0.00     0.012 C 
ENDBRANCH  18  42
BRANCH  16  45
HETATM   45  C   UNL     1      37.094  41.344  51.204  1.00  0.00     0.010 C 
HETATM   46  C   UNL     1      35.873  40.444  51.015  1.00  0.00     0.012 C 
HETATM   47  C   UNL     1      38.248  40.870  50.321  1.00  0.00     0.012 C 
ENDBRANCH  16  45
TORSDOF 8
ENDMDL
MODEL 5
REMARK VINA RESULT:    -5.076      2.971      6.647
REMARK INTER + INTRA:          -6.587
REMARK INTER:                  -7.111
REMARK INTRA:                   0.524
REMARK UNBOUND:                 0.863
REMARK  8 active torsions:
REMARK  status: ('A' for Active; 'I' for Inactive)
REMARK    1  A    between atoms: C_13  and  C_15 
REMARK    2  A    between atoms: C_14  and  C_16 
REMARK    3  A    between atoms: C_15  and  C_22 
REMARK    4  A    between atoms: C_16  and  C_23 
REMARK    5  A    between atoms: C_17  and  C_21 
REMARK    6  A    between atoms: C_18  and  C_24 
REMARK    7  A    between atoms: C_19  and  C_27 
REMARK    8  A    between atoms: C_20  and  C_30 
ROOT
HETATM    1  O   UNL     1      26.610  29.979  57.256  1.00  0.00    -0.304 OA
HETATM    2  O   UNL     1      31.164  31.593  56.928  1.00  0.00    -0.304 OA
HETATM    3  O   UNL     1      29.131  33.544  59.843  1.00  0.00    -0.304 OA
HETATM    4  O   UNL     1      28.956  29.882  58.450  1.00  0.00    -0.270 OA
HETATM    5  O   UNL     1      27.048  31.936  56.112  1.00  0.00    -0.263 OA
HETATM    6  O   UNL     1      27.052  32.020  60.111  1.00  0.00    -0.270 OA
HETATM    7  O   UNL     1      33.321  30.800  57.051  1.00  0.00    -0.263 OA
HETATM    8  O   UNL     1      33.742  33.881  56.831  1.00  0.00    -0.270 OA
HETATM    9  O   UNL     1      30.369  35.404  59.267  1.00  0.00    -0.263 OA
HETATM   10  N   UNL     1      30.159  29.162  56.603  1.00  0.00    -0.340 N 
HETATM   11  N   UNL     1      25.970  33.154  58.400  1.00  0.00    -0.340 N 
HETATM   12  N   UNL     1      32.566  33.754  58.825  1.00  0.00    -0.340 N 
HETATM   13  C   UNL     1      31.450  29.269  57.323  1.00  0.00     0.190 C 
HETATM   14  C   UNL     1      25.386  31.897  57.892  1.00  0.00     0.190 C 
HETATM   15  C   UNL     1      27.647  29.283  56.537  1.00  0.00     0.227 C 
HETATM   16  C   UNL     1      31.439  33.236  59.630  1.00  0.00     0.190 C 
HETATM   17  C   UNL     1      27.869  34.213  59.634  1.00  0.00     0.227 C 
HETATM   18  C   UNL     1      31.530  32.951  56.664  1.00  0.00     0.227 C 
HETATM   19  C   UNL     1      28.973  29.475  57.283  1.00  0.00     0.250 C 
HETATM   20  C   UNL     1      26.442  31.305  56.968  1.00  0.00     0.283 C 
HETATM   21  C   UNL     1      26.916  33.043  59.430  1.00  0.00     0.250 C 
HETATM   22  C   UNL     1      32.110  30.620  57.045  1.00  0.00     0.283 C 
HETATM   23  C   UNL     1      32.720  33.553  57.444  1.00  0.00     0.250 C 
HETATM   24  C   UNL     1      30.281  34.219  59.552  1.00  0.00     0.283 C 
HETATM   25  C   UNL     1      30.232  28.799  55.183  1.00  0.00     0.153 C 
HETATM   26  C   UNL     1      25.650  34.411  57.720  1.00  0.00     0.153 C 
HETATM   27  C   UNL     1      33.593  34.530  59.520  1.00  0.00     0.153 C 
ENDROOT
BRANCH  15  28
HETATM   28  C   UNL     1      27.264  27.809  56.518  1.00  0.00     0.016 C 
HETATM   29  C   UNL     1      27.242  27.240  57.936  1.00  0.00     0.012 C 
HETATM   30  C   UNL     1      25.909  27.612  55.841  1.00  0.00     0.012 C 
ENDBRANCH  15  28
BRANCH  14  31
HETATM   31  C   UNL     1      24.060  32.014  57.151  1.00  0.00     0.014 C 
HETATM   32  C   UNL     1      23.872  30.802  56.236  1.00  0.00     0.012 C 
BRANCH  31  33
HETATM   33  C   UNL     1      22.863  32.136  58.110  1.00  0.00     0.002 C 
HETATM   34  C   UNL     1      21.681  32.890  57.517  1.00  0.00     0.005 C 
ENDBRANCH  31  33
ENDBRANCH  14  31
BRANCH  13  35
HETATM   35  C   UNL     1      32.404  28.111  57.037  1.00  0.00     0.014 C 
HETATM   36  C   UNL     1      33.564  28.135  58.035  1.00  0.00     0.012 C 
BRANCH  35  37
HETATM   37  C   UNL     1      31.699  26.743  57.091  1.00  0.00     0.002 C 
HETATM   38  C   UNL     1      32.152  25.782  56.001  1.00  0.00     0.005 C 
ENDBRANCH  35  37
ENDBRANCH  13  35
BRANCH  17  39
HETATM   39  C   UNL     1      27.485  35.009  60.868  1.00  0.00     0.016 C 
HETATM   40  C   UNL     1      26.188  34.475  61.470  1.00  0.00     0.012 C 
HETATM   41  C   UNL     1      27.350  36.493  60.530  1.00  0.00     0.012 C 
ENDBRANCH  17  39
BRANCH  18  42
HETATM   42  C   UNL     1      31.723  33.091  55.154  1.00  0.00     0.016 C 
HETATM   43  C   UNL     1      30.537  32.491  54.399  1.00  0.00     0.012 C 
HETATM   44  C   UNL     1      31.916  34.556  54.768  1.00  0.00     0.012 C 
ENDBRANCH  18  42
BRANCH  16  45
HETATM   45  C   UNL     1      31.772  32.935  61.090  1.00  0.00     0.010 C 
HETATM   46  C   UNL     1      31.431  31.485  61.434  1.00  0.00     0.012 C 
HETATM   47  C   UNL     1      31.031  33.893  62.023  1.00  0.00     0.012 C 
ENDBRANCH  16  45
TORSDOF 8
ENDMDL
MODEL 6
REMARK VINA RESULT:    -5.024      2.621      4.811
REMARK INTER + INTRA:          -6.511
REMARK INTER:                  -7.345
REMARK INTRA:                   0.834
REMARK UNBOUND:                 0.863
REMARK  8 active torsions:
REMARK  status: ('A' for Active; 'I' for Inactive)
REMARK    1  A    between atoms: C_13  and  C_15 
REMARK    2  A    between atoms: C_14  and  C_16 
REMARK    3  A    between atoms: C_15  and  C_22 
REMARK    4  A    between atoms: C_16  and  C_23 
REMARK    5  A    between atoms: C_17  and  C_21 
REMARK    6  A    between atoms: C_18  and  C_24 
REMARK    7  A    between atoms: C_19  and  C_27 
REMARK    8  A    between atoms: C_20  and  C_30 
ROOT
HETATM    1  O   UNL     1      28.972  30.383  56.303  1.00  0.00    -0.304 OA
HETATM    2  O   UNL     1      29.391  26.093  58.509  1.00  0.00    -0.304 OA
HETATM    3  O   UNL     1      25.496  27.085  57.979  1.00  0.00    -0.304 OA
HETATM    4  O   UNL     1      28.745  27.790  55.897  1.00  0.00    -0.270 OA
HETATM    5  O   UNL     1      28.731  30.249  58.595  1.00  0.00    -0.263 OA
HETATM    6  O   UNL     1      25.701  29.033  56.282  1.00  0.00    -0.270 OA
HETATM    7  O   UNL     1      30.342  24.025  58.162  1.00  0.00    -0.263 OA
HETATM    8  O   UNL     1      28.716  23.593  60.785  1.00  0.00    -0.270 OA
HETATM    9  O   UNL     1      25.098  26.021  59.987  1.00  0.00    -0.263 OA
HETATM   10  N   UNL     1      30.873  27.225  56.625  1.00  0.00    -0.340 N 
HETATM   11  N   UNL     1      26.000  30.546  58.017  1.00  0.00    -0.340 N 
HETATM   12  N   UNL     1      27.007  24.114  59.308  1.00  0.00    -0.340 N 
HETATM   13  C   UNL     1      30.602  25.774  56.490  1.00  0.00     0.190 C 
HETATM   14  C   UNL     1      27.002  31.296  57.235  1.00  0.00     0.190 C 
HETATM   15  C   UNL     1      30.202  29.634  56.351  1.00  0.00     0.227 C 
HETATM   16  C   UNL     1      26.437  24.961  58.239  1.00  0.00     0.190 C 
HETATM   17  C   UNL     1      24.916  28.330  58.425  1.00  0.00     0.227 C 
HETATM   18  C   UNL     1      28.845  25.780  59.794  1.00  0.00     0.227 C 
HETATM   19  C   UNL     1      29.869  28.140  56.274  1.00  0.00     0.250 C 
HETATM   20  C   UNL     1      28.326  30.588  57.490  1.00  0.00     0.283 C 
HETATM   21  C   UNL     1      25.544  29.337  57.470  1.00  0.00     0.250 C 
HETATM   22  C   UNL     1      30.146  25.187  57.826  1.00  0.00     0.283 C 
HETATM   23  C   UNL     1      28.199  24.391  59.997  1.00  0.00     0.250 C 
HETATM   24  C   UNL     1      25.593  26.056  58.870  1.00  0.00     0.283 C 
HETATM   25  C   UNL     1      32.173  27.596  57.195  1.00  0.00     0.153 C 
HETATM   26  C   UNL     1      25.649  31.016  59.359  1.00  0.00     0.153 C 
HETATM   27  C   UNL     1      26.276  22.901  59.672  1.00  0.00     0.153 C 
ENDROOT
BRANCH  15  28
HETATM   28  C   UNL     1      31.026  30.051  55.140  1.00  0.00     0.016 C 
HETATM   29  C   UNL     1      30.643  29.222  53.916  1.00  0.00     0.012 C 
HETATM   30  C   UNL     1      30.847  31.541  54.853  1.00  0.00     0.012 C 
ENDBRANCH  15  28
BRANCH  14  31
HETATM   31  C   UNL     1      27.141  32.779  57.552  1.00  0.00     0.014 C 
HETATM   32  C   UNL     1      28.596  33.214  57.358  1.00  0.00     0.012 C 
BRANCH  31  33
HETATM   33  C   UNL     1      26.215  33.651  56.687  1.00  0.00     0.002 C 
HETATM   34  C   UNL     1      25.928  33.059  55.314  1.00  0.00     0.005 C 
ENDBRANCH  31  33
ENDBRANCH  14  31
BRANCH  13  35
HETATM   35  C   UNL     1      31.774  24.989  55.904  1.00  0.00     0.014 C 
HETATM   36  C   UNL     1      31.335  23.555  55.595  1.00  0.00     0.012 C 
BRANCH  35  37
HETATM   37  C   UNL     1      32.342  25.644  54.632  1.00  0.00     0.002 C 
HETATM   38  C   UNL     1      31.415  25.545  53.430  1.00  0.00     0.005 C 
ENDBRANCH  35  37
ENDBRANCH  13  35
BRANCH  17  39
HETATM   39  C   UNL     1      23.408  28.297  58.255  1.00  0.00     0.016 C 
HETATM   40  C   UNL     1      22.944  29.438  57.352  1.00  0.00     0.012 C 
HETATM   41  C   UNL     1      22.712  28.370  59.613  1.00  0.00     0.012 C 
ENDBRANCH  17  39
BRANCH  18  42
HETATM   42  C   UNL     1      29.933  26.048  60.834  1.00  0.00     0.016 C 
HETATM   43  C   UNL     1      30.775  27.260  60.436  1.00  0.00     0.012 C 
HETATM   44  C   UNL     1      29.319  26.255  62.217  1.00  0.00     0.012 C 
ENDBRANCH  18  42
BRANCH  16  45
HETATM   45  C   UNL     1      25.621  24.212  57.187  1.00  0.00     0.010 C 
HETATM   46  C   UNL     1      26.474  23.146  56.499  1.00  0.00     0.012 C 
HETATM   47  C   UNL     1      25.047  25.183  56.156  1.00  0.00     0.012 C 
ENDBRANCH  16  45
TORSDOF 8
ENDMDL
MODEL 7
REMARK VINA RESULT:    -4.977     10.411     15.329
REMARK INTER + INTRA:          -6.442
REMARK INTER:                  -7.062
REMARK INTRA:                   0.620
REMARK UNBOUND:                 0.863
REMARK  8 active torsions:
REMARK  status: ('A' for Active; 'I' for Inactive)
REMARK    1  A    between atoms: C_13  and  C_15 
REMARK    2  A    between atoms: C_14  and  C_16 
REMARK    3  A    between atoms: C_15  and  C_22 
REMARK    4  A    between atoms: C_16  and  C_23 
REMARK    5  A    between atoms: C_17  and  C_21 
REMARK    6  A    between atoms: C_18  and  C_24 
REMARK    7  A    between atoms: C_19  and  C_27 
REMARK    8  A    between atoms: C_20  and  C_30 
ROOT
HETATM    1  O   UNL     1      40.308  36.198  54.532  1.00  0.00    -0.304 OA
HETATM    2  O   UNL     1      36.771  36.551  57.821  1.00  0.00    -0.304 OA
HETATM    3  O   UNL     1      35.896  38.707  54.501  1.00  0.00    -0.304 OA
HETATM    4  O   UNL     1      37.869  35.367  55.080  1.00  0.00    -0.270 OA
HETATM    5  O   UNL     1      40.197  38.059  55.893  1.00  0.00    -0.263 OA
HETATM    6  O   UNL     1      37.643  37.781  52.826  1.00  0.00    -0.270 OA
HETATM    7  O   UNL     1      35.330  35.199  59.002  1.00  0.00    -0.263 OA
HETATM    8  O   UNL     1      34.351  38.060  59.758  1.00  0.00    -0.270 OA
HETATM    9  O   UNL     1      34.868  40.209  55.918  1.00  0.00    -0.263 OA
HETATM   10  N   UNL     1      38.349  34.518  57.185  1.00  0.00    -0.340 N 
HETATM   11  N   UNL     1      39.215  39.312  53.580  1.00  0.00    -0.340 N 
HETATM   12  N   UNL     1      33.981  38.076  57.469  1.00  0.00    -0.340 N 
HETATM   13  C   UNL     1      36.925  34.210  57.454  1.00  0.00     0.190 C 
HETATM   14  C   UNL     1      40.293  38.310  53.472  1.00  0.00     0.190 C 
HETATM   15  C   UNL     1      40.190  35.316  55.666  1.00  0.00     0.227 C 
HETATM   16  C   UNL     1      34.430  37.810  56.086  1.00  0.00     0.190 C 
HETATM   17  C   UNL     1      36.772  39.707  53.937  1.00  0.00     0.227 C 
HETATM   18  C   UNL     1      36.313  37.778  58.396  1.00  0.00     0.227 C 
HETATM   19  C   UNL     1      38.702  35.077  55.947  1.00  0.00     0.250 C 
HETATM   20  C   UNL     1      40.263  37.541  54.787  1.00  0.00     0.283 C 
HETATM   21  C   UNL     1      37.904  38.859  53.372  1.00  0.00     0.250 C 
HETATM   22  C   UNL     1      36.264  35.353  58.224  1.00  0.00     0.283 C 
HETATM   23  C   UNL     1      34.795  37.966  58.608  1.00  0.00     0.250 C 
HETATM   24  C   UNL     1      35.064  39.071  55.520  1.00  0.00     0.283 C 
HETATM   25  C   UNL     1      39.289  34.278  58.285  1.00  0.00     0.153 C 
HETATM   26  C   UNL     1      39.547  40.665  54.033  1.00  0.00     0.153 C 
HETATM   27  C   UNL     1      32.588  38.481  57.662  1.00  0.00     0.153 C 
ENDROOT
BRANCH  15  28
HETATM   28  C   UNL     1      40.869  34.007  55.285  1.00  0.00     0.016 C 
HETATM   29  C   UNL     1      39.849  33.009  54.742  1.00  0.00     0.012 C 
HETATM   30  C   UNL     1      41.976  34.252  54.261  1.00  0.00     0.012 C 
ENDBRANCH  15  28
BRANCH  14  31
HETATM   31  C   UNL     1      41.696  38.844  53.220  1.00  0.00     0.014 C 
HETATM   32  C   UNL     1      42.703  38.083  54.087  1.00  0.00     0.012 C 
BRANCH  31  33
HETATM   33  C   UNL     1      42.102  38.745  51.739  1.00  0.00     0.002 C 
HETATM   34  C   UNL     1      42.727  37.407  51.367  1.00  0.00     0.005 C 
ENDBRANCH  31  33
ENDBRANCH  14  31
BRANCH  13  35
HETATM   35  C   UNL     1      36.716  32.868  58.154  1.00  0.00     0.014 C 
HETATM   36  C   UNL     1      35.229  32.505  58.146  1.00  0.00     0.012 C 
BRANCH  35  37
HETATM   37  C   UNL     1      37.532  31.735  57.507  1.00  0.00     0.002 C 
HETATM   38  C   UNL     1      38.032  30.699  58.503  1.00  0.00     0.005 C 
ENDBRANCH  35  37
ENDBRANCH  13  35
BRANCH  17  39
HETATM   39  C   UNL     1      36.062  40.462  52.829  1.00  0.00     0.016 C 
HETATM   40  C   UNL     1      36.859  40.383  51.529  1.00  0.00     0.012 C 
HETATM   41  C   UNL     1      35.835  41.918  53.231  1.00  0.00     0.012 C 
ENDBRANCH  17  39
BRANCH  18  42
HETATM   42  C   UNL     1      37.090  37.996  59.696  1.00  0.00     0.016 C 
HETATM   43  C   UNL     1      38.529  37.501  59.554  1.00  0.00     0.012 C 
HETATM   44  C   UNL     1      37.068  39.470  60.097  1.00  0.00     0.012 C 
ENDBRANCH  18  42
BRANCH  16  45
HETATM   45  C   UNL     1      33.344  37.301  55.140  1.00  0.00     0.010 C 
HETATM   46  C   UNL     1      33.746  35.959  54.529  1.00  0.00     0.012 C 
HETATM   47  C   UNL     1      33.060  38.324  54.041  1.00  0.00     0.012 C 
ENDBRANCH  16  45
TORSDOF 8
ENDMDL
MODEL 8
REMARK VINA RESULT:    -4.867     11.270     15.922
REMARK INTER + INTRA:          -6.280
REMARK INTER:                  -7.523
REMARK INTRA:                   1.243
REMARK UNBOUND:                 0.863
REMARK  8 active torsions:
REMARK  status: ('A' for Active; 'I' for Inactive)
REMARK    1  A    between atoms: C_13  and  C_15 
REMARK    2  A    between atoms: C_14  and  C_16 
REMARK    3  A    between atoms: C_15  and  C_22 
REMARK    4  A    between atoms: C_16  and  C_23 
REMARK    5  A    between atoms: C_17  and  C_21 
REMARK    6  A    between atoms: C_18  and  C_24 
REMARK    7  A    between atoms: C_19  and  C_27 
REMARK    8  A    between atoms: C_20  and  C_30 
ROOT
HETATM    1  O   UNL     1      36.183  38.811  53.334  1.00  0.00    -0.304 OA
HETATM    2  O   UNL     1      40.824  39.253  54.641  1.00  0.00    -0.304 OA
HETATM    3  O   UNL     1      39.505  35.461  55.206  1.00  0.00    -0.304 OA
HETATM    4  O   UNL     1      38.636  38.233  52.570  1.00  0.00    -0.270 OA
HETATM    5  O   UNL     1      36.721  39.063  55.564  1.00  0.00    -0.263 OA
HETATM    6  O   UNL     1      37.295  35.493  53.853  1.00  0.00    -0.270 OA
HETATM    7  O   UNL     1      42.848  39.886  53.745  1.00  0.00    -0.263 OA
HETATM    8  O   UNL     1      43.653  38.835  56.567  1.00  0.00    -0.270 OA
HETATM    9  O   UNL     1      40.894  35.402  57.047  1.00  0.00    -0.263 OA
HETATM   10  N   UNL     1      39.460  40.398  52.677  1.00  0.00    -0.340 N 
HETATM   11  N   UNL     1      36.151  36.317  55.696  1.00  0.00    -0.340 N 
HETATM   12  N   UNL     1      42.760  36.909  55.636  1.00  0.00    -0.340 N 
HETATM   13  C   UNL     1      40.841  39.955  52.372  1.00  0.00     0.190 C 
HETATM   14  C   UNL     1      35.334  37.198  54.837  1.00  0.00     0.190 C 
HETATM   15  C   UNL     1      37.004  39.938  52.970  1.00  0.00     0.227 C 
HETATM   16  C   UNL     1      41.697  36.211  54.884  1.00  0.00     0.190 C 
HETATM   17  C   UNL     1      38.330  35.124  55.974  1.00  0.00     0.227 C 
HETATM   18  C   UNL     1      41.333  38.971  55.948  1.00  0.00     0.227 C 
HETATM   19  C   UNL     1      38.435  39.442  52.726  1.00  0.00     0.250 C 
HETATM   20  C   UNL     1      36.159  38.465  54.656  1.00  0.00     0.283 C 
HETATM   21  C   UNL     1      37.206  35.631  55.079  1.00  0.00     0.250 C 
HETATM   22  C   UNL     1      41.635  39.743  53.662  1.00  0.00     0.283 C 
HETATM   23  C   UNL     1      42.691  38.245  56.064  1.00  0.00     0.250 C 
HETATM   24  C   UNL     1      40.685  35.643  55.867  1.00  0.00     0.283 C 
HETATM   25  C   UNL     1      39.284  41.822  52.983  1.00  0.00     0.153 C 
HETATM   26  C   UNL     1      35.914  36.319  57.141  1.00  0.00     0.153 C 
HETATM   27  C   UNL     1      43.972  36.153  55.955  1.00  0.00     0.153 C 
ENDROOT
BRANCH  15  28
HETATM   28  C   UNL     1      36.424  40.516  51.686  1.00  0.00     0.016 C 
HETATM   29  C   UNL     1      35.140  39.785  51.298  1.00  0.00     0.012 C 
HETATM   30  C   UNL     1      36.162  42.013  51.839  1.00  0.00     0.012 C 
ENDBRANCH  15  28
BRANCH  14  31
HETATM   31  C   UNL     1      33.947  37.556  55.353  1.00  0.00     0.014 C 
HETATM   32  C   UNL     1      33.314  38.611  54.443  1.00  0.00     0.012 C 
BRANCH  31  33
HETATM   33  C   UNL     1      33.024  36.328  55.451  1.00  0.00     0.002 C 
HETATM   34  C   UNL     1      32.787  35.637  54.115  1.00  0.00     0.005 C 
ENDBRANCH  31  33
ENDBRANCH  14  31
BRANCH  13  35
HETATM   35  C   UNL     1      41.577  40.883  51.407  1.00  0.00     0.014 C 
HETATM   36  C   UNL     1      42.895  40.237  50.970  1.00  0.00     0.012 C 
BRANCH  35  37
HETATM   37  C   UNL     1      40.733  41.232  50.168  1.00  0.00     0.002 C 
HETATM   38  C   UNL     1      41.343  40.748  48.861  1.00  0.00     0.005 C 
ENDBRANCH  35  37
ENDBRANCH  13  35
BRANCH  17  39
HETATM   39  C   UNL     1      38.235  33.621  56.157  1.00  0.00     0.016 C 
HETATM   40  C   UNL     1      38.498  33.239  57.611  1.00  0.00     0.012 C 
HETATM   41  C   UNL     1      39.215  32.904  55.229  1.00  0.00     0.012 C 
ENDBRANCH  17  39
BRANCH  18  42
HETATM   42  C   UNL     1      41.332  40.282  56.736  1.00  0.00     0.016 C 
HETATM   43  C   UNL     1      40.155  41.163  56.316  1.00  0.00     0.012 C 
HETATM   44  C   UNL     1      41.286  40.009  58.238  1.00  0.00     0.012 C 
ENDBRANCH  18  42
BRANCH  16  45
HETATM   45  C   UNL     1      42.185  35.112  53.942  1.00  0.00     0.010 C 
HETATM   46  C   UNL     1      42.713  33.916  54.735  1.00  0.00     0.012 C 
HETATM   47  C   UNL     1      43.263  35.646  53.000  1.00  0.00     0.012 C 
ENDBRANCH  16  45
TORSDOF 8
ENDMDL
MODEL 9
REMARK VINA RESULT:    -4.614      4.525      9.089
REMARK INTER + INTRA:          -5.909
REMARK INTER:                  -6.187
REMARK INTRA:                   0.278
REMARK UNBOUND:                 0.863
REMARK  8 active torsions:
REMARK  status: ('A' for Active; 'I' for Inactive)
REMARK    1  A    between atoms: C_13  and  C_15 
REMARK    2  A    between atoms: C_14  and  C_16 
REMARK    3  A    between atoms: C_15  and  C_22 
REMARK    4  A    between atoms: C_16  and  C_23 
REMARK    5  A    between atoms: C_17  and  C_21 
REMARK    6  A    between atoms: C_18  and  C_24 
REMARK    7  A    between atoms: C_19  and  C_27 
REMARK    8  A    between atoms: C_20  and  C_30 
ROOT
HETATM    1  O   UNL     1      30.931  30.791  57.933  1.00  0.00    -0.304 OA
HETATM    2  O   UNL     1      30.721  26.312  56.104  1.00  0.00    -0.304 OA
HETATM    3  O   UNL     1      33.937  26.746  58.534  1.00  0.00    -0.304 OA
HETATM    4  O   UNL     1      30.337  28.302  58.556  1.00  0.00    -0.270 OA
HETATM    5  O   UNL     1      32.248  30.235  56.121  1.00  0.00    -0.263 OA
HETATM    6  O   UNL     1      33.354  28.960  59.748  1.00  0.00    -0.270 OA
HETATM    7  O   UNL     1      29.288  24.512  56.028  1.00  0.00    -0.263 OA
HETATM    8  O   UNL     1      31.863  23.388  54.678  1.00  0.00    -0.270 OA
HETATM    9  O   UNL     1      35.036  25.307  57.103  1.00  0.00    -0.263 OA
HETATM   10  N   UNL     1      28.793  27.969  56.858  1.00  0.00    -0.340 N 
HETATM   11  N   UNL     1      34.311  30.185  58.024  1.00  0.00    -0.340 N 
HETATM   12  N   UNL     1      32.671  23.873  56.797  1.00  0.00    -0.340 N 
HETATM   13  C   UNL     1      28.628  26.537  57.204  1.00  0.00     0.190 C 
HETATM   14  C   UNL     1      33.250  31.207  58.117  1.00  0.00     0.190 C 
HETATM   15  C   UNL     1      29.758  30.251  57.293  1.00  0.00     0.227 C 
HETATM   16  C   UNL     1      32.803  24.786  57.951  1.00  0.00     0.190 C 
HETATM   17  C   UNL     1      34.925  27.788  58.383  1.00  0.00     0.227 C 
HETATM   18  C   UNL     1      31.750  25.704  55.318  1.00  0.00     0.227 C 
HETATM   19  C   UNL     1      29.663  28.757  57.626  1.00  0.00     0.250 C 
HETATM   20  C   UNL     1      32.111  30.687  57.250  1.00  0.00     0.283 C 
HETATM   21  C   UNL     1      34.148  29.029  58.802  1.00  0.00     0.250 C 
HETATM   22  C   UNL     1      29.545  25.667  56.344  1.00  0.00     0.283 C 
HETATM   23  C   UNL     1      32.080  24.216  55.570  1.00  0.00     0.250 C 
HETATM   24  C   UNL     1      34.071  25.609  57.789  1.00  0.00     0.283 C 
HETATM   25  C   UNL     1      28.074  28.440  55.669  1.00  0.00     0.153 C 
HETATM   26  C   UNL     1      35.381  30.360  57.039  1.00  0.00     0.153 C 
HETATM   27  C   UNL     1      33.193  22.514  56.945  1.00  0.00     0.153 C 
ENDROOT
BRANCH  15  28
HETATM   28  C   UNL     1      28.557  30.993  57.865  1.00  0.00     0.016 C 
HETATM   29  C   UNL     1      28.915  31.655  59.194  1.00  0.00     0.012 C 
HETATM   30  C   UNL     1      28.043  32.033  56.871  1.00  0.00     0.012 C 
ENDBRANCH  15  28
BRANCH  14  31
HETATM   31  C   UNL     1      33.624  32.618  57.683  1.00  0.00     0.014 C 
HETATM   32  C   UNL     1      32.356  33.419  57.382  1.00  0.00     0.012 C 
BRANCH  31  33
HETATM   33  C   UNL     1      34.466  33.351  58.742  1.00  0.00     0.002 C 
HETATM   34  C   UNL     1      35.754  33.948  58.190  1.00  0.00     0.005 C 
ENDBRANCH  31  33
ENDBRANCH  14  31
BRANCH  13  35
HETATM   35  C   UNL     1      27.178  26.060  57.136  1.00  0.00     0.014 C 
HETATM   36  C   UNL     1      27.027  24.747  57.909  1.00  0.00     0.012 C 
BRANCH  35  37
HETATM   37  C   UNL     1      26.190  27.104  57.686  1.00  0.00     0.002 C 
HETATM   38  C   UNL     1      24.748  26.857  57.266  1.00  0.00     0.005 C 
ENDBRANCH  35  37
ENDBRANCH  13  35
BRANCH  17  39
HETATM   39  C   UNL     1      36.094  27.544  59.319  1.00  0.00     0.016 C 
HETATM   40  C   UNL     1      36.219  28.682  60.330  1.00  0.00     0.012 C 
HETATM   41  C   UNL     1      37.391  27.383  58.529  1.00  0.00     0.012 C 
ENDBRANCH  17  39
BRANCH  18  42
HETATM   42  C   UNL     1      31.420  25.962  53.847  1.00  0.00     0.016 C 
HETATM   43  C   UNL     1      30.891  27.383  53.653  1.00  0.00     0.012 C 
HETATM   44  C   UNL     1      32.646  25.723  52.968  1.00  0.00     0.012 C 
ENDBRANCH  18  42
BRANCH  16  45
HETATM   45  C   UNL     1      32.792  24.105  59.319  1.00  0.00     0.010 C 
HETATM   46  C   UNL     1      31.698  24.696  60.208  1.00  0.00     0.012 C 
HETATM   47  C   UNL     1      34.156  24.231  59.996  1.00  0.00     0.012 C 
ENDBRANCH  16  45
TORSDOF 8
ENDMDL
MODEL 10
REMARK VINA RESULT:    -4.586      9.441     15.433
REMARK INTER + INTRA:          -5.868
REMARK INTER:                  -6.658
REMARK INTRA:                   0.790
REMARK UNBOUND:                 0.863
REMARK  8 active torsions:
REMARK  status: ('A' for Active; 'I' for Inactive)
REMARK    1  A    between atoms: C_13  and  C_15 
REMARK    2  A    between atoms: C_14  and  C_16 
REMARK    3  A    between atoms: C_15  and  C_22 
REMARK    4  A    between atoms: C_16  and  C_23 
REMARK    5  A    between atoms: C_17  and  C_21 
REMARK    6  A    between atoms: C_18  and  C_24 
REMARK    7  A    between atoms: C_19  and  C_27 
REMARK    8  A    between atoms: C_20  and  C_30 
ROOT
HETATM    1  O   UNL     1      39.076  35.818  55.266  1.00  0.00    -0.304 OA
HETATM    2  O   UNL     1      35.189  37.857  57.311  1.00  0.00    -0.304 OA
HETATM    3  O   UNL     1      36.252  39.817  53.924  1.00  0.00    -0.304 OA
HETATM    4  O   UNL     1      36.464  36.057  55.020  1.00  0.00    -0.270 OA
HETATM    5  O   UNL     1      39.329  37.712  56.561  1.00  0.00    -0.263 OA
HETATM    6  O   UNL     1      37.886  38.115  52.852  1.00  0.00    -0.270 OA
HETATM    7  O   UNL     1      33.053  37.301  57.964  1.00  0.00    -0.263 OA
HETATM    8  O   UNL     1      33.127  40.381  58.436  1.00  0.00    -0.270 OA
HETATM    9  O   UNL     1      35.548  41.741  54.984  1.00  0.00    -0.263 OA
HETATM   10  N   UNL     1      35.933  35.318  57.153  1.00  0.00    -0.340 N 
HETATM   11  N   UNL     1      39.646  38.992  54.083  1.00  0.00    -0.340 N 
HETATM   12  N   UNL     1      33.474  40.294  56.146  1.00  0.00    -0.340 N 
HETATM   13  C   UNL     1      34.493  35.613  56.964  1.00  0.00     0.190 C 
HETATM   14  C   UNL     1      40.214  37.646  54.293  1.00  0.00     0.190 C 
HETATM   15  C   UNL     1      38.292  35.176  56.291  1.00  0.00     0.227 C 
HETATM   16  C   UNL     1      34.159  39.730  54.963  1.00  0.00     0.190 C 
HETATM   17  C   UNL     1      37.577  40.335  53.677  1.00  0.00     0.227 C 
HETATM   18  C   UNL     1      35.115  39.220  57.741  1.00  0.00     0.227 C 
HETATM   19  C   UNL     1      36.821  35.561  56.095  1.00  0.00     0.250 C 
HETATM   20  C   UNL     1      39.500  37.093  55.519  1.00  0.00     0.283 C 
HETATM   21  C   UNL     1      38.386  39.060  53.472  1.00  0.00     0.250 C 
HETATM   22  C   UNL     1      34.152  36.998  57.516  1.00  0.00     0.283 C 
HETATM   23  C   UNL     1      33.808  40.000  57.478  1.00  0.00     0.250 C 
HETATM   24  C   UNL     1      35.379  40.580  54.645  1.00  0.00     0.283 C 
HETATM   25  C   UNL     1      36.334  34.852  58.485  1.00  0.00     0.153 C 
HETATM   26  C   UNL     1      40.345  40.152  54.642  1.00  0.00     0.153 C 
HETATM   27  C   UNL     1      32.369  41.223  55.908  1.00  0.00     0.153 C 
ENDROOT
BRANCH  15  28
HETATM   28  C   UNL     1      38.469  33.674  56.113  1.00  0.00     0.016 C 
HETATM   29  C   UNL     1      39.146  33.366  54.779  1.00  0.00     0.012 C 
HETATM   30  C   UNL     1      39.274  33.085  57.270  1.00  0.00     0.012 C 
ENDBRANCH  15  28
BRANCH  14  31
HETATM   31  C   UNL     1      41.721  37.567  54.496  1.00  0.00     0.014 C 
HETATM   32  C   UNL     1      42.102  36.176  55.009  1.00  0.00     0.012 C 
BRANCH  31  33
HETATM   33  C   UNL     1      42.502  37.880  53.207  1.00  0.00     0.002 C 
HETATM   34  C   UNL     1      42.865  36.642  52.399  1.00  0.00     0.005 C 
ENDBRANCH  31  33
ENDBRANCH  14  31
BRANCH  13  35
HETATM   35  C   UNL     1      33.572  34.539  57.541  1.00  0.00     0.014 C 
HETATM   36  C   UNL     1      33.089  34.961  58.931  1.00  0.00     0.012 C 
BRANCH  35  37
HETATM   37  C   UNL     1      32.361  34.255  56.633  1.00  0.00     0.002 C 
HETATM   38  C   UNL     1      32.510  34.815  55.226  1.00  0.00     0.005 C 
ENDBRANCH  35  37
ENDBRANCH  13  35
BRANCH  17  39
HETATM   39  C   UNL     1      37.582  41.183  52.418  1.00  0.00     0.016 C 
HETATM   40  C   UNL     1      38.492  40.566  51.359  1.00  0.00     0.012 C 
HETATM   41  C   UNL     1      38.020  42.611  52.736  1.00  0.00     0.012 C 
ENDBRANCH  17  39
BRANCH  18  42
HETATM   42  C   UNL     1      35.501  39.258  59.220  1.00  0.00     0.016 C 
HETATM   43  C   UNL     1      36.582  38.221  59.523  1.00  0.00     0.012 C 
HETATM   44  C   UNL     1      35.973  40.655  59.619  1.00  0.00     0.012 C 
ENDBRANCH  18  42
BRANCH  16  45
HETATM   45  C   UNL     1      33.285  39.581  53.719  1.00  0.00     0.010 C 
HETATM   46  C   UNL     1      32.781  38.145  53.582  1.00  0.00     0.012 C 
HETATM   47  C   UNL     1      34.053  40.000  52.466  1.00  0.00     0.012 C 
ENDBRANCH  16  45
TORSDOF 8
ENDMDL
MODEL 11
REMARK VINA RESULT:    -4.550      3.046      7.043
REMARK INTER + INTRA:          -5.814
REMARK INTER:                  -6.028
REMARK INTRA:                   0.213
REMARK UNBOUND:                 0.863
REMARK  8 active torsions:
REMARK  status: ('A' for Active; 'I' for Inactive)
REMARK    1  A    between atoms: C_13  and  C_15 
REMARK    2  A    between atoms: C_14  and  C_16 
REMARK    3  A    between atoms: C_15  and  C_22 
REMARK    4  A    between atoms: C_16  and  C_23 
REMARK    5  A    between atoms: C_17  and  C_21 
REMARK    6  A    between atoms: C_18  and  C_24 
REMARK    7  A    between atoms: C_19  and  C_27 
REMARK    8  A    between atoms: C_20  and  C_30 
ROOT
HETATM    1  O   UNL     1      27.996  25.937  57.465  1.00  0.00    -0.304 OA
HETATM    2  O   UNL     1      31.172  29.569  57.053  1.00  0.00    -0.304 OA
HETATM    3  O   UNL     1      28.182  30.530  59.617  1.00  0.00    -0.304 OA
HETATM    4  O   UNL     1      29.963  27.151  58.729  1.00  0.00    -0.270 OA
HETATM    5  O   UNL     1      27.518  27.720  56.080  1.00  0.00    -0.263 OA
HETATM    6  O   UNL     1      27.109  28.208  60.029  1.00  0.00    -0.270 OA
HETATM    7  O   UNL     1      33.418  29.980  57.345  1.00  0.00    -0.263 OA
HETATM    8  O   UNL     1      32.285  32.816  56.722  1.00  0.00    -0.270 OA
HETATM    9  O   UNL     1      28.390  32.689  58.830  1.00  0.00    -0.263 OA
HETATM   10  N   UNL     1      31.531  26.943  57.032  1.00  0.00    -0.340 N 
HETATM   11  N   UNL     1      25.773  28.464  58.150  1.00  0.00    -0.340 N 
HETATM   12  N   UNL     1      31.145  32.324  58.680  1.00  0.00    -0.340 N 
HETATM   13  C   UNL     1      32.528  27.756  57.768  1.00  0.00     0.190 C 
HETATM   14  C   UNL     1      25.933  27.039  57.800  1.00  0.00     0.190 C 
HETATM   15  C   UNL     1      29.304  25.784  56.878  1.00  0.00     0.227 C 
HETATM   16  C   UNL     1      30.350  31.398  59.514  1.00  0.00     0.190 C 
HETATM   17  C   UNL     1      26.779  30.452  59.283  1.00  0.00     0.227 C 
HETATM   18  C   UNL     1      30.844  30.893  56.619  1.00  0.00     0.227 C 
HETATM   19  C   UNL     1      30.287  26.689  57.629  1.00  0.00     0.250 C 
HETATM   20  C   UNL     1      27.224  26.963  56.996  1.00  0.00     0.283 C 
HETATM   21  C   UNL     1      26.551  28.948  59.212  1.00  0.00     0.250 C 
HETATM   22  C   UNL     1      32.459  29.218  57.329  1.00  0.00     0.283 C 
HETATM   23  C   UNL     1      31.505  32.086  57.344  1.00  0.00     0.250 C 
HETATM   24  C   UNL     1      28.872  31.656  59.270  1.00  0.00     0.283 C 
HETATM   25  C   UNL     1      31.905  26.521  55.678  1.00  0.00     0.153 C 
HETATM   26  C   UNL     1      24.939  29.314  57.297  1.00  0.00     0.153 C 
HETATM   27  C   UNL     1      31.588  33.577  59.293  1.00  0.00     0.153 C 
ENDROOT
BRANCH  15  28
HETATM   28  C   UNL     1      29.700  24.323  57.048  1.00  0.00     0.016 C 
HETATM   29  C   UNL     1      29.103  23.748  58.332  1.00  0.00     0.012 C 
HETATM   30  C   UNL     1      29.261  23.500  55.839  1.00  0.00     0.012 C 
ENDBRANCH  15  28
BRANCH  14  31
HETATM   31  C   UNL     1      24.798  26.399  57.012  1.00  0.00     0.014 C 
HETATM   32  C   UNL     1      25.306  25.143  56.300  1.00  0.00     0.012 C 
BRANCH  31  33
HETATM   33  C   UNL     1      23.595  26.043  57.904  1.00  0.00     0.002 C 
HETATM   34  C   UNL     1      23.990  25.525  59.280  1.00  0.00     0.005 C 
ENDBRANCH  31  33
ENDBRANCH  14  31
BRANCH  13  35
HETATM   35  C   UNL     1      33.951  27.208  57.669  1.00  0.00     0.014 C 
HETATM   36  C   UNL     1      34.818  27.812  58.777  1.00  0.00     0.012 C 
BRANCH  35  37
HETATM   37  C   UNL     1      33.995  25.671  57.754  1.00  0.00     0.002 C 
HETATM   38  C   UNL     1      35.141  25.051  56.967  1.00  0.00     0.005 C 
ENDBRANCH  35  37
ENDBRANCH  13  35
BRANCH  17  39
HETATM   39  C   UNL     1      25.941  31.072  60.386  1.00  0.00     0.016 C 
HETATM   40  C   UNL     1      25.001  30.033  60.993  1.00  0.00     0.012 C 
HETATM   41  C   UNL     1      25.151  32.265  59.854  1.00  0.00     0.012 C 
ENDBRANCH  17  39
BRANCH  18  42
HETATM   42  C   UNL     1      31.083  30.954  55.109  1.00  0.00     0.016 C 
HETATM   43  C   UNL     1      30.644  29.652  54.439  1.00  0.00     0.012 C 
HETATM   44  C   UNL     1      30.350  32.145  54.495  1.00  0.00     0.012 C 
ENDBRANCH  18  42
BRANCH  16  45
HETATM   45  C   UNL     1      30.651  31.456  61.011  1.00  0.00     0.010 C 
HETATM   46  C   UNL     1      30.991  30.066  61.548  1.00  0.00     0.012 C 
HETATM   47  C   UNL     1      29.471  32.050  61.778  1.00  0.00     0.012 C 
ENDBRANCH  16  45
TORSDOF 8
ENDMDL
MODEL 12
REMARK VINA RESULT:    -4.529      2.657      6.915
REMARK INTER + INTRA:          -5.785
REMARK INTER:                  -6.283
REMARK INTRA:                   0.498
REMARK UNBOUND:                 0.863
REMARK  8 active torsions:
REMARK  status: ('A' for Active; 'I' for Inactive)
REMARK    1  A    between atoms: C_13  and  C_15 
REMARK    2  A    between atoms: C_14  and  C_16 
REMARK    3  A    between atoms: C_15  and  C_22 
REMARK    4  A    between atoms: C_16  and  C_23 
REMARK    5  A    between atoms: C_17  and  C_21 
REMARK    6  A    between atoms: C_18  and  C_24 
REMARK    7  A    between atoms: C_19  and  C_27 
REMARK    8  A    between atoms: C_20  and  C_30 
ROOT
HETATM    1  O   UNL     1      30.093  27.986  56.091  1.00  0.00    -0.304 OA
HETATM    2  O   UNL     1      27.799  25.732  59.711  1.00  0.00    -0.304 OA
HETATM    3  O   UNL     1      25.514  28.700  58.161  1.00  0.00    -0.304 OA
HETATM    4  O   UNL     1      28.162  26.267  56.597  1.00  0.00    -0.270 OA
HETATM    5  O   UNL     1      30.074  28.933  58.195  1.00  0.00    -0.263 OA
HETATM    6  O   UNL     1      26.772  29.201  55.952  1.00  0.00    -0.270 OA
HETATM    7  O   UNL     1      27.096  23.620  60.300  1.00  0.00    -0.263 OA
HETATM    8  O   UNL     1      25.890  25.393  62.562  1.00  0.00    -0.270 OA
HETATM    9  O   UNL     1      24.731  29.027  60.307  1.00  0.00    -0.263 OA
HETATM   10  N   UNL     1      29.443  24.797  57.854  1.00  0.00    -0.340 N 
HETATM   11  N   UNL     1      28.184  30.671  57.061  1.00  0.00    -0.340 N 
HETATM   12  N   UNL     1      24.809  26.274  60.710  1.00  0.00    -0.340 N 
HETATM   13  C   UNL     1      28.266  23.965  58.195  1.00  0.00     0.190 C 
HETATM   14  C   UNL     1      29.339  30.219  56.261  1.00  0.00     0.190 C 
HETATM   15  C   UNL     1      30.513  26.715  56.626  1.00  0.00     0.227 C 
HETATM   16  C   UNL     1      24.831  26.790  59.325  1.00  0.00     0.190 C 
HETATM   17  C   UNL     1      25.957  30.067  58.023  1.00  0.00     0.227 C 
HETATM   18  C   UNL     1      27.327  26.372  60.901  1.00  0.00     0.227 C 
HETATM   19  C   UNL     1      29.267  25.915  57.024  1.00  0.00     0.250 C 
HETATM   20  C   UNL     1      29.879  28.994  56.989  1.00  0.00     0.283 C 
HETATM   21  C   UNL     1      26.986  29.959  56.905  1.00  0.00     0.250 C 
HETATM   22  C   UNL     1      27.684  24.384  59.545  1.00  0.00     0.283 C 
HETATM   23  C   UNL     1      25.950  25.951  61.461  1.00  0.00     0.250 C 
HETATM   24  C   UNL     1      25.000  28.301  59.361  1.00  0.00     0.283 C 
HETATM   25  C   UNL     1      30.714  24.422  58.483  1.00  0.00     0.153 C 
HETATM   26  C   UNL     1      28.382  31.724  58.061  1.00  0.00     0.153 C 
HETATM   27  C   UNL     1      23.502  26.086  61.340  1.00  0.00     0.153 C 
ENDROOT
BRANCH  15  28
HETATM   28  C   UNL     1      31.268  25.993  55.517  1.00  0.00     0.016 C 
HETATM   29  C   UNL     1      31.055  26.692  54.176  1.00  0.00     0.012 C 
HETATM   30  C   UNL     1      32.758  25.909  55.846  1.00  0.00     0.012 C 
ENDBRANCH  15  28
BRANCH  14  31
HETATM   31  C   UNL     1      30.460  31.228  56.052  1.00  0.00     0.014 C 
HETATM   32  C   UNL     1      31.770  30.493  55.760  1.00  0.00     0.012 C 
BRANCH  31  33
HETATM   33  C   UNL     1      30.151  32.217  54.914  1.00  0.00     0.002 C 
HETATM   34  C   UNL     1      31.163  33.349  54.798  1.00  0.00     0.005 C 
ENDBRANCH  31  33
ENDBRANCH  14  31
BRANCH  13  35
HETATM   35  C   UNL     1      28.551  22.464  58.150  1.00  0.00     0.014 C 
HETATM   36  C   UNL     1      27.234  21.688  58.061  1.00  0.00     0.012 C 
BRANCH  35  37
HETATM   37  C   UNL     1      29.464  22.074  56.974  1.00  0.00     0.002 C 
HETATM   38  C   UNL     1      28.748  22.041  55.632  1.00  0.00     0.005 C 
ENDBRANCH  35  37
ENDBRANCH  13  35
BRANCH  17  39
HETATM   39  C   UNL     1      24.799  30.954  57.603  1.00  0.00     0.016 C 
HETATM   40  C   UNL     1      24.179  30.448  56.303  1.00  0.00     0.012 C 
HETATM   41  C   UNL     1      25.261  32.402  57.449  1.00  0.00     0.012 C 
ENDBRANCH  17  39
BRANCH  18  42
HETATM   42  C   UNL     1      28.424  26.245  61.959  1.00  0.00     0.016 C 
HETATM   43  C   UNL     1      29.807  26.271  61.309  1.00  0.00     0.012 C 
HETATM   44  C   UNL     1      28.301  27.355  63.000  1.00  0.00     0.012 C 
ENDBRANCH  18  42
BRANCH  16  45
HETATM   45  C   UNL     1      23.617  26.420  58.476  1.00  0.00     0.010 C 
HETATM   46  C   UNL     1      24.048  25.696  57.202  1.00  0.00     0.012 C 
HETATM   47  C   UNL     1      22.797  27.663  58.133  1.00  0.00     0.012 C 
ENDBRANCH  16  45
TORSDOF 8
ENDMDL
MODEL 13
REMARK VINA RESULT:    -4.342     10.189     15.515
REMARK INTER + INTRA:          -5.510
REMARK INTER:                  -5.890
REMARK INTRA:                   0.380
REMARK UNBOUND:                 0.863
REMARK  8 active torsions:
REMARK  status: ('A' for Active; 'I' for Inactive)
REMARK    1  A    between atoms: C_13  and  C_15 
REMARK    2  A    between atoms: C_14  and  C_16 
REMARK    3  A    between atoms: C_15  and  C_22 
REMARK    4  A    between atoms: C_16  and  C_23 
REMARK    5  A    between atoms: C_17  and  C_21 
REMARK    6  A    between atoms: C_18  and  C_24 
REMARK    7  A    between atoms: C_19  and  C_27 
REMARK    8  A    between atoms: C_20  and  C_30 
ROOT
HETATM    1  O   UNL     1      35.959  34.735  56.617  1.00  0.00    -0.304 OA
HETATM    2  O   UNL     1      37.521  39.313  56.844  1.00  0.00    -0.304 OA
HETATM    3  O   UNL     1      40.321  36.897  55.182  1.00  0.00    -0.304 OA
HETATM    4  O   UNL     1      36.399  36.872  55.141  1.00  0.00    -0.270 OA
HETATM    5  O   UNL     1      37.377  35.374  58.322  1.00  0.00    -0.263 OA
HETATM    6  O   UNL     1      38.919  34.777  54.680  1.00  0.00    -0.270 OA
HETATM    7  O   UNL     1      36.915  41.413  56.124  1.00  0.00    -0.263 OA
HETATM    8  O   UNL     1      39.715  41.915  57.396  1.00  0.00    -0.270 OA
HETATM    9  O   UNL     1      41.889  38.240  56.213  1.00  0.00    -0.263 OA
HETATM   10  N   UNL     1      35.101  38.328  56.396  1.00  0.00    -0.340 N 
HETATM   11  N   UNL     1      39.304  33.984  56.827  1.00  0.00    -0.340 N 
HETATM   12  N   UNL     1      40.280  40.449  55.691  1.00  0.00    -0.340 N 
HETATM   13  C   UNL     1      35.517  39.497  55.585  1.00  0.00     0.190 C 
HETATM   14  C   UNL     1      37.926  33.462  56.917  1.00  0.00     0.190 C 
HETATM   15  C   UNL     1      35.090  35.857  56.869  1.00  0.00     0.227 C 
HETATM   16  C   UNL     1      40.049  39.206  54.926  1.00  0.00     0.190 C 
HETATM   17  C   UNL     1      40.816  35.693  55.805  1.00  0.00     0.227 C 
HETATM   18  C   UNL     1      38.702  39.738  57.532  1.00  0.00     0.227 C 
HETATM   19  C   UNL     1      35.594  37.058  56.060  1.00  0.00     0.250 C 
HETATM   20  C   UNL     1      37.080  34.635  57.393  1.00  0.00     0.283 C 
HETATM   21  C   UNL     1      39.615  34.762  55.702  1.00  0.00     0.250 C 
HETATM   22  C   UNL     1      36.697  40.214  56.240  1.00  0.00     0.283 C 
HETATM   23  C   UNL     1      39.594  40.807  56.863  1.00  0.00     0.250 C 
HETATM   24  C   UNL     1      40.887  38.090  55.529  1.00  0.00     0.283 C 
HETATM   25  C   UNL     1      34.247  38.608  57.555  1.00  0.00     0.153 C 
HETATM   26  C   UNL     1      40.212  33.791  57.960  1.00  0.00     0.153 C 
HETATM   27  C   UNL     1      41.297  41.374  55.187  1.00  0.00     0.153 C 
ENDROOT
BRANCH  15  28
HETATM   28  C   UNL     1      33.697  35.457  56.400  1.00  0.00     0.016 C 
HETATM   29  C   UNL     1      33.592  35.551  54.879  1.00  0.00     0.012 C 
HETATM   30  C   UNL     1      33.354  34.045  56.873  1.00  0.00     0.012 C 
ENDBRANCH  15  28
BRANCH  14  31
HETATM   31  C   UNL     1      37.711  32.266  57.834  1.00  0.00     0.014 C 
HETATM   32  C   UNL     1      36.235  32.177  58.229  1.00  0.00     0.012 C 
BRANCH  31  33
HETATM   33  C   UNL     1      38.159  30.944  57.186  1.00  0.00     0.002 C 
HETATM   34  C   UNL     1      38.383  31.047  55.683  1.00  0.00     0.005 C 
ENDBRANCH  31  33
ENDBRANCH  14  31
BRANCH  13  35
HETATM   35  C   UNL     1      34.372  40.463  55.282  1.00  0.00     0.014 C 
HETATM   36  C   UNL     1      34.759  41.377  54.116  1.00  0.00     0.012 C 
BRANCH  35  37
HETATM   37  C   UNL     1      33.057  39.733  54.956  1.00  0.00     0.002 C 
HETATM   38  C   UNL     1      33.068  39.034  53.604  1.00  0.00     0.005 C 
ENDBRANCH  35  37
ENDBRANCH  13  35
BRANCH  17  39
HETATM   39  C   UNL     1      41.993  35.141  55.020  1.00  0.00     0.016 C 
HETATM   40  C   UNL     1      41.650  33.777  54.426  1.00  0.00     0.012 C 
HETATM   41  C   UNL     1      43.232  35.044  55.908  1.00  0.00     0.012 C 
ENDBRANCH  17  39
BRANCH  18  42
HETATM   42  C   UNL     1      38.287  40.159  58.942  1.00  0.00     0.016 C 
HETATM   43  C   UNL     1      37.163  39.265  59.465  1.00  0.00     0.012 C 
HETATM   44  C   UNL     1      39.484  40.124  59.890  1.00  0.00     0.012 C 
ENDBRANCH  18  42
BRANCH  16  45
HETATM   45  C   UNL     1      40.316  39.309  53.426  1.00  0.00     0.010 C 
HETATM   46  C   UNL     1      39.031  39.078  52.631  1.00  0.00     0.012 C 
HETATM   47  C   UNL     1      41.394  38.314  52.999  1.00  0.00     0.012 C 
ENDBRANCH  16  45
TORSDOF 8
ENDMDL
MODEL 14
REMARK VINA RESULT:    -4.317     13.143     18.890
REMARK INTER + INTRA:          -5.473
REMARK INTER:                  -6.137
REMARK INTRA:                   0.664
REMARK UNBOUND:                 0.863
REMARK  8 active torsions:
REMARK  status: ('A' for Active; 'I' for Inactive)
REMARK    1  A    between atoms: C_13  and  C_15 
REMARK    2  A    between atoms: C_14  and  C_16 
REMARK    3  A    between atoms: C_15  and  C_22 
REMARK    4  A    between atoms: C_16  and  C_23 
REMARK    5  A    between atoms: C_17  and  C_21 
REMARK    6  A    between atoms: C_18  and  C_24 
REMARK    7  A    between atoms: C_19  and  C_27 
REMARK    8  A    between atoms: C_20  and  C_30 
ROOT
HETATM    1  O   UNL     1      40.043  36.152  54.721  1.00  0.00    -0.304 OA
HETATM    2  O   UNL     1      38.887  40.854  54.678  1.00  0.00    -0.304 OA
HETATM    3  O   UNL     1      41.635  40.002  51.821  1.00  0.00    -0.304 OA
HETATM    4  O   UNL     1      38.673  37.958  53.380  1.00  0.00    -0.270 OA
HETATM    5  O   UNL     1      41.436  37.679  55.748  1.00  0.00    -0.263 OA
HETATM    6  O   UNL     1      41.505  37.414  51.757  1.00  0.00    -0.270 OA
HETATM    7  O   UNL     1      37.039  42.206  54.447  1.00  0.00    -0.263 OA
HETATM    8  O   UNL     1      39.380  44.262  54.505  1.00  0.00    -0.270 OA
HETATM    9  O   UNL     1      42.508  42.097  52.233  1.00  0.00    -0.263 OA
HETATM   10  N   UNL     1      37.408  38.711  55.173  1.00  0.00    -0.340 N 
HETATM   11  N   UNL     1      43.047  37.269  53.485  1.00  0.00    -0.340 N 
HETATM   12  N   UNL     1      39.921  43.056  52.600  1.00  0.00    -0.340 N 
HETATM   13  C   UNL     1      36.789  39.787  54.365  1.00  0.00     0.190 C 
HETATM   14  C   UNL     1      42.319  36.134  54.085  1.00  0.00     0.190 C 
HETATM   15  C   UNL     1      38.891  36.691  55.399  1.00  0.00     0.227 C 
HETATM   16  C   UNL     1      40.109  41.771  51.894  1.00  0.00     0.190 C 
HETATM   17  C   UNL     1      42.888  39.334  52.084  1.00  0.00     0.227 C 
HETATM   18  C   UNL     1      39.820  41.924  54.857  1.00  0.00     0.227 C 
HETATM   19  C   UNL     1      38.323  37.841  54.560  1.00  0.00     0.250 C 
HETATM   20  C   UNL     1      41.243  36.761  54.962  1.00  0.00     0.283 C 
HETATM   21  C   UNL     1      42.434  37.915  52.401  1.00  0.00     0.250 C 
HETATM   22  C   UNL     1      37.554  41.099  54.540  1.00  0.00     0.283 C 
HETATM   23  C   UNL     1      39.668  43.184  53.975  1.00  0.00     0.250 C 
HETATM   24  C   UNL     1      41.566  41.352  52.007  1.00  0.00     0.283 C 
HETATM   25  C   UNL     1      37.065  38.684  56.599  1.00  0.00     0.153 C 
HETATM   26  C   UNL     1      44.273  37.745  54.130  1.00  0.00     0.153 C 
HETATM   27  C   UNL     1      40.004  44.283  51.806  1.00  0.00     0.153 C 
ENDROOT
BRANCH  15  28
HETATM   28  C   UNL     1      37.871  35.566  55.506  1.00  0.00     0.016 C 
HETATM   29  C   UNL     1      36.845  35.658  54.379  1.00  0.00     0.012 C 
HETATM   30  C   UNL     1      38.564  34.205  55.488  1.00  0.00     0.012 C 
ENDBRANCH  15  28
BRANCH  14  31
HETATM   31  C   UNL     1      43.145  35.153  54.905  1.00  0.00     0.014 C 
HETATM   32  C   UNL     1      42.245  34.442  55.920  1.00  0.00     0.012 C 
BRANCH  31  33
HETATM   33  C   UNL     1      43.862  34.114  54.026  1.00  0.00     0.002 C 
HETATM   34  C   UNL     1      44.026  32.757  54.697  1.00  0.00     0.005 C 
ENDBRANCH  31  33
ENDBRANCH  14  31
BRANCH  13  35
HETATM   35  C   UNL     1      35.297  39.969  54.638  1.00  0.00     0.014 C 
HETATM   36  C   UNL     1      34.663  40.805  53.523  1.00  0.00     0.012 C 
BRANCH  35  37
HETATM   37  C   UNL     1      34.555  38.626  54.765  1.00  0.00     0.002 C 
HETATM   38  C   UNL     1      33.381  38.669  55.732  1.00  0.00     0.005 C 
ENDBRANCH  35  37
ENDBRANCH  13  35
BRANCH  17  39
HETATM   39  C   UNL     1      43.764  39.354  50.844  1.00  0.00     0.016 C 
HETATM   40  C   UNL     1      43.892  37.951  50.255  1.00  0.00     0.012 C 
HETATM   41  C   UNL     1      45.142  39.927  51.170  1.00  0.00     0.012 C 
ENDBRANCH  17  39
BRANCH  18  42
HETATM   42  C   UNL     1      39.830  42.281  56.344  1.00  0.00     0.016 C 
HETATM   43  C   UNL     1      39.654  41.029  57.202  1.00  0.00     0.012 C 
HETATM   44  C   UNL     1      41.122  43.007  56.717  1.00  0.00     0.012 C 
ENDBRANCH  18  42
BRANCH  16  45
HETATM   45  C   UNL     1      39.674  41.768  50.430  1.00  0.00     0.010 C 
HETATM   46  C   UNL     1      38.486  40.830  50.221  1.00  0.00     0.012 C 
HETATM   47  C   UNL     1      40.836  41.367  49.522  1.00  0.00     0.012 C 
ENDBRANCH  16  45
TORSDOF 8
ENDMDL
MODEL 15
REMARK VINA RESULT:    -4.244      4.402      8.732
REMARK INTER + INTRA:          -5.366
REMARK INTER:                  -5.856
REMARK INTRA:                   0.491
REMARK UNBOUND:                 0.863
REMARK  8 active torsions:
REMARK  status: ('A' for Active; 'I' for Inactive)
REMARK    1  A    between atoms: C_13  and  C_15 
REMARK    2  A    between atoms: C_14  and  C_16 
REMARK    3  A    between atoms: C_15  and  C_22 
REMARK    4  A    between atoms: C_16  and  C_23 
REMARK    5  A    between atoms: C_17  and  C_21 
REMARK    6  A    between atoms: C_18  and  C_24 
REMARK    7  A    between atoms: C_19  and  C_27 
REMARK    8  A    between atoms: C_20  and  C_30 
ROOT
HETATM    1  O   UNL     1      27.613  27.011  57.290  1.00  0.00    -0.304 OA
HETATM    2  O   UNL     1      31.716  24.532  56.609  1.00  0.00    -0.304 OA
HETATM    3  O   UNL     1      32.451  28.118  58.353  1.00  0.00    -0.304 OA
HETATM    4  O   UNL     1      29.445  25.606  58.559  1.00  0.00    -0.270 OA
HETATM    5  O   UNL     1      28.956  27.503  55.479  1.00  0.00    -0.263 OA
HETATM    6  O   UNL     1      30.066  28.813  59.092  1.00  0.00    -0.270 OA
HETATM    7  O   UNL     1      32.660  22.510  57.172  1.00  0.00    -0.263 OA
HETATM    8  O   UNL     1      35.009  23.982  55.746  1.00  0.00    -0.270 OA
HETATM    9  O   UNL     1      34.417  28.143  57.147  1.00  0.00    -0.263 OA
HETATM   10  N   UNL     1      29.278  23.706  57.239  1.00  0.00    -0.340 N 
HETATM   11  N   UNL     1      29.667  29.749  57.007  1.00  0.00    -0.340 N 
HETATM   12  N   UNL     1      34.650  25.399  57.546  1.00  0.00    -0.340 N 
HETATM   13  C   UNL     1      30.413  23.051  57.930  1.00  0.00     0.190 C 
HETATM   14  C   UNL     1      28.273  29.263  57.018  1.00  0.00     0.190 C 
HETATM   15  C   UNL     1      27.646  25.603  56.979  1.00  0.00     0.227 C 
HETATM   16  C   UNL     1      33.743  26.170  58.422  1.00  0.00     0.190 C 
HETATM   17  C   UNL     1      32.003  29.380  57.816  1.00  0.00     0.227 C 
HETATM   18  C   UNL     1      32.830  24.995  55.839  1.00  0.00     0.227 C 
HETATM   19  C   UNL     1      28.870  24.981  57.661  1.00  0.00     0.250 C 
HETATM   20  C   UNL     1      28.337  27.840  56.479  1.00  0.00     0.283 C 
HETATM   21  C   UNL     1      30.499  29.313  58.047  1.00  0.00     0.250 C 
HETATM   22  C   UNL     1      31.716  23.290  57.168  1.00  0.00     0.283 C 
HETATM   23  C   UNL     1      34.253  24.729  56.377  1.00  0.00     0.250 C 
HETATM   24  C   UNL     1      33.616  27.586  57.883  1.00  0.00     0.283 C 
HETATM   25  C   UNL     1      28.705  22.986  56.097  1.00  0.00     0.153 C 
HETATM   26  C   UNL     1      30.138  30.525  55.857  1.00  0.00     0.153 C 
HETATM   27  C   UNL     1      36.061  25.330  57.926  1.00  0.00     0.153 C 
ENDROOT
BRANCH  15  28
HETATM   28  C   UNL     1      26.367  24.994  57.538  1.00  0.00     0.016 C 
HETATM   29  C   UNL     1      25.843  25.820  58.711  1.00  0.00     0.012 C 
HETATM   30  C   UNL     1      25.303  24.878  56.448  1.00  0.00     0.012 C 
ENDBRANCH  15  28
BRANCH  14  31
HETATM   31  C   UNL     1      27.263  30.072  56.216  1.00  0.00     0.014 C 
HETATM   32  C   UNL     1      26.091  29.177  55.807  1.00  0.00     0.012 C 
BRANCH  31  33
HETATM   33  C   UNL     1      26.741  31.293  56.995  1.00  0.00     0.002 C 
HETATM   34  C   UNL     1      27.001  32.619  56.294  1.00  0.00     0.005 C 
ENDBRANCH  31  33
ENDBRANCH  14  31
BRANCH  13  35
HETATM   35  C   UNL     1      30.185  21.563  58.196  1.00  0.00     0.014 C 
HETATM   36  C   UNL     1      30.853  20.731  57.098  1.00  0.00     0.012 C 
BRANCH  35  37
HETATM   37  C   UNL     1      30.713  21.126  59.574  1.00  0.00     0.002 C 
HETATM   38  C   UNL     1      30.772  22.256  60.591  1.00  0.00     0.005 C 
ENDBRANCH  35  37
ENDBRANCH  13  35
BRANCH  17  39
HETATM   39  C   UNL     1      32.616  30.530  58.595  1.00  0.00     0.016 C 
HETATM   40  C   UNL     1      31.527  31.374  59.251  1.00  0.00     0.012 C 
HETATM   41  C   UNL     1      33.487  31.392  57.684  1.00  0.00     0.012 C 
ENDBRANCH  17  39
BRANCH  18  42
HETATM   42  C   UNL     1      32.661  24.461  54.416  1.00  0.00     0.016 C 
HETATM   43  C   UNL     1      31.194  24.510  53.991  1.00  0.00     0.012 C 
HETATM   44  C   UNL     1      33.529  25.248  53.437  1.00  0.00     0.012 C 
ENDBRANCH  18  42
BRANCH  16  45
HETATM   45  C   UNL     1      34.143  26.205  59.896  1.00  0.00     0.010 C 
HETATM   46  C   UNL     1      33.008  25.685  60.777  1.00  0.00     0.012 C 
HETATM   47  C   UNL     1      34.538  27.621  60.315  1.00  0.00     0.012 C 
ENDBRANCH  16  45
TORSDOF 8
ENDMDL
MODEL 16
REMARK VINA RESULT:    -4.060     14.977     19.879
REMARK INTER + INTRA:          -5.095
REMARK INTER:                  -5.417
REMARK INTRA:                   0.321
REMARK UNBOUND:                 0.863
REMARK  8 active torsions:
REMARK  status: ('A' for Active; 'I' for Inactive)
REMARK    1  A    between atoms: C_13  and  C_15 
REMARK    2  A    between atoms: C_14  and  C_16 
REMARK    3  A    between atoms: C_15  and  C_22 
REMARK    4  A    between atoms: C_16  and  C_23 
REMARK    5  A    between atoms: C_17  and  C_21 
REMARK    6  A    between atoms: C_18  and  C_24 
REMARK    7  A    between atoms: C_19  and  C_27 
REMARK    8  A    between atoms: C_20  and  C_30 
ROOT
HETATM    1  O   UNL     1      41.116  21.861  53.872  1.00  0.00    -0.304 OA
HETATM    2  O   UNL     1      43.588  25.271  56.261  1.00  0.00    -0.304 OA
HETATM    3  O   UNL     1      44.227  25.536  52.266  1.00  0.00    -0.304 OA
HETATM    4  O   UNL     1      41.135  24.439  54.415  1.00  0.00    -0.270 OA
HETATM    5  O   UNL     1      43.360  21.546  54.312  1.00  0.00    -0.263 OA
HETATM    6  O   UNL     1      42.324  24.032  51.353  1.00  0.00    -0.270 OA
HETATM    7  O   UNL     1      43.215  27.018  57.712  1.00  0.00    -0.263 OA
HETATM    8  O   UNL     1      46.256  27.293  57.087  1.00  0.00    -0.270 OA
HETATM    9  O   UNL     1      46.373  26.198  52.795  1.00  0.00    -0.263 OA
HETATM   10  N   UNL     1      41.200  24.218  56.723  1.00  0.00    -0.340 N 
HETATM   11  N   UNL     1      43.664  22.152  51.588  1.00  0.00    -0.340 N 
HETATM   12  N   UNL     1      45.358  27.604  54.972  1.00  0.00    -0.340 N 
HETATM   13  C   UNL     1      41.344  25.680  56.921  1.00  0.00     0.190 C 
HETATM   14  C   UNL     1      42.513  21.346  52.037  1.00  0.00     0.190 C 
HETATM   15  C   UNL     1      40.857  22.211  55.246  1.00  0.00     0.227 C 
HETATM   16  C   UNL     1      44.433  27.205  53.890  1.00  0.00     0.190 C 
HETATM   17  C   UNL     1      44.676  24.434  51.449  1.00  0.00     0.227 C 
HETATM   18  C   UNL     1      45.009  25.430  56.214  1.00  0.00     0.227 C 
HETATM   19  C   UNL     1      41.080  23.718  55.418  1.00  0.00     0.250 C 
HETATM   20  C   UNL     1      42.413  21.585  53.538  1.00  0.00     0.283 C 
HETATM   21  C   UNL     1      43.451  23.529  51.429  1.00  0.00     0.250 C 
HETATM   22  C   UNL     1      42.818  26.060  57.061  1.00  0.00     0.283 C 
HETATM   23  C   UNL     1      45.583  26.863  56.143  1.00  0.00     0.250 C 
HETATM   24  C   UNL     1      45.161  26.275  52.933  1.00  0.00     0.283 C 
HETATM   25  C   UNL     1      41.268  23.386  57.929  1.00  0.00     0.153 C 
HETATM   26  C   UNL     1      44.977  21.512  51.474  1.00  0.00     0.153 C 
HETATM   27  C   UNL     1      46.089  28.861  54.809  1.00  0.00     0.153 C 
ENDROOT
BRANCH  15  28
HETATM   28  C   UNL     1      39.402  21.860  55.529  1.00  0.00     0.016 C 
HETATM   29  C   UNL     1      38.599  21.803  54.231  1.00  0.00     0.012 C 
HETATM   30  C   UNL     1      39.303  20.533  56.278  1.00  0.00     0.012 C 
ENDBRANCH  15  28
BRANCH  14  31
HETATM   31  C   UNL     1      42.578  19.850  51.758  1.00  0.00     0.014 C 
HETATM   32  C   UNL     1      41.649  19.104  52.718  1.00  0.00     0.012 C 
BRANCH  31  33
HETATM   33  C   UNL     1      42.209  19.510  50.303  1.00  0.00     0.002 C 
HETATM   34  C   UNL     1      42.824  18.209  49.807  1.00  0.00     0.005 C 
ENDBRANCH  31  33
ENDBRANCH  14  31
BRANCH  13  35
HETATM   35  C   UNL     1      40.514  26.220  58.085  1.00  0.00     0.014 C 
HETATM   36  C   UNL     1      40.416  27.744  57.989  1.00  0.00     0.012 C 
BRANCH  35  37
HETATM   37  C   UNL     1      39.101  25.610  58.131  1.00  0.00     0.002 C 
HETATM   38  C   UNL     1      38.445  25.697  59.501  1.00  0.00     0.005 C 
ENDBRANCH  35  37
ENDBRANCH  13  35
BRANCH  17  39
HETATM   39  C   UNL     1      45.009  24.919  50.049  1.00  0.00     0.016 C 
HETATM   40  C   UNL     1      44.162  24.186  49.012  1.00  0.00     0.012 C 
HETATM   41  C   UNL     1      46.496  24.734  49.756  1.00  0.00     0.012 C 
ENDBRANCH  17  39
BRANCH  18  42
HETATM   42  C   UNL     1      45.599  24.649  57.389  1.00  0.00     0.016 C 
HETATM   43  C   UNL     1      44.787  23.383  57.659  1.00  0.00     0.012 C 
HETATM   44  C   UNL     1      47.063  24.300  57.125  1.00  0.00     0.012 C 
ENDBRANCH  18  42
BRANCH  16  45
HETATM   45  C   UNL     1      43.805  28.363  53.117  1.00  0.00     0.010 C 
HETATM   46  C   UNL     1      42.299  28.153  52.957  1.00  0.00     0.012 C 
HETATM   47  C   UNL     1      44.469  28.526  51.751  1.00  0.00     0.012 C 
ENDBRANCH  16  45
TORSDOF 8
ENDMDL
MODEL 17
REMARK VINA RESULT:    -4.039      6.138     12.031
REMARK INTER + INTRA:          -5.065
REMARK INTER:                  -6.138
REMARK INTRA:                   1.073
REMARK UNBOUND:                 0.863
REMARK  8 active torsions:
REMARK  status: ('A' for Active; 'I' for Inactive)
REMARK    1  A    between atoms: C_13  and  C_15 
REMARK    2  A    between atoms: C_14  and  C_16 
REMARK    3  A    between atoms: C_15  and  C_22 
REMARK    4  A    between atoms: C_16  and  C_23 
REMARK    5  A    between atoms: C_17  and  C_21 
REMARK    6  A    between atoms: C_18  and  C_24 
REMARK    7  A    between atoms: C_19  and  C_27 
REMARK    8  A    between atoms: C_20  and  C_30 
ROOT
HETATM    1  O   UNL     1      35.437  29.637  58.585  1.00  0.00    -0.304 OA
HETATM    2  O   UNL     1      32.613  33.565  58.369  1.00  0.00    -0.304 OA
HETATM    3  O   UNL     1      36.342  34.372  56.995  1.00  0.00    -0.304 OA
HETATM    4  O   UNL     1      34.094  31.159  56.906  1.00  0.00    -0.270 OA
HETATM    5  O   UNL     1      35.588  31.244  60.235  1.00  0.00    -0.263 OA
HETATM    6  O   UNL     1      37.293  31.981  56.692  1.00  0.00    -0.270 OA
HETATM    7  O   UNL     1      30.625  34.249  57.431  1.00  0.00    -0.263 OA
HETATM    8  O   UNL     1      31.728  36.883  58.683  1.00  0.00    -0.270 OA
HETATM    9  O   UNL     1      36.070  36.474  57.905  1.00  0.00    -0.263 OA
HETATM   10  N   UNL     1      32.049  31.003  57.991  1.00  0.00    -0.340 N 
HETATM   11  N   UNL     1      37.965  31.940  58.913  1.00  0.00    -0.340 N 
HETATM   12  N   UNL     1      33.395  36.415  57.141  1.00  0.00    -0.340 N 
HETATM   13  C   UNL     1      31.416  31.977  57.071  1.00  0.00     0.190 C 
HETATM   14  C   UNL     1      37.581  30.520  59.038  1.00  0.00     0.190 C 
HETATM   15  C   UNL     1      34.002  29.590  58.711  1.00  0.00     0.227 C 
HETATM   16  C   UNL     1      34.337  35.471  56.504  1.00  0.00     0.190 C 
HETATM   17  C   UNL     1      37.549  34.110  57.743  1.00  0.00     0.227 C 
HETATM   18  C   UNL     1      32.892  34.806  59.025  1.00  0.00     0.227 C 
HETATM   19  C   UNL     1      33.394  30.655  57.792  1.00  0.00     0.250 C 
HETATM   20  C   UNL     1      36.098  30.530  59.382  1.00  0.00     0.283 C 
HETATM   21  C   UNL     1      37.616  32.588  57.719  1.00  0.00     0.250 C 
HETATM   22  C   UNL     1      31.461  33.385  57.666  1.00  0.00     0.283 C 
HETATM   23  C   UNL     1      32.603  36.118  58.262  1.00  0.00     0.250 C 
HETATM   24  C   UNL     1      35.673  35.539  57.227  1.00  0.00     0.283 C 
HETATM   25  C   UNL     1      31.223  30.525  59.105  1.00  0.00     0.153 C 
HETATM   26  C   UNL     1      38.545  32.623  60.071  1.00  0.00     0.153 C 
HETATM   27  C   UNL     1      33.281  37.753  56.560  1.00  0.00     0.153 C 
ENDROOT
BRANCH  15  28
HETATM   28  C   UNL     1      33.562  28.201  58.268  1.00  0.00     0.016 C 
HETATM   29  C   UNL     1      34.712  27.463  57.585  1.00  0.00     0.012 C 
HETATM   30  C   UNL     1      33.040  27.395  59.456  1.00  0.00     0.012 C 
ENDBRANCH  15  28
BRANCH  14  31
HETATM   31  C   UNL     1      38.343  29.698  60.068  1.00  0.00     0.014 C 
HETATM   32  C   UNL     1      37.509  28.482  60.478  1.00  0.00     0.012 C 
BRANCH  31  33
HETATM   33  C   UNL     1      39.717  29.238  59.550  1.00  0.00     0.002 C 
HETATM   34  C   UNL     1      39.720  28.876  58.070  1.00  0.00     0.005 C 
ENDBRANCH  31  33
ENDBRANCH  14  31
BRANCH  13  35
HETATM   35  C   UNL     1      29.997  31.588  56.658  1.00  0.00     0.014 C 
HETATM   36  C   UNL     1      29.492  32.545  55.574  1.00  0.00     0.012 C 
BRANCH  35  37
HETATM   37  C   UNL     1      29.910  30.137  56.152  1.00  0.00     0.002 C 
HETATM   38  C   UNL     1      30.769  29.867  54.926  1.00  0.00     0.005 C 
ENDBRANCH  35  37
ENDBRANCH  13  35
BRANCH  17  39
HETATM   39  C   UNL     1      38.748  34.712  57.033  1.00  0.00     0.016 C 
HETATM   40  C   UNL     1      38.497  34.791  55.529  1.00  0.00     0.012 C 
HETATM   41  C   UNL     1      40.008  33.901  57.326  1.00  0.00     0.012 C 
ENDBRANCH  17  39
BRANCH  18  42
HETATM   42  C   UNL     1      32.183  34.780  60.380  1.00  0.00     0.016 C 
HETATM   43  C   UNL     1      32.206  33.372  60.974  1.00  0.00     0.012 C 
HETATM   44  C   UNL     1      32.823  35.777  61.343  1.00  0.00     0.012 C 
ENDBRANCH  18  42
BRANCH  16  45
HETATM   45  C   UNL     1      34.543  35.676  55.004  1.00  0.00     0.010 C 
HETATM   46  C   UNL     1      35.390  36.920  54.740  1.00  0.00     0.012 C 
HETATM   47  C   UNL     1      33.200  35.782  54.283  1.00  0.00     0.012 C 
ENDBRANCH  16  45
TORSDOF 8
ENDMDL
MODEL 18
REMARK VINA RESULT:    -4.006     12.261     17.167
REMARK INTER + INTRA:          -5.016
REMARK INTER:                  -6.004
REMARK INTRA:                   0.988
REMARK UNBOUND:                 0.863
REMARK  8 active torsions:
REMARK  status: ('A' for Active; 'I' for Inactive)
REMARK    1  A    between atoms: C_13  and  C_15 
REMARK    2  A    between atoms: C_14  and  C_16 
REMARK    3  A    between atoms: C_15  and  C_22 
REMARK    4  A    between atoms: C_16  and  C_23 
REMARK    5  A    between atoms: C_17  and  C_21 
REMARK    6  A    between atoms: C_18  and  C_24 
REMARK    7  A    between atoms: C_19  and  C_27 
REMARK    8  A    between atoms: C_20  and  C_30 
ROOT
HETATM    1  O   UNL     1      36.196  39.749  53.030  1.00  0.00    -0.304 OA
HETATM    2  O   UNL     1      40.835  41.072  53.461  1.00  0.00    -0.304 OA
HETATM    3  O   UNL     1      40.241  37.338  54.925  1.00  0.00    -0.304 OA
HETATM    4  O   UNL     1      38.588  39.359  51.998  1.00  0.00    -0.270 OA
HETATM    5  O   UNL     1      36.977  40.529  55.057  1.00  0.00    -0.263 OA
HETATM    6  O   UNL     1      37.896  36.791  53.968  1.00  0.00    -0.270 OA
HETATM    7  O   UNL     1      42.591  41.770  52.147  1.00  0.00    -0.263 OA
HETATM    8  O   UNL     1      43.924  41.446  54.946  1.00  0.00    -0.270 OA
HETATM    9  O   UNL     1      41.852  37.849  56.495  1.00  0.00    -0.263 OA
HETATM   10  N   UNL     1      39.054  41.590  51.567  1.00  0.00    -0.340 N 
HETATM   11  N   UNL     1      36.886  37.820  55.787  1.00  0.00    -0.340 N 
HETATM   12  N   UNL     1      43.243  39.266  54.545  1.00  0.00    -0.340 N 
HETATM   13  C   UNL     1      40.435  41.282  51.130  1.00  0.00     0.190 C 
HETATM   14  C   UNL     1      35.830  38.384  54.924  1.00  0.00     0.190 C 
HETATM   15  C   UNL     1      36.767  40.876  52.335  1.00  0.00     0.227 C 
HETATM   16  C   UNL     1      42.218  38.291  54.119  1.00  0.00     0.190 C 
HETATM   17  C   UNL     1      39.249  37.013  55.923  1.00  0.00     0.227 C 
HETATM   18  C   UNL     1      41.552  41.138  54.697  1.00  0.00     0.227 C 
HETATM   19  C   UNL     1      38.214  40.537  51.958  1.00  0.00     0.250 C 
HETATM   20  C   UNL     1      36.406  39.685  54.380  1.00  0.00     0.283 C 
HETATM   21  C   UNL     1      37.949  37.167  55.144  1.00  0.00     0.250 C 
HETATM   22  C   UNL     1      41.417  41.451  52.289  1.00  0.00     0.283 C 
HETATM   23  C   UNL     1      43.014  40.640  54.724  1.00  0.00     0.250 C 
HETATM   24  C   UNL     1      41.452  37.810  55.341  1.00  0.00     0.283 C 
HETATM   25  C   UNL     1      38.689  43.010  51.628  1.00  0.00     0.153 C 
HETATM   26  C   UNL     1      36.846  38.090  57.226  1.00  0.00     0.153 C 
HETATM   27  C   UNL     1      44.593  38.762  54.798  1.00  0.00     0.153 C 
ENDROOT
BRANCH  15  28
HETATM   28  C   UNL     1      35.935  41.091  51.078  1.00  0.00     0.016 C 
HETATM   29  C   UNL     1      34.862  40.011  50.949  1.00  0.00     0.012 C 
HETATM   30  C   UNL     1      35.297  42.480  51.084  1.00  0.00     0.012 C 
ENDBRANCH  15  28
BRANCH  14  31
HETATM   31  C   UNL     1      34.484  38.653  55.583  1.00  0.00     0.014 C 
HETATM   32  C   UNL     1      33.847  39.901  54.967  1.00  0.00     0.012 C 
BRANCH  31  33
HETATM   33  C   UNL     1      33.522  37.459  55.456  1.00  0.00     0.002 C 
HETATM   34  C   UNL     1      34.159  36.228  54.826  1.00  0.00     0.005 C 
ENDBRANCH  31  33
ENDBRANCH  14  31
BRANCH  13  35
HETATM   35  C   UNL     1      40.876  42.080  49.903  1.00  0.00     0.014 C 
HETATM   36  C   UNL     1      41.733  43.271  50.339  1.00  0.00     0.012 C 
BRANCH  35  37
HETATM   37  C   UNL     1      41.656  41.220  48.892  1.00  0.00     0.002 C 
HETATM   38  C   UNL     1      42.179  42.007  47.699  1.00  0.00     0.005 C 
ENDBRANCH  35  37
ENDBRANCH  13  35
BRANCH  17  39
HETATM   39  C   UNL     1      39.427  35.582  56.394  1.00  0.00     0.016 C 
HETATM   40  C   UNL     1      38.220  34.733  56.001  1.00  0.00     0.012 C 
HETATM   41  C   UNL     1      39.644  35.537  57.905  1.00  0.00     0.012 C 
ENDBRANCH  17  39
BRANCH  18  42
HETATM   42  C   UNL     1      41.440  42.572  55.218  1.00  0.00     0.016 C 
HETATM   43  C   UNL     1      40.075  43.167  54.874  1.00  0.00     0.012 C 
HETATM   44  C   UNL     1      41.679  42.619  56.726  1.00  0.00     0.012 C 
ENDBRANCH  18  42
BRANCH  16  45
HETATM   45  C   UNL     1      42.750  37.096  53.330  1.00  0.00     0.010 C 
HETATM   46  C   UNL     1      42.381  37.216  51.852  1.00  0.00     0.012 C 
HETATM   47  C   UNL     1      42.217  35.785  53.909  1.00  0.00     0.012 C 
ENDBRANCH  16  45
TORSDOF 8
ENDMDL
MODEL 19
REMARK VINA RESULT:    -3.882     15.198     19.848
REMARK INTER + INTRA:          -4.835
REMARK INTER:                  -5.142
REMARK INTRA:                   0.307
REMARK UNBOUND:                 0.863
REMARK  8 active torsions:
REMARK  status: ('A' for Active; 'I' for Inactive)
REMARK    1  A    between atoms: C_13  and  C_15 
REMARK    2  A    between atoms: C_14  and  C_16 
REMARK    3  A    between atoms: C_15  and  C_22 
REMARK    4  A    between atoms: C_16  and  C_23 
REMARK    5  A    between atoms: C_17  and  C_21 
REMARK    6  A    between atoms: C_18  and  C_24 
REMARK    7  A    between atoms: C_19  and  C_27 
REMARK    8  A    between atoms: C_20  and  C_30 
ROOT
HETATM    1  O   UNL     1      42.298  24.023  52.844  1.00  0.00    -0.304 OA
HETATM    2  O   UNL     1      43.590  26.100  57.024  1.00  0.00    -0.304 OA
HETATM    3  O   UNL     1      44.680  28.389  53.859  1.00  0.00    -0.304 OA
HETATM    4  O   UNL     1      41.659  25.970  54.499  1.00  0.00    -0.270 OA
HETATM    5  O   UNL     1      44.475  23.835  53.587  1.00  0.00    -0.263 OA
HETATM    6  O   UNL     1      43.308  27.295  51.953  1.00  0.00    -0.270 OA
HETATM    7  O   UNL     1      42.640  26.833  58.988  1.00  0.00    -0.263 OA
HETATM    8  O   UNL     1      45.595  27.784  59.267  1.00  0.00    -0.270 OA
HETATM    9  O   UNL     1      46.529  28.982  55.105  1.00  0.00    -0.263 OA
HETATM   10  N   UNL     1      41.463  24.648  56.395  1.00  0.00    -0.340 N 
HETATM   11  N   UNL     1      44.996  25.743  51.595  1.00  0.00    -0.340 N 
HETATM   12  N   UNL     1      44.940  28.977  57.390  1.00  0.00    -0.340 N 
HETATM   13  C   UNL     1      41.244  25.825  57.269  1.00  0.00     0.190 C 
HETATM   14  C   UNL     1      44.007  24.674  51.349  1.00  0.00     0.190 C 
HETATM   15  C   UNL     1      41.786  23.609  54.127  1.00  0.00     0.227 C 
HETATM   16  C   UNL     1      44.283  29.047  56.068  1.00  0.00     0.190 C 
HETATM   17  C   UNL     1      45.473  27.907  52.753  1.00  0.00     0.227 C 
HETATM   18  C   UNL     1      44.931  26.450  57.379  1.00  0.00     0.227 C 
HETATM   19  C   UNL     1      41.636  24.848  55.017  1.00  0.00     0.250 C 
HETATM   20  C   UNL     1      43.656  24.125  52.725  1.00  0.00     0.283 C 
HETATM   21  C   UNL     1      44.499  26.976  52.043  1.00  0.00     0.250 C 
HETATM   22  C   UNL     1      42.561  26.279  57.898  1.00  0.00     0.283 C 
HETATM   23  C   UNL     1      45.169  27.791  58.107  1.00  0.00     0.250 C 
HETATM   24  C   UNL     1      45.324  28.818  54.984  1.00  0.00     0.283 C 
HETATM   25  C   UNL     1      41.556  23.346  57.064  1.00  0.00     0.153 C 
HETATM   26  C   UNL     1      46.422  25.425  51.501  1.00  0.00     0.153 C 
HETATM   27  C   UNL     1      45.382  30.235  57.993  1.00  0.00     0.153 C 
ENDROOT
BRANCH  15  28
HETATM   28  C   UNL     1      40.424  22.974  53.878  1.00  0.00     0.016 C 
HETATM   29  C   UNL     1      39.838  23.456  52.552  1.00  0.00     0.012 C 
HETATM   30  C   UNL     1      40.528  21.450  53.894  1.00  0.00     0.012 C 
ENDBRANCH  15  28
BRANCH  14  31
HETATM   31  C   UNL     1      44.447  23.537  50.437  1.00  0.00     0.014 C 
HETATM   32  C   UNL     1      43.569  22.308  50.683  1.00  0.00     0.012 C 
BRANCH  31  33
HETATM   33  C   UNL     1      44.396  23.927  48.950  1.00  0.00     0.002 C 
HETATM   34  C   UNL     1      45.747  23.850  48.252  1.00  0.00     0.005 C 
ENDBRANCH  31  33
ENDBRANCH  14  31
BRANCH  13  35
HETATM   35  C   UNL     1      40.165  25.602  58.328  1.00  0.00     0.014 C 
HETATM   36  C   UNL     1      39.573  26.947  58.757  1.00  0.00     0.012 C 
BRANCH  35  37
HETATM   37  C   UNL     1      39.041  24.673  57.834  1.00  0.00     0.002 C 
HETATM   38  C   UNL     1      38.322  23.938  58.956  1.00  0.00     0.005 C 
ENDBRANCH  35  37
ENDBRANCH  13  35
BRANCH  17  39
HETATM   39  C   UNL     1      45.870  29.060  51.850  1.00  0.00     0.016 C 
HETATM   40  C   UNL     1      45.422  28.797  50.415  1.00  0.00     0.012 C 
HETATM   41  C   UNL     1      47.379  29.291  51.907  1.00  0.00     0.012 C 
ENDBRANCH  17  39
BRANCH  18  42
HETATM   42  C   UNL     1      45.521  25.276  58.164  1.00  0.00     0.016 C 
HETATM   43  C   UNL     1      45.003  23.946  57.617  1.00  0.00     0.012 C 
HETATM   44  C   UNL     1      47.047  25.313  58.124  1.00  0.00     0.012 C 
ENDBRANCH  18  42
BRANCH  16  45
HETATM   45  C   UNL     1      43.517  30.339  55.793  1.00  0.00     0.010 C 
HETATM   46  C   UNL     1      42.058  30.041  55.449  1.00  0.00     0.012 C 
HETATM   47  C   UNL     1      44.180  31.133  54.668  1.00  0.00     0.012 C 
ENDBRANCH  16  45
TORSDOF 8
ENDMDL
MODEL 20
REMARK VINA RESULT:    -3.592      7.929     12.244
REMARK INTER + INTRA:          -4.409
REMARK INTER:                  -4.790
REMARK INTRA:                   0.381
REMARK UNBOUND:                 0.863
REMARK  8 active torsions:
REMARK  status: ('A' for Active; 'I' for Inactive)
REMARK    1  A    between atoms: C_13  and  C_15 
REMARK    2  A    between atoms: C_14  and  C_16 
REMARK    3  A    between atoms: C_15  and  C_22 
REMARK    4  A    between atoms: C_16  and  C_23 
REMARK    5  A    between atoms: C_17  and  C_21 
REMARK    6  A    between atoms: C_18  and  C_24 
REMARK    7  A    between atoms: C_19  and  C_27 
REMARK    8  A    between atoms: C_20  and  C_30 
ROOT
HETATM    1  O   UNL     1      32.407  26.060  57.596  1.00  0.00    -0.304 OA
HETATM    2  O   UNL     1      34.076  22.496  54.774  1.00  0.00    -0.304 OA
HETATM    3  O   UNL     1      35.996  22.550  58.345  1.00  0.00    -0.304 OA
HETATM    4  O   UNL     1      32.336  23.448  57.261  1.00  0.00    -0.270 OA
HETATM    5  O   UNL     1      34.371  26.359  56.421  1.00  0.00    -0.263 OA
HETATM    6  O   UNL     1      34.447  24.103  59.724  1.00  0.00    -0.270 OA
HETATM    7  O   UNL     1      33.308  20.638  53.655  1.00  0.00    -0.263 OA
HETATM    8  O   UNL     1      36.394  20.440  53.262  1.00  0.00    -0.270 OA
HETATM    9  O   UNL     1      37.872  21.868  57.188  1.00  0.00    -0.263 OA
HETATM   10  N   UNL     1      31.633  23.488  55.051  1.00  0.00    -0.340 N 
HETATM   11  N   UNL     1      35.572  25.971  58.929  1.00  0.00    -0.340 N 
HETATM   12  N   UNL     1      36.249  20.287  55.571  1.00  0.00    -0.340 N 
HETATM   13  C   UNL     1      31.755  22.017  54.920  1.00  0.00     0.190 C 
HETATM   14  C   UNL     1      34.309  26.729  58.828  1.00  0.00     0.190 C 
HETATM   15  C   UNL     1      31.725  25.602  56.412  1.00  0.00     0.227 C 
HETATM   16  C   UNL     1      35.716  20.760  56.866  1.00  0.00     0.190 C 
HETATM   17  C   UNL     1      36.651  23.716  58.889  1.00  0.00     0.227 C 
HETATM   18  C   UNL     1      35.439  22.354  54.362  1.00  0.00     0.227 C 
HETATM   19  C   UNL     1      31.931  24.088  56.284  1.00  0.00     0.250 C 
HETATM   20  C   UNL     1      33.732  26.372  57.465  1.00  0.00     0.283 C 
HETATM   21  C   UNL     1      35.469  24.609  59.247  1.00  0.00     0.250 C 
HETATM   22  C   UNL     1      33.114  21.640  54.331  1.00  0.00     0.283 C 
HETATM   23  C   UNL     1      36.053  20.936  54.341  1.00  0.00     0.250 C 
HETATM   24  C   UNL     1      36.685  21.769  57.462  1.00  0.00     0.283 C 
HETATM   25  C   UNL     1      31.274  24.224  53.834  1.00  0.00     0.153 C 
HETATM   26  C   UNL     1      36.827  26.629  58.559  1.00  0.00     0.153 C 
HETATM   27  C   UNL     1      37.035  19.053  55.573  1.00  0.00     0.153 C 
ENDROOT
BRANCH  15  28
HETATM   28  C   UNL     1      30.247  25.916  56.600  1.00  0.00     0.016 C 
HETATM   29  C   UNL     1      29.926  26.139  58.077  1.00  0.00     0.012 C 
HETATM   30  C   UNL     1      29.846  27.138  55.775  1.00  0.00     0.012 C 
ENDBRANCH  15  28
BRANCH  14  31
HETATM   31  C   UNL     1      34.412  28.243  58.963  1.00  0.00     0.014 C 
HETATM   32  C   UNL     1      33.222  28.906  58.266  1.00  0.00     0.012 C 
BRANCH  31  33
HETATM   33  C   UNL     1      34.474  28.695  60.433  1.00  0.00     0.002 C 
HETATM   34  C   UNL     1      33.635  27.838  61.371  1.00  0.00     0.005 C 
ENDBRANCH  31  33
ENDBRANCH  14  31
BRANCH  13  35
HETATM   35  C   UNL     1      30.608  21.380  54.136  1.00  0.00     0.014 C 
HETATM   36  C   UNL     1      30.734  19.855  54.180  1.00  0.00     0.012 C 
BRANCH  35  37
HETATM   37  C   UNL     1      29.227  21.804  54.668  1.00  0.00     0.002 C 
HETATM   38  C   UNL     1      28.188  20.693  54.618  1.00  0.00     0.005 C 
ENDBRANCH  35  37
ENDBRANCH  13  35
BRANCH  17  39
HETATM   39  C   UNL     1      37.439  23.345  60.131  1.00  0.00     0.016 C 
HETATM   40  C   UNL     1      36.905  24.093  61.350  1.00  0.00     0.012 C 
HETATM   41  C   UNL     1      38.925  23.636  59.931  1.00  0.00     0.012 C 
ENDBRANCH  17  39
BRANCH  18  42
HETATM   42  C   UNL     1      35.585  23.046  53.006  1.00  0.00     0.016 C 
HETATM   43  C   UNL     1      34.959  24.440  53.041  1.00  0.00     0.012 C 
HETATM   44  C   UNL     1      37.054  23.129  52.598  1.00  0.00     0.012 C 
ENDBRANCH  18  42
BRANCH  16  45
HETATM   45  C   UNL     1      35.415  19.661  57.883  1.00  0.00     0.010 C 
HETATM   46  C   UNL     1      33.959  19.732  58.341  1.00  0.00     0.012 C 
HETATM   47  C   UNL     1      36.358  19.759  59.081  1.00  0.00     0.012 C 
ENDBRANCH  16  45
TORSDOF 8
ENDMDL
