MODEL 1
REMARK VINA RESULT:    -6.312      0.000      0.000
REMARK INTER + INTRA:          -8.682
REMARK INTER:                  -9.264
REMARK INTRA:                   0.582
REMARK UNBOUND:                 0.582
REMARK  8 active torsions:
REMARK  status: ('A' for Active; 'I' for Inactive)
REMARK    1  A    between atoms: C_13  and  C_15 
REMARK    2  A    between atoms: C_14  and  C_16 
REMARK    3  A    between atoms: C_15  and  C_22 
REMARK    4  A    between atoms: C_16  and  C_23 
REMARK    5  A    between atoms: C_17  and  C_21 
REMARK    6  A    between atoms: C_18  and  C_24 
REMARK    7  A    between atoms: C_19  and  C_27 
REMARK    8  A    between atoms: C_20  and  C_30 
ROOT
HETATM    1  O   UNL     1      51.240  17.571  31.675  1.00  0.00    -0.304 OA
HETATM    2  O   UNL     1      48.355  16.245  35.331  1.00  0.00    -0.304 OA
HETATM    3  O   UNL     1      46.444  15.911  31.771  1.00  0.00    -0.304 OA
HETATM    4  O   UNL     1      50.187  15.462  32.852  1.00  0.00    -0.270 OA
HETATM    5  O   UNL     1      49.674  19.058  32.490  1.00  0.00    -0.263 OA
HETATM    6  O   UNL     1      48.431  16.087  30.117  1.00  0.00    -0.270 OA
HETATM    7  O   UNL     1      48.301  14.734  37.067  1.00  0.00    -0.263 OA
HETATM    8  O   UNL     1      45.466  16.021  37.200  1.00  0.00    -0.270 OA
HETATM    9  O   UNL     1      44.530  16.530  32.899  1.00  0.00    -0.263 OA
HETATM   10  N   UNL     1      50.965  15.939  34.985  1.00  0.00    -0.340 N 
HETATM   11  N   UNL     1      48.280  18.402  30.143  1.00  0.00    -0.340 N 
HETATM   12  N   UNL     1      45.395  15.054  35.094  1.00  0.00    -0.340 N 
HETATM   13  C   UNL     1      50.223  14.800  35.577  1.00  0.00     0.190 C 
HETATM   14  C   UNL     1      49.750  18.532  30.113  1.00  0.00     0.190 C 
HETATM   15  C   UNL     1      51.722  17.293  33.005  1.00  0.00     0.227 C 
HETATM   16  C   UNL     1      46.004  14.787  33.774  1.00  0.00     0.190 C 
HETATM   17  C   UNL     1      46.332  16.986  30.814  1.00  0.00     0.227 C 
HETATM   18  C   UNL     1      47.092  16.847  35.633  1.00  0.00     0.227 C 
HETATM   19  C   UNL     1      50.886  16.154  33.601  1.00  0.00     0.250 C 
HETATM   20  C   UNL     1      50.193  18.444  31.568  1.00  0.00     0.283 C 
HETATM   21  C   UNL     1      47.761  17.109  30.301  1.00  0.00     0.250 C 
HETATM   22  C   UNL     1      48.873  15.264  36.122  1.00  0.00     0.283 C 
HETATM   23  C   UNL     1      45.925  15.928  36.056  1.00  0.00     0.250 C 
HETATM   24  C   UNL     1      45.537  15.848  32.789  1.00  0.00     0.283 C 
HETATM   25  C   UNL     1      51.679  16.812  35.923  1.00  0.00     0.153 C 
HETATM   26  C   UNL     1      47.461  19.616  30.154  1.00  0.00     0.153 C 
HETATM   27  C   UNL     1      44.151  14.355  35.419  1.00  0.00     0.153 C 
ENDROOT
BRANCH  15  28
HETATM   28  C   UNL     1      53.176  16.860  32.869  1.00  0.00     0.016 C 
HETATM   29  C   UNL     1      53.420  16.204  31.512  1.00  0.00     0.012 C 
HETATM   30  C   UNL     1      54.114  18.051  33.063  1.00  0.00     0.012 C 
ENDBRANCH  15  28
BRANCH  14  31
HETATM   31  C   UNL     1      50.308  19.800  29.481  1.00  0.00     0.014 C 
HETATM   32  C   UNL     1      51.221  20.516  30.479  1.00  0.00     0.012 C 
BRANCH  31  33
HETATM   33  C   UNL     1      51.079  19.514  28.180  1.00  0.00     0.002 C 
HETATM   34  C   UNL     1      52.135  18.426  28.324  1.00  0.00     0.005 C 
ENDBRANCH  31  33
ENDBRANCH  14  31
BRANCH  13  35
HETATM   35  C   UNL     1      51.022  14.039  36.634  1.00  0.00     0.014 C 
HETATM   36  C   UNL     1      50.459  12.624  36.791  1.00  0.00     0.012 C 
BRANCH  35  37
HETATM   37  C   UNL     1      52.523  13.967  36.297  1.00  0.00     0.002 C 
HETATM   38  C   UNL     1      52.828  13.147  35.052  1.00  0.00     0.005 C 
ENDBRANCH  35  37
ENDBRANCH  13  35
BRANCH  17  39
HETATM   39  C   UNL     1      45.389  16.594  29.691  1.00  0.00     0.016 C 
HETATM   40  C   UNL     1      45.539  15.112  29.357  1.00  0.00     0.012 C 
HETATM   41  C   UNL     1      45.643  17.452  28.453  1.00  0.00     0.012 C 
ENDBRANCH  17  39
BRANCH  18  42
HETATM   42  C   UNL     1      47.342  17.946  36.667  1.00  0.00     0.016 C 
HETATM   43  C   UNL     1      48.683  18.634  36.411  1.00  0.00     0.012 C 
HETATM   44  C   UNL     1      46.206  18.968  36.653  1.00  0.00     0.012 C 
ENDBRANCH  18  42
BRANCH  16  45
HETATM   45  C   UNL     1      45.736  13.394  33.207  1.00  0.00     0.010 C 
HETATM   46  C   UNL     1      46.946  12.889  32.422  1.00  0.00     0.012 C 
HETATM   47  C   UNL     1      44.490  13.399  32.323  1.00  0.00     0.012 C 
ENDBRANCH  16  45
TORSDOF 8
ENDMDL
MODEL 2
REMARK VINA RESULT:    -6.002      3.824      8.585
REMARK INTER + INTRA:          -8.227
REMARK INTER:                  -8.791
REMARK INTRA:                   0.564
REMARK UNBOUND:                 0.582
REMARK  8 active torsions:
REMARK  status: ('A' for Active; 'I' for Inactive)
REMARK    1  A    between atoms: C_13  and  C_15 
REMARK    2  A    between atoms: C_14  and  C_16 
REMARK    3  A    between atoms: C_15  and  C_22 
REMARK    4  A    between atoms: C_16  and  C_23 
REMARK    5  A    between atoms: C_17  and  C_21 
REMARK    6  A    between atoms: C_18  and  C_24 
REMARK    7  A    between atoms: C_19  and  C_27 
REMARK    8  A    between atoms: C_20  and  C_30 
ROOT
HETATM    1  O   UNL     1      45.687  17.824  31.772  1.00  0.00    -0.304 OA
HETATM    2  O   UNL     1      43.854  14.340  28.951  1.00  0.00    -0.304 OA
HETATM    3  O   UNL     1      41.953  14.470  32.530  1.00  0.00    -0.304 OA
HETATM    4  O   UNL     1      43.604  17.222  30.276  1.00  0.00    -0.270 OA
HETATM    5  O   UNL     1      46.346  15.635  32.088  1.00  0.00    -0.263 OA
HETATM    6  O   UNL     1      42.754  16.760  33.441  1.00  0.00    -0.270 OA
HETATM    7  O   UNL     1      42.875  14.089  26.883  1.00  0.00    -0.263 OA
HETATM    8  O   UNL     1      42.614  11.235  28.109  1.00  0.00    -0.270 OA
HETATM    9  O   UNL     1      41.765  12.177  32.354  1.00  0.00    -0.263 OA
HETATM   10  N   UNL     1      44.799  16.742  28.346  1.00  0.00    -0.340 N 
HETATM   11  N   UNL     1      44.657  15.770  34.326  1.00  0.00    -0.340 N 
HETATM   12  N   UNL     1      41.351  12.462  29.617  1.00  0.00    -0.340 N 
HETATM   13  C   UNL     1      43.582  16.294  27.629  1.00  0.00     0.190 C 
HETATM   14  C   UNL     1      45.479  16.939  33.953  1.00  0.00     0.190 C 
HETATM   15  C   UNL     1      45.941  17.735  30.356  1.00  0.00     0.227 C 
HETATM   16  C   UNL     1      41.167  13.641  30.490  1.00  0.00     0.190 C 
HETATM   17  C   UNL     1      42.630  14.403  33.804  1.00  0.00     0.227 C 
HETATM   18  C   UNL     1      43.810  12.952  29.296  1.00  0.00     0.227 C 
HETATM   19  C   UNL     1      44.678  17.208  29.664  1.00  0.00     0.250 C 
HETATM   20  C   UNL     1      45.899  16.693  32.510  1.00  0.00     0.283 C 
HETATM   21  C   UNL     1      43.333  15.753  33.864  1.00  0.00     0.250 C 
HETATM   22  C   UNL     1      43.424  14.777  27.735  1.00  0.00     0.283 C 
HETATM   23  C   UNL     1      42.539  12.150  28.937  1.00  0.00     0.250 C 
HETATM   24  C   UNL     1      41.653  13.302  31.890  1.00  0.00     0.283 C 
HETATM   25  C   UNL     1      46.071  16.591  27.632  1.00  0.00     0.153 C 
HETATM   26  C   UNL     1      45.293  14.647  35.018  1.00  0.00     0.153 C 
HETATM   27  C   UNL     1      40.212  11.560  29.450  1.00  0.00     0.153 C 
ENDROOT
BRANCH  15  28
HETATM   28  C   UNL     1      46.256  19.144  29.871  1.00  0.00     0.016 C 
HETATM   29  C   UNL     1      45.749  20.184  30.869  1.00  0.00     0.012 C 
HETATM   30  C   UNL     1      47.756  19.312  29.639  1.00  0.00     0.012 C 
ENDBRANCH  15  28
BRANCH  14  31
HETATM   31  C   UNL     1      46.709  17.207  34.809  1.00  0.00     0.014 C 
HETATM   32  C   UNL     1      47.694  18.087  34.037  1.00  0.00     0.012 C 
BRANCH  31  33
HETATM   33  C   UNL     1      46.354  17.873  36.151  1.00  0.00     0.002 C 
HETATM   34  C   UNL     1      45.146  18.796  36.071  1.00  0.00     0.005 C 
ENDBRANCH  31  33
ENDBRANCH  14  31
BRANCH  13  35
HETATM   35  C   UNL     1      43.527  16.763  26.176  1.00  0.00     0.014 C 
HETATM   36  C   UNL     1      44.088  15.674  25.258  1.00  0.00     0.012 C 
BRANCH  35  37
HETATM   37  C   UNL     1      42.100  17.133  25.732  1.00  0.00     0.002 C 
HETATM   38  C   UNL     1      41.625  16.365  24.508  1.00  0.00     0.005 C 
ENDBRANCH  35  37
ENDBRANCH  13  35
BRANCH  17  39
HETATM   39  C   UNL     1      41.621  14.271  34.929  1.00  0.00     0.016 C 
HETATM   40  C   UNL     1      41.715  15.464  35.877  1.00  0.00     0.012 C 
HETATM   41  C   UNL     1      41.832  12.963  35.689  1.00  0.00     0.012 C 
ENDBRANCH  17  39
BRANCH  18  42
HETATM   42  C   UNL     1      45.066  12.295  28.723  1.00  0.00     0.016 C 
HETATM   43  C   UNL     1      46.250  13.261  28.769  1.00  0.00     0.012 C 
HETATM   44  C   UNL     1      45.395  11.009  29.478  1.00  0.00     0.012 C 
ENDBRANCH  18  42
BRANCH  16  45
HETATM   45  C   UNL     1      39.741  14.186  30.549  1.00  0.00     0.010 C 
HETATM   46  C   UNL     1      39.706  15.656  30.134  1.00  0.00     0.012 C 
HETATM   47  C   UNL     1      39.153  14.013  31.949  1.00  0.00     0.012 C 
ENDBRANCH  16  45
TORSDOF 8
ENDMDL
MODEL 3
REMARK VINA RESULT:    -5.907      1.697      2.277
REMARK INTER + INTRA:          -8.088
REMARK INTER:                  -8.658
REMARK INTRA:                   0.570
REMARK UNBOUND:                 0.582
REMARK  8 active torsions:
REMARK  status: ('A' for Active; 'I' for Inactive)
REMARK    1  A    between atoms: C_13  and  C_15 
REMARK    2  A    between atoms: C_14  and  C_16 
REMARK    3  A    between atoms: C_15  and  C_22 
REMARK    4  A    between atoms: C_16  and  C_23 
REMARK    5  A    between atoms: C_17  and  C_21 
REMARK    6  A    between atoms: C_18  and  C_24 
REMARK    7  A    between atoms: C_19  and  C_27 
REMARK    8  A    between atoms: C_20  and  C_30 
ROOT
HETATM    1  O   UNL     1      50.030  17.451  32.498  1.00  0.00    -0.304 OA
HETATM    2  O   UNL     1      45.984  15.917  34.672  1.00  0.00    -0.304 OA
HETATM    3  O   UNL     1      45.650  15.685  30.638  1.00  0.00    -0.304 OA
HETATM    4  O   UNL     1      48.674  15.274  33.101  1.00  0.00    -0.270 OA
HETATM    5  O   UNL     1      48.218  18.870  32.668  1.00  0.00    -0.263 OA
HETATM    6  O   UNL     1      48.122  15.970  29.913  1.00  0.00    -0.270 OA
HETATM    7  O   UNL     1      45.303  14.337  36.201  1.00  0.00    -0.263 OA
HETATM    8  O   UNL     1      42.602  15.556  35.235  1.00  0.00    -0.270 OA
HETATM    9  O   UNL     1      43.425  16.218  30.932  1.00  0.00    -0.263 OA
HETATM   10  N   UNL     1      48.528  15.682  35.380  1.00  0.00    -0.340 N 
HETATM   11  N   UNL     1      47.890  18.279  29.943  1.00  0.00    -0.340 N 
HETATM   12  N   UNL     1      43.404  14.673  33.247  1.00  0.00    -0.340 N 
HETATM   13  C   UNL     1      47.654  14.505  35.597  1.00  0.00     0.190 C 
HETATM   14  C   UNL     1      49.246  18.442  30.502  1.00  0.00     0.190 C 
HETATM   15  C   UNL     1      49.958  17.131  33.901  1.00  0.00     0.227 C 
HETATM   16  C   UNL     1      44.494  14.473  32.269  1.00  0.00     0.190 C 
HETATM   17  C   UNL     1      45.887  16.796  29.746  1.00  0.00     0.227 C 
HETATM   18  C   UNL     1      44.685  16.480  34.465  1.00  0.00     0.227 C 
HETATM   19  C   UNL     1      48.995  15.951  34.085  1.00  0.00     0.250 C 
HETATM   20  C   UNL     1      49.081  18.305  32.009  1.00  0.00     0.283 C 
HETATM   21  C   UNL     1      47.397  16.970  29.845  1.00  0.00     0.250 C 
HETATM   22  C   UNL     1      46.182  14.917  35.575  1.00  0.00     0.283 C 
HETATM   23  C   UNL     1      43.479  15.519  34.365  1.00  0.00     0.250 C 
HETATM   24  C   UNL     1      44.417  15.562  31.211  1.00  0.00     0.283 C 
HETATM   25  C   UNL     1      48.781  16.532  36.548  1.00  0.00     0.153 C 
HETATM   26  C   UNL     1      47.090  19.474  29.662  1.00  0.00     0.153 C 
HETATM   27  C   UNL     1      42.159  13.935  33.033  1.00  0.00     0.153 C 
ENDROOT
BRANCH  15  28
HETATM   28  C   UNL     1      51.361  16.735  34.341  1.00  0.00     0.016 C 
HETATM   29  C   UNL     1      52.115  16.060  33.197  1.00  0.00     0.012 C 
HETATM   30  C   UNL     1      52.132  17.955  34.843  1.00  0.00     0.012 C 
ENDBRANCH  15  28
BRANCH  14  31
HETATM   31  C   UNL     1      49.963  19.746  30.178  1.00  0.00     0.014 C 
HETATM   32  C   UNL     1      50.949  20.085  31.299  1.00  0.00     0.012 C 
BRANCH  31  33
HETATM   33  C   UNL     1      50.704  19.687  28.831  1.00  0.00     0.002 C 
HETATM   34  C   UNL     1      51.708  20.815  28.638  1.00  0.00     0.005 C 
ENDBRANCH  31  33
ENDBRANCH  14  31
BRANCH  13  35
HETATM   35  C   UNL     1      47.996  13.719  36.862  1.00  0.00     0.014 C 
HETATM   36  C   UNL     1      47.331  12.342  36.814  1.00  0.00     0.012 C 
BRANCH  35  37
HETATM   37  C   UNL     1      49.514  13.557  37.060  1.00  0.00     0.002 C 
HETATM   38  C   UNL     1      50.166  12.638  36.037  1.00  0.00     0.005 C 
ENDBRANCH  35  37
ENDBRANCH  13  35
BRANCH  17  39
HETATM   39  C   UNL     1      45.480  16.429  28.331  1.00  0.00     0.016 C 
HETATM   40  C   UNL     1      44.060  16.909  28.039  1.00  0.00     0.012 C 
HETATM   41  C   UNL     1      45.591  14.921  28.114  1.00  0.00     0.012 C 
ENDBRANCH  17  39
BRANCH  18  42
HETATM   42  C   UNL     1      44.465  17.542  35.544  1.00  0.00     0.016 C 
HETATM   43  C   UNL     1      45.793  18.184  35.947  1.00  0.00     0.012 C 
HETATM   44  C   UNL     1      43.481  18.605  35.062  1.00  0.00     0.012 C 
ENDBRANCH  18  42
BRANCH  16  45
HETATM   45  C   UNL     1      44.522  13.098  31.604  1.00  0.00     0.010 C 
HETATM   46  C   UNL     1      45.957  12.683  31.281  1.00  0.00     0.012 C 
HETATM   47  C   UNL     1      43.667  13.092  30.338  1.00  0.00     0.012 C 
ENDBRANCH  16  45
TORSDOF 8
ENDMDL
MODEL 4
REMARK VINA RESULT:    -5.869      2.210      6.458
REMARK INTER + INTRA:          -8.032
REMARK INTER:                  -8.670
REMARK INTRA:                   0.638
REMARK UNBOUND:                 0.582
REMARK  8 active torsions:
REMARK  status: ('A' for Active; 'I' for Inactive)
REMARK    1  A    between atoms: C_13  and  C_15 
REMARK    2  A    between atoms: C_14  and  C_16 
REMARK    3  A    between atoms: C_15  and  C_22 
REMARK    4  A    between atoms: C_16  and  C_23 
REMARK    5  A    between atoms: C_17  and  C_21 
REMARK    6  A    between atoms: C_18  and  C_24 
REMARK    7  A    between atoms: C_19  and  C_27 
REMARK    8  A    between atoms: C_20  and  C_30 
ROOT
HETATM    1  O   UNL     1      46.398  17.649  32.284  1.00  0.00    -0.304 OA
HETATM    2  O   UNL     1      50.834  17.250  34.186  1.00  0.00    -0.304 OA
HETATM    3  O   UNL     1      48.236  14.721  36.002  1.00  0.00    -0.304 OA
HETATM    4  O   UNL     1      48.521  16.089  32.337  1.00  0.00    -0.270 OA
HETATM    5  O   UNL     1      46.891  18.726  34.265  1.00  0.00    -0.263 OA
HETATM    6  O   UNL     1      46.242  14.779  34.348  1.00  0.00    -0.270 OA
HETATM    7  O   UNL     1      52.988  16.771  33.533  1.00  0.00    -0.263 OA
HETATM    8  O   UNL     1      53.243  16.950  36.634  1.00  0.00    -0.270 OA
HETATM    9  O   UNL     1      49.430  15.107  37.937  1.00  0.00    -0.263 OA
HETATM   10  N   UNL     1      50.051  17.710  31.696  1.00  0.00    -0.340 N 
HETATM   11  N   UNL     1      45.382  16.654  35.411  1.00  0.00    -0.340 N 
HETATM   12  N   UNL     1      51.770  15.171  36.431  1.00  0.00    -0.340 N 
HETATM   13  C   UNL     1      51.198  16.791  31.885  1.00  0.00     0.190 C 
HETATM   14  C   UNL     1      44.968  17.238  34.120  1.00  0.00     0.190 C 
HETATM   15  C   UNL     1      47.581  18.183  31.656  1.00  0.00     0.227 C 
HETATM   16  C   UNL     1      50.562  14.555  35.842  1.00  0.00     0.190 C 
HETATM   17  C   UNL     1      46.984  15.139  36.589  1.00  0.00     0.227 C 
HETATM   18  C   UNL     1      51.151  17.464  35.565  1.00  0.00     0.227 C 
HETATM   19  C   UNL     1      48.753  17.234  31.932  1.00  0.00     0.250 C 
HETATM   20  C   UNL     1      46.195  17.973  33.597  1.00  0.00     0.283 C 
HETATM   21  C   UNL     1      46.153  15.483  35.360  1.00  0.00     0.250 C 
HETATM   22  C   UNL     1      51.807  16.971  33.276  1.00  0.00     0.283 C 
HETATM   23  C   UNL     1      52.158  16.507  36.241  1.00  0.00     0.250 C 
HETATM   24  C   UNL     1      49.373  14.829  36.748  1.00  0.00     0.283 C 
HETATM   25  C   UNL     1      50.376  19.095  31.339  1.00  0.00     0.153 C 
HETATM   26  C   UNL     1      45.097  17.389  36.645  1.00  0.00     0.153 C 
HETATM   27  C   UNL     1      52.620  14.327  37.270  1.00  0.00     0.153 C 
ENDROOT
BRANCH  15  28
HETATM   28  C   UNL     1      47.300  18.249  30.161  1.00  0.00     0.016 C 
HETATM   29  C   UNL     1      46.073  17.412  29.805  1.00  0.00     0.012 C 
HETATM   30  C   UNL     1      47.108  19.697  29.712  1.00  0.00     0.012 C 
ENDBRANCH  15  28
BRANCH  14  31
HETATM   31  C   UNL     1      43.776  18.185  34.152  1.00  0.00     0.014 C 
HETATM   32  C   UNL     1      43.785  19.070  32.903  1.00  0.00     0.012 C 
BRANCH  31  33
HETATM   33  C   UNL     1      42.436  17.434  34.250  1.00  0.00     0.002 C 
HETATM   34  C   UNL     1      41.220  18.340  34.114  1.00  0.00     0.005 C 
ENDBRANCH  31  33
ENDBRANCH  14  31
BRANCH  13  35
HETATM   35  C   UNL     1      52.257  16.908  30.790  1.00  0.00     0.014 C 
HETATM   36  C   UNL     1      53.352  15.861  31.013  1.00  0.00     0.012 C 
BRANCH  35  37
HETATM   37  C   UNL     1      51.663  16.747  29.379  1.00  0.00     0.002 C 
HETATM   38  C   UNL     1      52.335  17.624  28.332  1.00  0.00     0.005 C 
ENDBRANCH  35  37
ENDBRANCH  13  35
BRANCH  17  39
HETATM   39  C   UNL     1      46.356  13.991  37.357  1.00  0.00     0.016 C 
HETATM   40  C   UNL     1      46.598  12.666  36.637  1.00  0.00     0.012 C 
HETATM   41  C   UNL     1      44.860  14.230  37.553  1.00  0.00     0.012 C 
ENDBRANCH  17  39
BRANCH  18  42
HETATM   42  C   UNL     1      51.578  18.924  35.718  1.00  0.00     0.016 C 
HETATM   43  C   UNL     1      50.674  19.841  34.894  1.00  0.00     0.012 C 
HETATM   44  C   UNL     1      51.563  19.340  37.188  1.00  0.00     0.012 C 
ENDBRANCH  18  42
BRANCH  16  45
HETATM   45  C   UNL     1      50.672  13.057  35.561  1.00  0.00     0.010 C 
HETATM   46  C   UNL     1      49.874  12.682  34.313  1.00  0.00     0.012 C 
HETATM   47  C   UNL     1      50.195  12.245  36.764  1.00  0.00     0.012 C 
ENDBRANCH  16  45
TORSDOF 8
ENDMDL
MODEL 5
REMARK VINA RESULT:    -5.742      5.401     10.428
REMARK INTER + INTRA:          -7.846
REMARK INTER:                  -8.467
REMARK INTRA:                   0.620
REMARK UNBOUND:                 0.582
REMARK  8 active torsions:
REMARK  status: ('A' for Active; 'I' for Inactive)
REMARK    1  A    between atoms: C_13  and  C_15 
REMARK    2  A    between atoms: C_14  and  C_16 
REMARK    3  A    between atoms: C_15  and  C_22 
REMARK    4  A    between atoms: C_16  and  C_23 
REMARK    5  A    between atoms: C_17  and  C_21 
REMARK    6  A    between atoms: C_18  and  C_24 
REMARK    7  A    between atoms: C_19  and  C_27 
REMARK    8  A    between atoms: C_20  and  C_30 
ROOT
HETATM    1  O   UNL     1      42.667  10.409  29.745  1.00  0.00    -0.304 OA
HETATM    2  O   UNL     1      41.663  15.128  29.329  1.00  0.00    -0.304 OA
HETATM    3  O   UNL     1      43.738  14.373  32.730  1.00  0.00    -0.304 OA
HETATM    4  O   UNL     1      43.755  12.737  29.165  1.00  0.00    -0.270 OA
HETATM    5  O   UNL     1      40.887  11.304  30.910  1.00  0.00    -0.263 OA
HETATM    6  O   UNL     1      44.589  11.968  32.274  1.00  0.00    -0.270 OA
HETATM    7  O   UNL     1      42.006  16.874  27.869  1.00  0.00    -0.263 OA
HETATM    8  O   UNL     1      40.686  18.284  30.316  1.00  0.00    -0.270 OA
HETATM    9  O   UNL     1      42.501  16.065  33.694  1.00  0.00    -0.263 OA
HETATM   10  N   UNL     1      42.258  13.314  27.490  1.00  0.00    -0.340 N 
HETATM   11  N   UNL     1      42.614  11.083  33.113  1.00  0.00    -0.340 N 
HETATM   12  N   UNL     1      42.623  17.465  31.292  1.00  0.00    -0.340 N 
HETATM   13  C   UNL     1      42.858  14.660  27.331  1.00  0.00     0.190 C 
HETATM   14  C   UNL     1      42.606  10.032  32.077  1.00  0.00     0.190 C 
HETATM   15  C   UNL     1      42.219  11.018  28.518  1.00  0.00     0.227 C 
HETATM   16  C   UNL     1      43.589  16.371  31.526  1.00  0.00     0.190 C 
HETATM   17  C   UNL     1      43.336  13.399  33.718  1.00  0.00     0.227 C 
HETATM   18  C   UNL     1      40.921  15.891  30.286  1.00  0.00     0.227 C 
HETATM   19  C   UNL     1      42.812  12.430  28.428  1.00  0.00     0.250 C 
HETATM   20  C   UNL     1      41.928  10.662  30.867  1.00  0.00     0.283 C 
HETATM   21  C   UNL     1      43.590  12.084  32.993  1.00  0.00     0.250 C 
HETATM   22  C   UNL     1      42.097  15.690  28.167  1.00  0.00     0.283 C 
HETATM   23  C   UNL     1      41.402  17.322  30.613  1.00  0.00     0.250 C 
HETATM   24  C   UNL     1      43.194  15.623  32.789  1.00  0.00     0.283 C 
HETATM   25  C   UNL     1      41.062  13.034  26.689  1.00  0.00     0.153 C 
HETATM   26  C   UNL     1      41.537  11.110  34.106  1.00  0.00     0.153 C 
HETATM   27  C   UNL     1      42.966  18.792  31.804  1.00  0.00     0.153 C 
ENDROOT
BRANCH  15  28
HETATM   28  C   UNL     1      42.740  10.156  27.376  1.00  0.00     0.016 C 
HETATM   29  C   UNL     1      43.899   9.280  27.847  1.00  0.00     0.012 C 
HETATM   30  C   UNL     1      41.620   9.295  26.796  1.00  0.00     0.012 C 
ENDBRANCH  15  28
BRANCH  14  31
HETATM   31  C   UNL     1      41.907   8.728  32.437  1.00  0.00     0.014 C 
HETATM   32  C   UNL     1      41.263   8.124  31.187  1.00  0.00     0.012 C 
BRANCH  31  33
HETATM   33  C   UNL     1      42.867   7.707  33.075  1.00  0.00     0.002 C 
HETATM   34  C   UNL     1      42.158   6.523  33.717  1.00  0.00     0.005 C 
ENDBRANCH  31  33
ENDBRANCH  14  31
BRANCH  13  35
HETATM   35  C   UNL     1      42.981  15.102  25.874  1.00  0.00     0.014 C 
HETATM   36  C   UNL     1      41.873  16.105  25.541  1.00  0.00     0.012 C 
BRANCH  35  37
HETATM   37  C   UNL     1      44.355  15.721  25.562  1.00  0.00     0.002 C 
HETATM   38  C   UNL     1      45.503  15.071  26.321  1.00  0.00     0.005 C 
ENDBRANCH  35  37
ENDBRANCH  13  35
BRANCH  17  39
HETATM   39  C   UNL     1      44.212  13.511  34.952  1.00  0.00     0.016 C 
HETATM   40  C   UNL     1      44.956  12.201  35.203  1.00  0.00     0.012 C 
HETATM   41  C   UNL     1      43.376  13.896  36.171  1.00  0.00     0.012 C 
ENDBRANCH  17  39
BRANCH  18  42
HETATM   42  C   UNL     1      39.456  15.880  29.847  1.00  0.00     0.016 C 
HETATM   43  C   UNL     1      39.107  14.559  29.161  1.00  0.00     0.012 C 
HETATM   44  C   UNL     1      38.533  16.123  31.039  1.00  0.00     0.012 C 
ENDBRANCH  18  42
BRANCH  16  45
HETATM   45  C   UNL     1      45.051  16.806  31.611  1.00  0.00     0.010 C 
HETATM   46  C   UNL     1      45.896  16.063  30.577  1.00  0.00     0.012 C 
HETATM   47  C   UNL     1      45.603  16.576  33.017  1.00  0.00     0.012 C 
ENDBRANCH  16  45
TORSDOF 8
ENDMDL
MODEL 6
REMARK VINA RESULT:    -5.718      2.913      7.160
REMARK INTER + INTRA:          -7.811
REMARK INTER:                  -8.505
REMARK INTRA:                   0.694
REMARK UNBOUND:                 0.582
REMARK  8 active torsions:
REMARK  status: ('A' for Active; 'I' for Inactive)
REMARK    1  A    between atoms: C_13  and  C_15 
REMARK    2  A    between atoms: C_14  and  C_16 
REMARK    3  A    between atoms: C_15  and  C_22 
REMARK    4  A    between atoms: C_16  and  C_23 
REMARK    5  A    between atoms: C_17  and  C_21 
REMARK    6  A    between atoms: C_18  and  C_24 
REMARK    7  A    between atoms: C_19  and  C_27 
REMARK    8  A    between atoms: C_20  and  C_30 
ROOT
HETATM    1  O   UNL     1      44.408  14.150  28.620  1.00  0.00    -0.304 OA
HETATM    2  O   UNL     1      45.832  16.931  32.320  1.00  0.00    -0.304 OA
HETATM    3  O   UNL     1      44.768  13.233  33.600  1.00  0.00    -0.304 OA
HETATM    4  O   UNL     1      46.407  14.551  30.289  1.00  0.00    -0.270 OA
HETATM    5  O   UNL     1      42.826  15.176  29.951  1.00  0.00    -0.263 OA
HETATM    6  O   UNL     1      44.693  11.930  31.361  1.00  0.00    -0.270 OA
HETATM    7  O   UNL     1      47.665  18.145  32.999  1.00  0.00    -0.263 OA
HETATM    8  O   UNL     1      45.777  18.324  35.473  1.00  0.00    -0.270 OA
HETATM    9  O   UNL     1      43.986  14.272  35.506  1.00  0.00    -0.263 OA
HETATM   10  N   UNL     1      46.693  16.804  29.816  1.00  0.00    -0.340 N 
HETATM   11  N   UNL     1      42.498  12.599  31.017  1.00  0.00    -0.340 N 
HETATM   12  N   UNL     1      46.135  16.035  35.376  1.00  0.00    -0.340 N 
HETATM   13  C   UNL     1      47.717  16.960  30.876  1.00  0.00     0.190 C 
HETATM   14  C   UNL     1      42.741  12.772  29.571  1.00  0.00     0.190 C 
HETATM   15  C   UNL     1      45.123  15.389  28.450  1.00  0.00     0.227 C 
HETATM   16  C   UNL     1      46.208  14.770  34.616  1.00  0.00     0.190 C 
HETATM   17  C   UNL     1      43.495  12.617  33.309  1.00  0.00     0.227 C 
HETATM   18  C   UNL     1      45.025  17.249  33.458  1.00  0.00     0.227 C 
HETATM   19  C   UNL     1      46.125  15.539  29.602  1.00  0.00     0.250 C 
HETATM   20  C   UNL     1      43.300  14.180  29.421  1.00  0.00     0.283 C 
HETATM   21  C   UNL     1      43.614  12.323  31.820  1.00  0.00     0.250 C 
HETATM   22  C   UNL     1      47.078  17.461  32.171  1.00  0.00     0.283 C 
HETATM   23  C   UNL     1      45.694  17.260  34.850  1.00  0.00     0.250 C 
HETATM   24  C   UNL     1      44.852  14.084  34.664  1.00  0.00     0.283 C 
HETATM   25  C   UNL     1      46.293  18.025  29.109  1.00  0.00     0.153 C 
HETATM   26  C   UNL     1      41.158  12.865  31.547  1.00  0.00     0.153 C 
HETATM   27  C   UNL     1      46.555  16.007  36.778  1.00  0.00     0.153 C 
ENDROOT
BRANCH  15  28
HETATM   28  C   UNL     1      45.862  15.299  27.121  1.00  0.00     0.016 C 
HETATM   29  C   UNL     1      46.638  13.986  27.024  1.00  0.00     0.012 C 
HETATM   30  C   UNL     1      44.888  15.432  25.952  1.00  0.00     0.012 C 
ENDBRANCH  15  28
BRANCH  14  31
HETATM   31  C   UNL     1      41.540  12.594  28.653  1.00  0.00     0.014 C 
HETATM   32  C   UNL     1      41.807  13.284  27.313  1.00  0.00     0.012 C 
BRANCH  31  33
HETATM   33  C   UNL     1      41.198  11.112  28.417  1.00  0.00     0.002 C 
HETATM   34  C   UNL     1      42.423  10.213  28.312  1.00  0.00     0.005 C 
ENDBRANCH  31  33
ENDBRANCH  14  31
BRANCH  13  35
HETATM   35  C   UNL     1      48.895  17.838  30.457  1.00  0.00     0.014 C 
HETATM   36  C   UNL     1      48.665  19.276  30.928  1.00  0.00     0.012 C 
BRANCH  35  37
HETATM   37  C   UNL     1      50.238  17.320  31.005  1.00  0.00     0.002 C 
HETATM   38  C   UNL     1      51.214  16.892  29.919  1.00  0.00     0.005 C 
ENDBRANCH  35  37
ENDBRANCH  13  35
BRANCH  17  39
HETATM   39  C   UNL     1      43.341  11.332  34.101  1.00  0.00     0.016 C 
HETATM   40  C   UNL     1      43.138  10.145  33.163  1.00  0.00     0.012 C 
HETATM   41  C   UNL     1      42.178  11.443  35.085  1.00  0.00     0.012 C 
ENDBRANCH  17  39
BRANCH  18  42
HETATM   42  C   UNL     1      44.320  18.575  33.166  1.00  0.00     0.016 C 
HETATM   43  C   UNL     1      43.953  18.677  31.685  1.00  0.00     0.012 C 
HETATM   44  C   UNL     1      43.075  18.728  34.037  1.00  0.00     0.012 C 
ENDBRANCH  18  42
BRANCH  16  45
HETATM   45  C   UNL     1      47.300  13.804  35.070  1.00  0.00     0.010 C 
HETATM   46  C   UNL     1      48.187  13.399  33.894  1.00  0.00     0.012 C 
HETATM   47  C   UNL     1      46.689  12.567  35.728  1.00  0.00     0.012 C 
ENDBRANCH  16  45
TORSDOF 8
ENDMDL
MODEL 7
REMARK VINA RESULT:    -5.630      4.778      7.429
REMARK INTER + INTRA:          -7.681
REMARK INTER:                  -8.473
REMARK INTRA:                   0.792
REMARK UNBOUND:                 0.582
REMARK  8 active torsions:
REMARK  status: ('A' for Active; 'I' for Inactive)
REMARK    1  A    between atoms: C_13  and  C_15 
REMARK    2  A    between atoms: C_14  and  C_16 
REMARK    3  A    between atoms: C_15  and  C_22 
REMARK    4  A    between atoms: C_16  and  C_23 
REMARK    5  A    between atoms: C_17  and  C_21 
REMARK    6  A    between atoms: C_18  and  C_24 
REMARK    7  A    between atoms: C_19  and  C_27 
REMARK    8  A    between atoms: C_20  and  C_30 
ROOT
HETATM    1  O   UNL     1      44.683  16.259  29.156  1.00  0.00    -0.304 OA
HETATM    2  O   UNL     1      41.499  16.953  32.738  1.00  0.00    -0.304 OA
HETATM    3  O   UNL     1      40.916  13.363  30.944  1.00  0.00    -0.304 OA
HETATM    4  O   UNL     1      44.116  15.529  31.622  1.00  0.00    -0.270 OA
HETATM    5  O   UNL     1      42.543  16.967  28.659  1.00  0.00    -0.263 OA
HETATM    6  O   UNL     1      43.111  13.118  29.589  1.00  0.00    -0.270 OA
HETATM    7  O   UNL     1      41.466  17.381  34.999  1.00  0.00    -0.263 OA
HETATM    8  O   UNL     1      38.450  16.938  34.348  1.00  0.00    -0.270 OA
HETATM    9  O   UNL     1      38.668  13.685  31.348  1.00  0.00    -0.263 OA
HETATM   10  N   UNL     1      44.042  17.668  32.517  1.00  0.00    -0.340 N 
HETATM   11  N   UNL     1      42.186  14.310  27.826  1.00  0.00    -0.340 N 
HETATM   12  N   UNL     1      39.315  14.862  33.785  1.00  0.00    -0.340 N 
HETATM   13  C   UNL     1      43.592  17.167  33.837  1.00  0.00     0.190 C 
HETATM   14  C   UNL     1      43.468  14.995  27.571  1.00  0.00     0.190 C 
HETATM   15  C   UNL     1      44.829  17.284  30.158  1.00  0.00     0.227 C 
HETATM   16  C   UNL     1      40.329  14.025  33.108  1.00  0.00     0.190 C 
HETATM   17  C   UNL     1      40.726  13.196  29.523  1.00  0.00     0.227 C 
HETATM   18  C   UNL     1      40.077  16.947  32.577  1.00  0.00     0.227 C 
HETATM   19  C   UNL     1      44.294  16.745  31.491  1.00  0.00     0.250 C 
HETATM   20  C   UNL     1      43.480  16.195  28.509  1.00  0.00     0.283 C 
HETATM   21  C   UNL     1      42.112  13.508  28.975  1.00  0.00     0.250 C 
HETATM   22  C   UNL     1      42.069  17.226  33.944  1.00  0.00     0.283 C 
HETATM   23  C   UNL     1      39.220  16.257  33.661  1.00  0.00     0.250 C 
HETATM   24  C   UNL     1      39.833  13.676  31.714  1.00  0.00     0.283 C 
HETATM   25  C   UNL     1      44.119  19.124  32.362  1.00  0.00     0.153 C 
HETATM   26  C   UNL     1      41.037  14.612  26.969  1.00  0.00     0.153 C 
HETATM   27  C   UNL     1      38.344  14.186  34.645  1.00  0.00     0.153 C 
ENDROOT
BRANCH  15  28
HETATM   28  C   UNL     1      46.318  17.584  30.274  1.00  0.00     0.016 C 
HETATM   29  C   UNL     1      47.146  16.344  29.938  1.00  0.00     0.012 C 
HETATM   30  C   UNL     1      46.706  18.749  29.365  1.00  0.00     0.012 C 
ENDBRANCH  15  28
BRANCH  14  31
HETATM   31  C   UNL     1      43.721  15.455  26.142  1.00  0.00     0.014 C 
HETATM   32  C   UNL     1      43.240  16.898  25.972  1.00  0.00     0.012 C 
BRANCH  31  33
HETATM   33  C   UNL     1      45.205  15.350  25.747  1.00  0.00     0.002 C 
HETATM   34  C   UNL     1      46.022  14.466  26.680  1.00  0.00     0.005 C 
ENDBRANCH  31  33
ENDBRANCH  14  31
BRANCH  13  35
HETATM   35  C   UNL     1      44.264  17.873  35.014  1.00  0.00     0.014 C 
HETATM   36  C   UNL     1      44.301  16.939  36.227  1.00  0.00     0.012 C 
BRANCH  35  37
HETATM   37  C   UNL     1      45.690  18.347  34.679  1.00  0.00     0.002 C 
HETATM   38  C   UNL     1      46.508  18.731  35.904  1.00  0.00     0.005 C 
ENDBRANCH  35  37
ENDBRANCH  13  35
BRANCH  17  39
HETATM   39  C   UNL     1      40.334  11.763  29.211  1.00  0.00     0.016 C 
HETATM   40  C   UNL     1      41.396  11.094  28.343  1.00  0.00     0.012 C 
HETATM   41  C   UNL     1      38.971  11.717  28.522  1.00  0.00     0.012 C 
ENDBRANCH  17  39
BRANCH  18  42
HETATM   42  C   UNL     1      39.633  18.393  32.350  1.00  0.00     0.016 C 
HETATM   43  C   UNL     1      40.638  19.134  31.467  1.00  0.00     0.012 C 
HETATM   44  C   UNL     1      38.239  18.439  31.728  1.00  0.00     0.012 C 
ENDBRANCH  18  42
BRANCH  16  45
HETATM   45  C   UNL     1      40.722  12.753  33.857  1.00  0.00     0.010 C 
HETATM   46  C   UNL     1      42.230  12.712  34.099  1.00  0.00     0.012 C 
HETATM   47  C   UNL     1      40.271  11.511  33.089  1.00  0.00     0.012 C 
ENDBRANCH  16  45
TORSDOF 8
ENDMDL
MODEL 8
REMARK VINA RESULT:    -5.403      2.419      5.920
REMARK INTER + INTRA:          -7.348
REMARK INTER:                  -7.999
REMARK INTRA:                   0.650
REMARK UNBOUND:                 0.582
REMARK  8 active torsions:
REMARK  status: ('A' for Active; 'I' for Inactive)
REMARK    1  A    between atoms: C_13  and  C_15 
REMARK    2  A    between atoms: C_14  and  C_16 
REMARK    3  A    between atoms: C_15  and  C_22 
REMARK    4  A    between atoms: C_16  and  C_23 
REMARK    5  A    between atoms: C_17  and  C_21 
REMARK    6  A    between atoms: C_18  and  C_24 
REMARK    7  A    between atoms: C_19  and  C_27 
REMARK    8  A    between atoms: C_20  and  C_30 
ROOT
HETATM    1  O   UNL     1      50.208  18.239  30.517  1.00  0.00    -0.304 OA
HETATM    2  O   UNL     1      53.316  18.084  34.228  1.00  0.00    -0.304 OA
HETATM    3  O   UNL     1      50.146  15.640  34.877  1.00  0.00    -0.304 OA
HETATM    4  O   UNL     1      52.061  16.736  31.634  1.00  0.00    -0.270 OA
HETATM    5  O   UNL     1      49.776  19.472  32.420  1.00  0.00    -0.263 OA
HETATM    6  O   UNL     1      49.105  15.528  32.506  1.00  0.00    -0.270 OA
HETATM    7  O   UNL     1      55.528  17.606  34.647  1.00  0.00    -0.263 OA
HETATM    8  O   UNL     1      54.369  18.021  37.510  1.00  0.00    -0.270 OA
HETATM    9  O   UNL     1      50.352  16.196  37.106  1.00  0.00    -0.263 OA
HETATM   10  N   UNL     1      53.738  18.339  31.624  1.00  0.00    -0.340 N 
HETATM   11  N   UNL     1      47.886  17.458  32.924  1.00  0.00    -0.340 N 
HETATM   12  N   UNL     1      53.119  16.200  36.807  1.00  0.00    -0.340 N 
HETATM   13  C   UNL     1      54.666  17.462  32.376  1.00  0.00     0.190 C 
HETATM   14  C   UNL     1      48.102  17.934  31.544  1.00  0.00     0.190 C 
HETATM   15  C   UNL     1      51.554  18.752  30.446  1.00  0.00     0.227 C 
HETATM   16  C   UNL     1      52.295  15.514  35.789  1.00  0.00     0.190 C 
HETATM   17  C   UNL     1      48.770  16.071  34.807  1.00  0.00     0.227 C 
HETATM   18  C   UNL     1      52.985  18.407  35.582  1.00  0.00     0.227 C 
HETATM   19  C   UNL     1      52.465  17.852  31.289  1.00  0.00     0.250 C 
HETATM   20  C   UNL     1      49.443  18.655  31.571  1.00  0.00     0.283 C 
HETATM   21  C   UNL     1      48.582  16.304  33.314  1.00  0.00     0.250 C 
HETATM   22  C   UNL     1      54.590  17.760  33.874  1.00  0.00     0.283 C 
HETATM   23  C   UNL     1      53.569  17.527  36.709  1.00  0.00     0.250 C 
HETATM   24  C   UNL     1      50.830  15.829  36.043  1.00  0.00     0.283 C 
HETATM   25  C   UNL     1      54.207  19.700  31.345  1.00  0.00     0.153 C 
HETATM   26  C   UNL     1      47.088  18.276  33.840  1.00  0.00     0.153 C 
HETATM   27  C   UNL     1      53.492  15.440  38.000  1.00  0.00     0.153 C 
ENDROOT
BRANCH  15  28
HETATM   28  C   UNL     1      51.973  18.699  28.983  1.00  0.00     0.016 C 
HETATM   29  C   UNL     1      51.888  17.271  28.448  1.00  0.00     0.012 C 
HETATM   30  C   UNL     1      51.111  19.638  28.141  1.00  0.00     0.012 C 
ENDBRANCH  15  28
BRANCH  14  31
HETATM   31  C   UNL     1      47.035  18.853  30.966  1.00  0.00     0.014 C 
HETATM   32  C   UNL     1      47.624  19.667  29.811  1.00  0.00     0.012 C 
BRANCH  31  33
HETATM   33  C   UNL     1      45.796  18.079  30.481  1.00  0.00     0.002 C 
HETATM   34  C   UNL     1      45.843  17.719  29.002  1.00  0.00     0.005 C 
ENDBRANCH  31  33
ENDBRANCH  14  31
BRANCH  13  35
HETATM   35  C   UNL     1      56.105  17.521  31.866  1.00  0.00     0.014 C 
HETATM   36  C   UNL     1      56.980  16.553  32.667  1.00  0.00     0.012 C 
BRANCH  35  37
HETATM   37  C   UNL     1      56.210  17.195  30.365  1.00  0.00     0.002 C 
HETATM   38  C   UNL     1      55.818  15.765  30.024  1.00  0.00     0.005 C 
ENDBRANCH  35  37
ENDBRANCH  13  35
BRANCH  17  39
HETATM   39  C   UNL     1      47.849  14.970  35.299  1.00  0.00     0.016 C 
HETATM   40  C   UNL     1      46.944  14.483  34.170  1.00  0.00     0.012 C 
HETATM   41  C   UNL     1      47.015  15.457  36.483  1.00  0.00     0.012 C 
ENDBRANCH  17  39
BRANCH  18  42
HETATM   42  C   UNL     1      53.317  19.884  35.797  1.00  0.00     0.016 C 
HETATM   43  C   UNL     1      52.966  20.704  34.556  1.00  0.00     0.012 C 
HETATM   44  C   UNL     1      52.585  20.429  37.022  1.00  0.00     0.012 C 
ENDBRANCH  18  42
BRANCH  16  45
HETATM   45  C   UNL     1      52.499  14.003  35.703  1.00  0.00     0.010 C 
HETATM   46  C   UNL     1      53.752  13.671  34.893  1.00  0.00     0.012 C 
HETATM   47  C   UNL     1      51.273  13.326  35.091  1.00  0.00     0.012 C 
ENDBRANCH  16  45
TORSDOF 8
ENDMDL
MODEL 9
REMARK VINA RESULT:    -5.301     15.962     19.912
REMARK INTER + INTRA:          -7.199
REMARK INTER:                  -7.458
REMARK INTRA:                   0.259
REMARK UNBOUND:                 0.582
REMARK  8 active torsions:
REMARK  status: ('A' for Active; 'I' for Inactive)
REMARK    1  A    between atoms: C_13  and  C_15 
REMARK    2  A    between atoms: C_14  and  C_16 
REMARK    3  A    between atoms: C_15  and  C_22 
REMARK    4  A    between atoms: C_16  and  C_23 
REMARK    5  A    between atoms: C_17  and  C_21 
REMARK    6  A    between atoms: C_18  and  C_24 
REMARK    7  A    between atoms: C_19  and  C_27 
REMARK    8  A    between atoms: C_20  and  C_30 
ROOT
HETATM    1  O   UNL     1      58.970   5.191  24.767  1.00  0.00    -0.304 OA
HETATM    2  O   UNL     1      63.075   7.549  25.788  1.00  0.00    -0.304 OA
HETATM    3  O   UNL     1      62.986   6.390  21.904  1.00  0.00    -0.304 OA
HETATM    4  O   UNL     1      60.199   7.497  24.431  1.00  0.00    -0.270 OA
HETATM    5  O   UNL     1      60.900   3.995  25.185  1.00  0.00    -0.263 OA
HETATM    6  O   UNL     1      60.486   5.769  21.623  1.00  0.00    -0.270 OA
HETATM    7  O   UNL     1      63.775   9.586  26.600  1.00  0.00    -0.263 OA
HETATM    8  O   UNL     1      66.456   8.224  25.782  1.00  0.00    -0.270 OA
HETATM    9  O   UNL     1      65.266   6.086  22.089  1.00  0.00    -0.263 OA
HETATM   10  N   UNL     1      60.604   7.907  26.678  1.00  0.00    -0.340 N 
HETATM   11  N   UNL     1      60.906   3.624  22.402  1.00  0.00    -0.340 N 
HETATM   12  N   UNL     1      65.391   8.333  23.726  1.00  0.00    -0.340 N 
HETATM   13  C   UNL     1      61.397   9.122  26.377  1.00  0.00     0.190 C 
HETATM   14  C   UNL     1      59.630   3.607  23.143  1.00  0.00     0.190 C 
HETATM   15  C   UNL     1      59.156   5.979  25.960  1.00  0.00     0.227 C 
HETATM   16  C   UNL     1      64.197   8.138  22.877  1.00  0.00     0.190 C 
HETATM   17  C   UNL     1      62.753   5.032  21.475  1.00  0.00     0.227 C 
HETATM   18  C   UNL     1      64.389   7.005  25.628  1.00  0.00     0.227 C 
HETATM   19  C   UNL     1      60.033   7.188  25.617  1.00  0.00     0.250 C 
HETATM   20  C   UNL     1      59.932   4.262  24.484  1.00  0.00     0.283 C 
HETATM   21  C   UNL     1      61.279   4.839  21.809  1.00  0.00     0.250 C 
HETATM   22  C   UNL     1      62.888   8.790  26.318  1.00  0.00     0.283 C 
HETATM   23  C   UNL     1      65.497   7.922  25.064  1.00  0.00     0.250 C 
HETATM   24  C   UNL     1      64.256   6.755  22.248  1.00  0.00     0.283 C 
HETATM   25  C   UNL     1      60.538   7.502  28.086  1.00  0.00     0.153 C 
HETATM   26  C   UNL     1      61.768   2.441  22.446  1.00  0.00     0.153 C 
HETATM   27  C   UNL     1      66.545   9.004  23.126  1.00  0.00     0.153 C 
ENDROOT
BRANCH  15  28
HETATM   28  C   UNL     1      57.776   6.442  26.407  1.00  0.00     0.016 C 
HETATM   29  C   UNL     1      56.715   6.042  25.384  1.00  0.00     0.012 C 
HETATM   30  C   UNL     1      57.434   5.871  27.783  1.00  0.00     0.012 C 
ENDBRANCH  15  28
BRANCH  14  31
HETATM   31  C   UNL     1      58.992   2.243  23.368  1.00  0.00     0.014 C 
HETATM   32  C   UNL     1      58.201   2.252  24.679  1.00  0.00     0.012 C 
BRANCH  31  33
HETATM   33  C   UNL     1      58.072   1.828  22.206  1.00  0.00     0.002 C 
HETATM   34  C   UNL     1      57.661   2.989  21.310  1.00  0.00     0.005 C 
ENDBRANCH  31  33
ENDBRANCH  14  31
BRANCH  13  35
HETATM   35  C   UNL     1      61.119  10.280  27.335  1.00  0.00     0.014 C 
HETATM   36  C   UNL     1      61.698  11.577  26.762  1.00  0.00     0.012 C 
BRANCH  35  37
HETATM   37  C   UNL     1      59.617  10.461  27.617  1.00  0.00     0.002 C 
HETATM   38  C   UNL     1      58.835  11.001  26.429  1.00  0.00     0.005 C 
ENDBRANCH  35  37
ENDBRANCH  13  35
BRANCH  17  39
HETATM   39  C   UNL     1      62.986   4.905  19.980  1.00  0.00     0.016 C 
HETATM   40  C   UNL     1      61.698   4.501  19.268  1.00  0.00     0.012 C 
HETATM   41  C   UNL     1      64.097   3.896  19.694  1.00  0.00     0.012 C 
ENDBRANCH  17  39
BRANCH  18  42
HETATM   42  C   UNL     1      64.799   6.390  26.967  1.00  0.00     0.016 C 
HETATM   43  C   UNL     1      63.627   5.639  27.598  1.00  0.00     0.012 C 
HETATM   44  C   UNL     1      65.997   5.459  26.789  1.00  0.00     0.012 C 
ENDBRANCH  18  42
BRANCH  16  45
HETATM   45  C   UNL     1      63.991   9.197  21.796  1.00  0.00     0.010 C 
HETATM   46  C   UNL     1      62.606   9.832  21.917  1.00  0.00     0.012 C 
HETATM   47  C   UNL     1      64.182   8.594  20.405  1.00  0.00     0.012 C 
ENDBRANCH  16  45
TORSDOF 8
ENDMDL
MODEL 10
REMARK VINA RESULT:    -5.208     12.651     17.534
REMARK INTER + INTRA:          -7.062
REMARK INTER:                  -7.356
REMARK INTRA:                   0.294
REMARK UNBOUND:                 0.582
REMARK  8 active torsions:
REMARK  status: ('A' for Active; 'I' for Inactive)
REMARK    1  A    between atoms: C_13  and  C_15 
REMARK    2  A    between atoms: C_14  and  C_16 
REMARK    3  A    between atoms: C_15  and  C_22 
REMARK    4  A    between atoms: C_16  and  C_23 
REMARK    5  A    between atoms: C_17  and  C_21 
REMARK    6  A    between atoms: C_18  and  C_24 
REMARK    7  A    between atoms: C_19  and  C_27 
REMARK    8  A    between atoms: C_20  and  C_30 
ROOT
HETATM    1  O   UNL     1      58.494  10.534  26.428  1.00  0.00    -0.304 OA
HETATM    2  O   UNL     1      61.761  13.451  24.362  1.00  0.00    -0.304 OA
HETATM    3  O   UNL     1      62.399   9.583  23.328  1.00  0.00    -0.304 OA
HETATM    4  O   UNL     1      59.157  11.639  24.130  1.00  0.00    -0.270 OA
HETATM    5  O   UNL     1      60.595  10.737  27.361  1.00  0.00    -0.263 OA
HETATM    6  O   UNL     1      60.173   8.489  24.079  1.00  0.00    -0.270 OA
HETATM    7  O   UNL     1      61.849  15.279  22.966  1.00  0.00    -0.263 OA
HETATM    8  O   UNL     1      64.856  14.523  23.284  1.00  0.00    -0.270 OA
HETATM    9  O   UNL     1      64.648  10.098  23.339  1.00  0.00    -0.263 OA
HETATM   10  N   UNL     1      59.192  13.829  24.894  1.00  0.00    -0.340 N 
HETATM   11  N   UNL     1      61.009   8.203  26.225  1.00  0.00    -0.340 N 
HETATM   12  N   UNL     1      64.038  12.599  22.282  1.00  0.00    -0.340 N 
HETATM   13  C   UNL     1      59.696  14.339  23.597  1.00  0.00     0.190 C 
HETATM   14  C   UNL     1      59.698   8.539  26.816  1.00  0.00     0.190 C 
HETATM   15  C   UNL     1      58.346  11.967  26.359  1.00  0.00     0.227 C 
HETATM   16  C   UNL     1      63.031  11.522  22.184  1.00  0.00     0.190 C 
HETATM   17  C   UNL     1      62.552   8.510  24.282  1.00  0.00     0.227 C 
HETATM   18  C   UNL     1      63.177  13.344  24.539  1.00  0.00     0.227 C 
HETATM   19  C   UNL     1      58.937  12.456  25.031  1.00  0.00     0.250 C 
HETATM   20  C   UNL     1      59.678  10.058  26.918  1.00  0.00     0.283 C 
HETATM   21  C   UNL     1      61.141   8.373  24.839  1.00  0.00     0.250 C 
HETATM   22  C   UNL     1      61.220  14.459  23.622  1.00  0.00     0.283 C 
HETATM   23  C   UNL     1      64.087  13.556  23.308  1.00  0.00     0.250 C 
HETATM   24  C   UNL     1      63.495  10.333  23.010  1.00  0.00     0.283 C 
HETATM   25  C   UNL     1      59.066  14.810  25.977  1.00  0.00     0.153 C 
HETATM   26  C   UNL     1      62.121   7.859  27.114  1.00  0.00     0.153 C 
HETATM   27  C   UNL     1      65.055  12.672  21.233  1.00  0.00     0.153 C 
ENDROOT
BRANCH  15  28
HETATM   28  C   UNL     1      56.853  12.263  26.409  1.00  0.00     0.016 C 
HETATM   29  C   UNL     1      56.071  11.234  25.595  1.00  0.00     0.012 C 
HETATM   30  C   UNL     1      56.357  12.291  27.853  1.00  0.00     0.012 C 
ENDBRANCH  15  28
BRANCH  14  31
HETATM   31  C   UNL     1      59.389   7.928  28.176  1.00  0.00     0.014 C 
HETATM   32  C   UNL     1      58.479   8.868  28.970  1.00  0.00     0.012 C 
BRANCH  31  33
HETATM   33  C   UNL     1      58.732   6.541  28.058  1.00  0.00     0.002 C 
HETATM   34  C   UNL     1      58.226   5.992  29.385  1.00  0.00     0.005 C 
ENDBRANCH  31  33
ENDBRANCH  14  31
BRANCH  13  35
HETATM   35  C   UNL     1      59.038  15.648  23.163  1.00  0.00     0.014 C 
HETATM   36  C   UNL     1      59.315  15.901  21.678  1.00  0.00     0.012 C 
BRANCH  35  37
HETATM   37  C   UNL     1      57.520  15.656  23.417  1.00  0.00     0.002 C 
HETATM   38  C   UNL     1      56.722  14.909  22.359  1.00  0.00     0.005 C 
ENDBRANCH  35  37
ENDBRANCH  13  35
BRANCH  17  39
HETATM   39  C   UNL     1      62.978   7.236  23.576  1.00  0.00     0.016 C 
HETATM   40  C   UNL     1      61.919   6.150  23.743  1.00  0.00     0.012 C 
HETATM   41  C   UNL     1      64.328   6.755  24.105  1.00  0.00     0.012 C 
ENDBRANCH  17  39
BRANCH  18  42
HETATM   42  C   UNL     1      63.569  14.270  25.691  1.00  0.00     0.016 C 
HETATM   43  C   UNL     1      62.467  14.311  26.750  1.00  0.00     0.012 C 
HETATM   44  C   UNL     1      64.892  13.829  26.312  1.00  0.00     0.012 C 
ENDBRANCH  18  42
BRANCH  16  45
HETATM   45  C   UNL     1      62.700  11.073  20.762  1.00  0.00     0.010 C 
HETATM   46  C   UNL     1      61.201  11.200  20.490  1.00  0.00     0.012 C 
HETATM   47  C   UNL     1      63.166   9.637  20.525  1.00  0.00     0.012 C 
ENDBRANCH  16  45
TORSDOF 8
ENDMDL
MODEL 11
REMARK VINA RESULT:    -5.174     15.080     18.763
REMARK INTER + INTRA:          -7.013
REMARK INTER:                  -7.525
REMARK INTRA:                   0.513
REMARK UNBOUND:                 0.582
REMARK  8 active torsions:
REMARK  status: ('A' for Active; 'I' for Inactive)
REMARK    1  A    between atoms: C_13  and  C_15 
REMARK    2  A    between atoms: C_14  and  C_16 
REMARK    3  A    between atoms: C_15  and  C_22 
REMARK    4  A    between atoms: C_16  and  C_23 
REMARK    5  A    between atoms: C_17  and  C_21 
REMARK    6  A    between atoms: C_18  and  C_24 
REMARK    7  A    between atoms: C_19  and  C_27 
REMARK    8  A    between atoms: C_20  and  C_30 
ROOT
HETATM    1  O   UNL     1      59.931   4.559  23.229  1.00  0.00    -0.304 OA
HETATM    2  O   UNL     1      61.875   7.917  26.125  1.00  0.00    -0.304 OA
HETATM    3  O   UNL     1      61.390   9.342  22.360  1.00  0.00    -0.304 OA
HETATM    4  O   UNL     1      59.369   6.777  24.533  1.00  0.00    -0.270 OA
HETATM    5  O   UNL     1      62.210   4.925  23.183  1.00  0.00    -0.263 OA
HETATM    6  O   UNL     1      59.815   7.552  21.346  1.00  0.00    -0.270 OA
HETATM    7  O   UNL     1      61.408   9.029  28.086  1.00  0.00    -0.263 OA
HETATM    8  O   UNL     1      63.994  10.459  27.095  1.00  0.00    -0.270 OA
HETATM    9  O   UNL     1      63.328  10.542  22.716  1.00  0.00    -0.263 OA
HETATM   10  N   UNL     1      60.070   6.040  26.618  1.00  0.00    -0.340 N 
HETATM   11  N   UNL     1      61.639   6.239  20.768  1.00  0.00    -0.340 N 
HETATM   12  N   UNL     1      62.544  10.950  25.354  1.00  0.00    -0.340 N 
HETATM   13  C   UNL     1      59.847   7.370  27.232  1.00  0.00     0.190 C 
HETATM   14  C   UNL     1      60.909   5.007  21.125  1.00  0.00     0.190 C 
HETATM   15  C   UNL     1      59.940   4.456  24.667  1.00  0.00     0.227 C 
HETATM   16  C   UNL     1      61.525  10.537  24.366  1.00  0.00     0.190 C 
HETATM   17  C   UNL     1      61.908   8.690  21.181  1.00  0.00     0.227 C 
HETATM   18  C   UNL     1      63.137   8.555  25.902  1.00  0.00     0.227 C 
HETATM   19  C   UNL     1      59.771   5.861  25.258  1.00  0.00     0.250 C 
HETATM   20  C   UNL     1      61.126   4.828  22.622  1.00  0.00     0.283 C 
HETATM   21  C   UNL     1      61.019   7.457  21.080  1.00  0.00     0.250 C 
HETATM   22  C   UNL     1      61.143   8.181  27.243  1.00  0.00     0.283 C 
HETATM   23  C   UNL     1      63.253  10.069  26.186  1.00  0.00     0.250 C 
HETATM   24  C   UNL     1      62.218  10.168  23.064  1.00  0.00     0.283 C 
HETATM   25  C   UNL     1      60.667   5.014  27.479  1.00  0.00     0.153 C 
HETATM   26  C   UNL     1      63.006   6.129  20.252  1.00  0.00     0.153 C 
HETATM   27  C   UNL     1      62.830  12.379  25.473  1.00  0.00     0.153 C 
ENDROOT
BRANCH  15  28
HETATM   28  C   UNL     1      58.759   3.577  25.058  1.00  0.00     0.016 C 
HETATM   29  C   UNL     1      57.864   3.308  23.850  1.00  0.00     0.012 C 
HETATM   30  C   UNL     1      59.244   2.263  25.668  1.00  0.00     0.012 C 
ENDBRANCH  15  28
BRANCH  14  31
HETATM   31  C   UNL     1      61.315   3.737  20.390  1.00  0.00     0.014 C 
HETATM   32  C   UNL     1      60.945   2.513  21.230  1.00  0.00     0.012 C 
BRANCH  31  33
HETATM   33  C   UNL     1      60.665   3.633  19.000  1.00  0.00     0.002 C 
HETATM   34  C   UNL     1      59.266   4.230  18.935  1.00  0.00     0.005 C 
ENDBRANCH  31  33
ENDBRANCH  14  31
BRANCH  13  35
HETATM   35  C   UNL     1      59.219   7.298  28.623  1.00  0.00     0.014 C 
HETATM   36  C   UNL     1      58.570   8.641  28.970  1.00  0.00     0.012 C 
BRANCH  35  37
HETATM   37  C   UNL     1      58.177   6.172  28.740  1.00  0.00     0.002 C 
HETATM   38  C   UNL     1      58.000   5.649  30.158  1.00  0.00     0.005 C 
ENDBRANCH  35  37
ENDBRANCH  13  35
BRANCH  17  39
HETATM   39  C   UNL     1      61.730   9.583  19.966  1.00  0.00     0.016 C 
HETATM   40  C   UNL     1      60.726   8.970  18.993  1.00  0.00     0.012 C 
HETATM   41  C   UNL     1      63.071   9.823  19.275  1.00  0.00     0.012 C 
ENDBRANCH  17  39
BRANCH  18  42
HETATM   42  C   UNL     1      64.196   7.760  26.666  1.00  0.00     0.016 C 
HETATM   43  C   UNL     1      63.768   6.301  26.824  1.00  0.00     0.012 C 
HETATM   44  C   UNL     1      65.549   7.847  25.963  1.00  0.00     0.012 C 
ENDBRANCH  18  42
BRANCH  16  45
HETATM   45  C   UNL     1      60.426  11.564  24.101  1.00  0.00     0.010 C 
HETATM   46  C   UNL     1      59.235  11.332  25.030  1.00  0.00     0.012 C 
HETATM   47  C   UNL     1      59.982  11.517  22.640  1.00  0.00     0.012 C 
ENDBRANCH  16  45
TORSDOF 8
ENDMDL
MODEL 12
REMARK VINA RESULT:    -5.045      3.761      8.830
REMARK INTER + INTRA:          -6.823
REMARK INTER:                  -7.365
REMARK INTRA:                   0.542
REMARK UNBOUND:                 0.582
REMARK  8 active torsions:
REMARK  status: ('A' for Active; 'I' for Inactive)
REMARK    1  A    between atoms: C_13  and  C_15 
REMARK    2  A    between atoms: C_14  and  C_16 
REMARK    3  A    between atoms: C_15  and  C_22 
REMARK    4  A    between atoms: C_16  and  C_23 
REMARK    5  A    between atoms: C_17  and  C_21 
REMARK    6  A    between atoms: C_18  and  C_24 
REMARK    7  A    between atoms: C_19  and  C_27 
REMARK    8  A    between atoms: C_20  and  C_30 
ROOT
HETATM    1  O   UNL     1      50.943  18.072  32.330  1.00  0.00    -0.304 OA
HETATM    2  O   UNL     1      55.741  17.727  31.778  1.00  0.00    -0.304 OA
HETATM    3  O   UNL     1      54.365  21.278  30.388  1.00  0.00    -0.304 OA
HETATM    4  O   UNL     1      53.230  18.929  33.317  1.00  0.00    -0.270 OA
HETATM    5  O   UNL     1      51.816  17.491  30.274  1.00  0.00    -0.263 OA
HETATM    6  O   UNL     1      51.982  21.325  31.404  1.00  0.00    -0.270 OA
HETATM    7  O   UNL     1      57.634  17.386  33.043  1.00  0.00    -0.263 OA
HETATM    8  O   UNL     1      58.805  18.006  30.221  1.00  0.00    -0.270 OA
HETATM    9  O   UNL     1      56.008  21.123  28.776  1.00  0.00    -0.263 OA
HETATM   10  N   UNL     1      54.150  16.835  33.701  1.00  0.00    -0.340 N 
HETATM   11  N   UNL     1      51.159  20.133  29.591  1.00  0.00    -0.340 N 
HETATM   12  N   UNL     1      57.705  19.997  30.672  1.00  0.00    -0.340 N 
HETATM   13  C   UNL     1      55.450  17.413  34.114  1.00  0.00     0.190 C 
HETATM   14  C   UNL     1      50.261  19.355  30.467  1.00  0.00     0.190 C 
HETATM   15  C   UNL     1      51.747  17.077  32.995  1.00  0.00     0.227 C 
HETATM   16  C   UNL     1      56.514  20.738  31.136  1.00  0.00     0.190 C 
HETATM   17  C   UNL     1      53.304  21.405  29.417  1.00  0.00     0.227 C 
HETATM   18  C   UNL     1      56.427  17.822  30.526  1.00  0.00     0.227 C 
HETATM   19  C   UNL     1      53.104  17.700  33.345  1.00  0.00     0.250 C 
HETATM   20  C   UNL     1      51.102  18.193  30.978  1.00  0.00     0.283 C 
HETATM   21  C   UNL     1      52.082  20.980  30.221  1.00  0.00     0.250 C 
HETATM   22  C   UNL     1      56.417  17.460  32.931  1.00  0.00     0.283 C 
HETATM   23  C   UNL     1      57.756  18.607  30.476  1.00  0.00     0.250 C 
HETATM   24  C   UNL     1      55.637  21.067  29.938  1.00  0.00     0.283 C 
HETATM   25  C   UNL     1      54.080  15.371  33.626  1.00  0.00     0.153 C 
HETATM   26  C   UNL     1      51.140  19.877  28.149  1.00  0.00     0.153 C 
HETATM   27  C   UNL     1      58.918  20.768  30.398  1.00  0.00     0.153 C 
ENDROOT
BRANCH  15  28
HETATM   28  C   UNL     1      51.007  16.683  34.266  1.00  0.00     0.016 C 
HETATM   29  C   UNL     1      49.987  17.752  34.650  1.00  0.00     0.012 C 
HETATM   30  C   UNL     1      50.322  15.328  34.093  1.00  0.00     0.012 C 
ENDBRANCH  15  28
BRANCH  14  31
HETATM   31  C   UNL     1      48.982  18.826  29.833  1.00  0.00     0.014 C 
HETATM   32  C   UNL     1      48.553  17.535  30.535  1.00  0.00     0.012 C 
BRANCH  31  33
HETATM   33  C   UNL     1      47.837  19.852  29.881  1.00  0.00     0.002 C 
HETATM   34  C   UNL     1      46.663  19.414  30.747  1.00  0.00     0.005 C 
ENDBRANCH  31  33
ENDBRANCH  14  31
BRANCH  13  35
HETATM   35  C   UNL     1      56.073  16.707  35.318  1.00  0.00     0.014 C 
HETATM   36  C   UNL     1      57.239  17.538  35.860  1.00  0.00     0.012 C 
BRANCH  35  37
HETATM   37  C   UNL     1      55.052  16.450  36.441  1.00  0.00     0.002 C 
HETATM   38  C   UNL     1      55.202  15.087  37.100  1.00  0.00     0.005 C 
ENDBRANCH  35  37
ENDBRANCH  13  35
BRANCH  17  39
HETATM   39  C   UNL     1      53.176  22.848  28.965  1.00  0.00     0.016 C 
HETATM   40  C   UNL     1      52.921  23.764  30.160  1.00  0.00     0.012 C 
HETATM   41  C   UNL     1      52.059  22.990  27.932  1.00  0.00     0.012 C 
ENDBRANCH  17  39
BRANCH  18  42
HETATM   42  C   UNL     1      56.596  16.401  29.984  1.00  0.00     0.016 C 
HETATM   43  C   UNL     1      55.344  15.567  30.255  1.00  0.00     0.012 C 
HETATM   44  C   UNL     1      56.909  16.427  28.490  1.00  0.00     0.012 C 
ENDBRANCH  18  42
BRANCH  16  45
HETATM   45  C   UNL     1      56.811  22.008  31.932  1.00  0.00     0.010 C 
HETATM   46  C   UNL     1      56.044  22.009  33.253  1.00  0.00     0.012 C 
HETATM   47  C   UNL     1      56.468  23.252  31.114  1.00  0.00     0.012 C 
ENDBRANCH  16  45
TORSDOF 8
ENDMDL
MODEL 13
REMARK VINA RESULT:    -4.904      3.091      8.273
REMARK INTER + INTRA:          -6.615
REMARK INTER:                  -7.329
REMARK INTRA:                   0.714
REMARK UNBOUND:                 0.582
REMARK  8 active torsions:
REMARK  status: ('A' for Active; 'I' for Inactive)
REMARK    1  A    between atoms: C_13  and  C_15 
REMARK    2  A    between atoms: C_14  and  C_16 
REMARK    3  A    between atoms: C_15  and  C_22 
REMARK    4  A    between atoms: C_16  and  C_23 
REMARK    5  A    between atoms: C_17  and  C_21 
REMARK    6  A    between atoms: C_18  and  C_24 
REMARK    7  A    between atoms: C_19  and  C_27 
REMARK    8  A    between atoms: C_20  and  C_30 
ROOT
HETATM    1  O   UNL     1      54.495  16.166  35.462  1.00  0.00    -0.304 OA
HETATM    2  O   UNL     1      54.590  17.421  30.786  1.00  0.00    -0.304 OA
HETATM    3  O   UNL     1      50.835  17.689  32.292  1.00  0.00    -0.304 OA
HETATM    4  O   UNL     1      54.390  18.248  33.851  1.00  0.00    -0.270 OA
HETATM    5  O   UNL     1      53.851  14.638  33.857  1.00  0.00    -0.263 OA
HETATM    6  O   UNL     1      51.305  17.564  34.837  1.00  0.00    -0.270 OA
HETATM    7  O   UNL     1      55.624  18.936  29.396  1.00  0.00    -0.263 OA
HETATM    8  O   UNL     1      53.564  17.569  27.498  1.00  0.00    -0.270 OA
HETATM    9  O   UNL     1      50.103  17.019  30.209  1.00  0.00    -0.263 OA
HETATM   10  N   UNL     1      56.364  17.801  32.719  1.00  0.00    -0.340 N 
HETATM   11  N   UNL     1      51.262  15.246  34.757  1.00  0.00    -0.340 N 
HETATM   12  N   UNL     1      52.137  18.527  29.055  1.00  0.00    -0.340 N 
HETATM   13  C   UNL     1      56.147  18.920  31.771  1.00  0.00     0.190 C 
HETATM   14  C   UNL     1      52.374  15.157  35.723  1.00  0.00     0.190 C 
HETATM   15  C   UNL     1      55.710  16.462  34.746  1.00  0.00     0.227 C 
HETATM   16  C   UNL     1      51.753  18.806  30.454  1.00  0.00     0.190 C 
HETATM   17  C   UNL     1      50.162  16.608  32.972  1.00  0.00     0.227 C 
HETATM   18  C   UNL     1      53.829  16.784  29.756  1.00  0.00     0.227 C 
HETATM   19  C   UNL     1      55.423  17.578  33.735  1.00  0.00     0.250 C 
HETATM   20  C   UNL     1      53.644  15.263  34.888  1.00  0.00     0.283 C 
HETATM   21  C   UNL     1      50.933  16.524  34.283  1.00  0.00     0.250 C 
HETATM   22  C   UNL     1      55.471  18.419  30.495  1.00  0.00     0.283 C 
HETATM   23  C   UNL     1      53.182  17.671  28.669  1.00  0.00     0.250 C 
HETATM   24  C   UNL     1      50.790  17.729  30.928  1.00  0.00     0.283 C 
HETATM   25  C   UNL     1      57.534  16.952  32.469  1.00  0.00     0.153 C 
HETATM   26  C   UNL     1      50.669  14.009  34.243  1.00  0.00     0.153 C 
HETATM   27  C   UNL     1      51.374  19.191  27.998  1.00  0.00     0.153 C 
ENDROOT
BRANCH  15  28
HETATM   28  C   UNL     1      56.729  16.935  35.774  1.00  0.00     0.016 C 
HETATM   29  C   UNL     1      56.030  17.585  36.967  1.00  0.00     0.012 C 
HETATM   30  C   UNL     1      57.608  15.774  36.237  1.00  0.00     0.012 C 
ENDBRANCH  15  28
BRANCH  14  31
HETATM   31  C   UNL     1      52.428  13.904  36.586  1.00  0.00     0.014 C 
HETATM   32  C   UNL     1      53.812  13.778  37.227  1.00  0.00     0.012 C 
BRANCH  31  33
HETATM   33  C   UNL     1      51.344  13.899  37.678  1.00  0.00     0.002 C 
HETATM   34  C   UNL     1      50.558  12.597  37.750  1.00  0.00     0.005 C 
ENDBRANCH  31  33
ENDBRANCH  14  31
BRANCH  13  35
HETATM   35  C   UNL     1      57.419  19.707  31.459  1.00  0.00     0.014 C 
HETATM   36  C   UNL     1      58.072  19.155  30.189  1.00  0.00     0.012 C 
BRANCH  35  37
HETATM   37  C   UNL     1      57.152  21.213  31.294  1.00  0.00     0.002 C 
HETATM   38  C   UNL     1      57.456  22.026  32.544  1.00  0.00     0.005 C 
ENDBRANCH  35  37
ENDBRANCH  13  35
BRANCH  17  39
HETATM   39  C   UNL     1      48.710  16.969  33.224  1.00  0.00     0.016 C 
HETATM   40  C   UNL     1      48.413  16.982  34.721  1.00  0.00     0.012 C 
HETATM   41  C   UNL     1      47.781  15.996  32.501  1.00  0.00     0.012 C 
ENDBRANCH  17  39
BRANCH  18  42
HETATM   42  C   UNL     1      54.709  15.696  29.139  1.00  0.00     0.016 C 
HETATM   43  C   UNL     1      55.770  15.230  30.135  1.00  0.00     0.012 C 
HETATM   44  C   UNL     1      53.860  14.516  28.671  1.00  0.00     0.012 C 
ENDBRANCH  18  42
BRANCH  16  45
HETATM   45  C   UNL     1      51.151  20.189  30.696  1.00  0.00     0.010 C 
HETATM   46  C   UNL     1      51.957  20.953  31.746  1.00  0.00     0.012 C 
HETATM   47  C   UNL     1      49.689  20.076  31.124  1.00  0.00     0.012 C 
ENDBRANCH  16  45
TORSDOF 8
ENDMDL
MODEL 14
REMARK VINA RESULT:    -4.784      6.889     11.248
REMARK INTER + INTRA:          -6.440
REMARK INTER:                  -7.010
REMARK INTRA:                   0.569
REMARK UNBOUND:                 0.582
REMARK  8 active torsions:
REMARK  status: ('A' for Active; 'I' for Inactive)
REMARK    1  A    between atoms: C_13  and  C_15 
REMARK    2  A    between atoms: C_14  and  C_16 
REMARK    3  A    between atoms: C_15  and  C_22 
REMARK    4  A    between atoms: C_16  and  C_23 
REMARK    5  A    between atoms: C_17  and  C_21 
REMARK    6  A    between atoms: C_18  and  C_24 
REMARK    7  A    between atoms: C_19  and  C_27 
REMARK    8  A    between atoms: C_20  and  C_30 
ROOT
HETATM    1  O   UNL     1      52.279  23.188  29.573  1.00  0.00    -0.304 OA
HETATM    2  O   UNL     1      56.095  23.293  32.552  1.00  0.00    -0.304 OA
HETATM    3  O   UNL     1      53.761  26.570  33.056  1.00  0.00    -0.304 OA
HETATM    4  O   UNL     1      52.979  22.850  32.090  1.00  0.00    -0.270 OA
HETATM    5  O   UNL     1      54.123  24.462  29.021  1.00  0.00    -0.263 OA
HETATM    6  O   UNL     1      51.609  25.849  31.806  1.00  0.00    -0.270 OA
HETATM    7  O   UNL     1      57.062  22.026  34.213  1.00  0.00    -0.263 OA
HETATM    8  O   UNL     1      58.784  24.624  34.252  1.00  0.00    -0.270 OA
HETATM    9  O   UNL     1      55.715  27.723  33.476  1.00  0.00    -0.263 OA
HETATM   10  N   UNL     1      54.623  21.263  31.692  1.00  0.00    -0.340 N 
HETATM   11  N   UNL     1      52.490  26.609  29.799  1.00  0.00    -0.340 N 
HETATM   12  N   UNL     1      56.703  25.485  34.802  1.00  0.00    -0.340 N 
HETATM   13  C   UNL     1      55.036  21.244  33.116  1.00  0.00     0.190 C 
HETATM   14  C   UNL     1      51.905  25.466  29.071  1.00  0.00     0.190 C 
HETATM   15  C   UNL     1      53.107  22.039  29.841  1.00  0.00     0.227 C 
HETATM   16  C   UNL     1      55.246  25.590  34.573  1.00  0.00     0.190 C 
HETATM   17  C   UNL     1      53.371  27.452  31.982  1.00  0.00     0.227 C 
HETATM   18  C   UNL     1      57.076  24.334  32.583  1.00  0.00     0.227 C 
HETATM   19  C   UNL     1      53.562  22.094  31.304  1.00  0.00     0.250 C 
HETATM   20  C   UNL     1      52.919  24.339  29.205  1.00  0.00     0.283 C 
HETATM   21  C   UNL     1      52.392  26.587  31.198  1.00  0.00     0.250 C 
HETATM   22  C   UNL     1      56.212  22.193  33.347  1.00  0.00     0.283 C 
HETATM   23  C   UNL     1      57.598  24.808  33.958  1.00  0.00     0.250 C 
HETATM   24  C   UNL     1      54.972  26.769  33.653  1.00  0.00     0.283 C 
HETATM   25  C   UNL     1      55.422  20.449  30.770  1.00  0.00     0.153 C 
HETATM   26  C   UNL     1      53.254  27.611  29.051  1.00  0.00     0.153 C 
HETATM   27  C   UNL     1      57.248  26.133  35.995  1.00  0.00     0.153 C 
ENDROOT
BRANCH  15  28
HETATM   28  C   UNL     1      52.245  20.805  29.606  1.00  0.00     0.016 C 
HETATM   29  C   UNL     1      51.249  20.617  30.749  1.00  0.00     0.012 C 
HETATM   30  C   UNL     1      51.512  20.905  28.270  1.00  0.00     0.012 C 
ENDBRANCH  15  28
BRANCH  14  31
HETATM   31  C   UNL     1      51.577  25.691  27.601  1.00  0.00     0.014 C 
HETATM   32  C   UNL     1      51.616  24.357  26.852  1.00  0.00     0.012 C 
BRANCH  31  33
HETATM   33  C   UNL     1      50.206  26.362  27.403  1.00  0.00     0.002 C 
HETATM   34  C   UNL     1      50.292  27.760  26.807  1.00  0.00     0.005 C 
ENDBRANCH  31  33
ENDBRANCH  14  31
BRANCH  13  35
HETATM   35  C   UNL     1      55.338  19.841  33.641  1.00  0.00     0.014 C 
HETATM   36  C   UNL     1      55.243  19.828  35.169  1.00  0.00     0.012 C 
BRANCH  35  37
HETATM   37  C   UNL     1      54.393  18.778  33.053  1.00  0.00     0.002 C 
HETATM   38  C   UNL     1      53.043  18.709  33.752  1.00  0.00     0.005 C 
ENDBRANCH  35  37
ENDBRANCH  13  35
BRANCH  17  39
HETATM   39  C   UNL     1      52.676  28.681  32.538  1.00  0.00     0.016 C 
HETATM   40  C   UNL     1      53.662  29.839  32.675  1.00  0.00     0.012 C 
HETATM   41  C   UNL     1      52.026  28.368  33.884  1.00  0.00     0.012 C 
ENDBRANCH  17  39
BRANCH  18  42
HETATM   42  C   UNL     1      58.225  23.912  31.665  1.00  0.00     0.016 C 
HETATM   43  C   UNL     1      57.696  23.132  30.462  1.00  0.00     0.012 C 
HETATM   44  C   UNL     1      59.022  25.130  31.204  1.00  0.00     0.012 C 
ENDBRANCH  18  42
BRANCH  16  45
HETATM   45  C   UNL     1      54.399  25.705  35.839  1.00  0.00     0.010 C 
HETATM   46  C   UNL     1      53.070  24.970  35.668  1.00  0.00     0.012 C 
HETATM   47  C   UNL     1      54.156  27.171  36.195  1.00  0.00     0.012 C 
ENDBRANCH  16  45
TORSDOF 8
ENDMDL
MODEL 15
REMARK VINA RESULT:    -4.775      4.554      9.191
REMARK INTER + INTRA:          -6.427
REMARK INTER:                  -7.080
REMARK INTRA:                   0.652
REMARK UNBOUND:                 0.582
REMARK  8 active torsions:
REMARK  status: ('A' for Active; 'I' for Inactive)
REMARK    1  A    between atoms: C_13  and  C_15 
REMARK    2  A    between atoms: C_14  and  C_16 
REMARK    3  A    between atoms: C_15  and  C_22 
REMARK    4  A    between atoms: C_16  and  C_23 
REMARK    5  A    between atoms: C_17  and  C_21 
REMARK    6  A    between atoms: C_18  and  C_24 
REMARK    7  A    between atoms: C_19  and  C_27 
REMARK    8  A    between atoms: C_20  and  C_30 
ROOT
HETATM    1  O   UNL     1      54.362  17.961  28.829  1.00  0.00    -0.304 OA
HETATM    2  O   UNL     1      52.397  20.176  32.660  1.00  0.00    -0.304 OA
HETATM    3  O   UNL     1      55.503  22.316  31.172  1.00  0.00    -0.304 OA
HETATM    4  O   UNL     1      52.821  19.984  29.513  1.00  0.00    -0.270 OA
HETATM    5  O   UNL     1      55.361  17.760  30.900  1.00  0.00    -0.263 OA
HETATM    6  O   UNL     1      55.842  21.174  28.871  1.00  0.00    -0.270 OA
HETATM    7  O   UNL     1      50.366  21.004  33.359  1.00  0.00    -0.263 OA
HETATM    8  O   UNL     1      52.289  21.909  35.639  1.00  0.00    -0.270 OA
HETATM    9  O   UNL     1      55.947  22.922  33.353  1.00  0.00    -0.263 OA
HETATM   10  N   UNL     1      51.284  18.742  30.728  1.00  0.00    -0.340 N 
HETATM   11  N   UNL     1      57.219  19.577  29.839  1.00  0.00    -0.340 N 
HETATM   12  N   UNL     1      53.208  23.039  33.835  1.00  0.00    -0.340 N 
HETATM   13  C   UNL     1      50.559  19.956  31.172  1.00  0.00     0.190 C 
HETATM   14  C   UNL     1      56.653  18.519  28.979  1.00  0.00     0.190 C 
HETATM   15  C   UNL     1      53.075  17.608  29.374  1.00  0.00     0.227 C 
HETATM   16  C   UNL     1      53.685  23.069  32.437  1.00  0.00     0.190 C 
HETATM   17  C   UNL     1      56.825  21.775  30.963  1.00  0.00     0.227 C 
HETATM   18  C   UNL     1      53.104  20.513  33.857  1.00  0.00     0.227 C 
HETATM   19  C   UNL     1      52.390  18.884  29.877  1.00  0.00     0.250 C 
HETATM   20  C   UNL     1      55.407  18.031  29.707  1.00  0.00     0.283 C 
HETATM   21  C   UNL     1      56.603  20.836  29.784  1.00  0.00     0.250 C 
HETATM   22  C   UNL     1      51.060  20.410  32.543  1.00  0.00     0.283 C 
HETATM   23  C   UNL     1      52.812  21.878  34.520  1.00  0.00     0.250 C 
HETATM   24  C   UNL     1      55.177  22.777  32.415  1.00  0.00     0.283 C 
HETATM   25  C   UNL     1      50.821  17.466  31.284  1.00  0.00     0.153 C 
HETATM   26  C   UNL     1      58.277  19.228  30.790  1.00  0.00     0.153 C 
HETATM   27  C   UNL     1      53.144  24.310  34.556  1.00  0.00     0.153 C 
ENDROOT
BRANCH  15  28
HETATM   28  C   UNL     1      52.266  16.990  28.241  1.00  0.00     0.016 C 
HETATM   29  C   UNL     1      52.635  17.628  26.904  1.00  0.00     0.012 C 
HETATM   30  C   UNL     1      52.477  15.478  28.189  1.00  0.00     0.012 C 
ENDBRANCH  15  28
BRANCH  14  31
HETATM   31  C   UNL     1      57.561  17.338  28.666  1.00  0.00     0.014 C 
HETATM   32  C   UNL     1      56.714  16.101  28.361  1.00  0.00     0.012 C 
BRANCH  31  33
HETATM   33  C   UNL     1      58.508  17.626  27.487  1.00  0.00     0.002 C 
HETATM   34  C   UNL     1      57.894  18.517  26.416  1.00  0.00     0.005 C 
ENDBRANCH  31  33
ENDBRANCH  14  31
BRANCH  13  35
HETATM   35  C   UNL     1      49.040  19.797  31.155  1.00  0.00     0.014 C 
HETATM   36  C   UNL     1      48.563  19.518  29.727  1.00  0.00     0.012 C 
BRANCH  35  37
HETATM   37  C   UNL     1      48.557  18.675  32.092  1.00  0.00     0.002 C 
HETATM   38  C   UNL     1      47.071  18.372  31.964  1.00  0.00     0.005 C 
ENDBRANCH  35  37
ENDBRANCH  13  35
BRANCH  17  39
HETATM   39  C   UNL     1      57.793  22.884  30.592  1.00  0.00     0.016 C 
HETATM   40  C   UNL     1      58.357  22.658  29.192  1.00  0.00     0.012 C 
HETATM   41  C   UNL     1      58.922  22.975  31.617  1.00  0.00     0.012 C 
ENDBRANCH  17  39
BRANCH  18  42
HETATM   42  C   UNL     1      52.914  19.361  34.845  1.00  0.00     0.016 C 
HETATM   43  C   UNL     1      52.847  18.024  34.108  1.00  0.00     0.012 C 
HETATM   44  C   UNL     1      54.038  19.346  35.879  1.00  0.00     0.012 C 
ENDBRANCH  18  42
BRANCH  16  45
HETATM   45  C   UNL     1      53.395  24.364  31.682  1.00  0.00     0.010 C 
HETATM   46  C   UNL     1      52.709  24.070  30.348  1.00  0.00     0.012 C 
HETATM   47  C   UNL     1      54.680  25.160  31.458  1.00  0.00     0.012 C 
ENDBRANCH  16  45
TORSDOF 8
ENDMDL
MODEL 16
REMARK VINA RESULT:    -4.686      5.650      9.777
REMARK INTER + INTRA:          -6.295
REMARK INTER:                  -7.041
REMARK INTRA:                   0.745
REMARK UNBOUND:                 0.582
REMARK  8 active torsions:
REMARK  status: ('A' for Active; 'I' for Inactive)
REMARK    1  A    between atoms: C_13  and  C_15 
REMARK    2  A    between atoms: C_14  and  C_16 
REMARK    3  A    between atoms: C_15  and  C_22 
REMARK    4  A    between atoms: C_16  and  C_23 
REMARK    5  A    between atoms: C_17  and  C_21 
REMARK    6  A    between atoms: C_18  and  C_24 
REMARK    7  A    between atoms: C_19  and  C_27 
REMARK    8  A    between atoms: C_20  and  C_30 
ROOT
HETATM    1  O   UNL     1      43.808  11.559  31.703  1.00  0.00    -0.304 OA
HETATM    2  O   UNL     1      41.606  15.799  30.910  1.00  0.00    -0.304 OA
HETATM    3  O   UNL     1      42.946  15.543  34.728  1.00  0.00    -0.304 OA
HETATM    4  O   UNL     1      44.279  14.124  31.323  1.00  0.00    -0.270 OA
HETATM    5  O   UNL     1      41.622  11.855  32.383  1.00  0.00    -0.263 OA
HETATM    6  O   UNL     1      44.541  13.507  34.564  1.00  0.00    -0.270 OA
HETATM    7  O   UNL     1      41.762  17.625  29.518  1.00  0.00    -0.263 OA
HETATM    8  O   UNL     1      39.551  18.496  31.535  1.00  0.00    -0.270 OA
HETATM    9  O   UNL     1      41.081  16.766  35.316  1.00  0.00    -0.263 OA
HETATM   10  N   UNL     1      43.118  14.308  29.323  1.00  0.00    -0.340 N 
HETATM   11  N   UNL     1      42.768  12.057  34.938  1.00  0.00    -0.340 N 
HETATM   12  N   UNL     1      41.354  18.235  32.968  1.00  0.00    -0.340 N 
HETATM   13  C   UNL     1      43.322  15.775  29.268  1.00  0.00     0.190 C 
HETATM   14  C   UNL     1      43.310  11.090  33.964  1.00  0.00     0.190 C 
HETATM   15  C   UNL     1      43.505  12.061  30.386  1.00  0.00     0.227 C 
HETATM   16  C   UNL     1      42.512  17.459  33.460  1.00  0.00     0.190 C 
HETATM   17  C   UNL     1      42.622  14.457  35.623  1.00  0.00     0.227 C 
HETATM   18  C   UNL     1      40.471  16.276  31.638  1.00  0.00     0.227 C 
HETATM   19  C   UNL     1      43.667  13.585  30.393  1.00  0.00     0.250 C 
HETATM   20  C   UNL     1      42.784  11.543  32.608  1.00  0.00     0.283 C 
HETATM   21  C   UNL     1      43.411  13.301  35.022  1.00  0.00     0.250 C 
HETATM   22  C   UNL     1      42.120  16.507  29.866  1.00  0.00     0.283 C 
HETATM   23  C   UNL     1      40.424  17.771  32.024  1.00  0.00     0.250 C 
HETATM   24  C   UNL     1      42.065  16.579  34.616  1.00  0.00     0.283 C 
HETATM   25  C   UNL     1      42.280  13.726  28.270  1.00  0.00     0.153 C 
HETATM   26  C   UNL     1      41.527  11.732  35.646  1.00  0.00     0.153 C 
HETATM   27  C   UNL     1      41.167  19.583  33.504  1.00  0.00     0.153 C 
ENDROOT
BRANCH  15  28
HETATM   28  C   UNL     1      44.509  11.432  29.428  1.00  0.00     0.016 C 
HETATM   29  C   UNL     1      45.912  11.449  30.030  1.00  0.00     0.012 C 
HETATM   30  C   UNL     1      44.095  10.004  29.075  1.00  0.00     0.012 C 
ENDBRANCH  15  28
BRANCH  14  31
HETATM   31  C   UNL     1      42.955   9.626  34.189  1.00  0.00     0.014 C 
HETATM   32  C   UNL     1      43.223   8.827  32.912  1.00  0.00     0.012 C 
BRANCH  31  33
HETATM   33  C   UNL     1      43.736   9.010  35.364  1.00  0.00     0.002 C 
HETATM   34  C   UNL     1      43.756   7.487  35.350  1.00  0.00     0.005 C 
ENDBRANCH  31  33
ENDBRANCH  14  31
BRANCH  13  35
HETATM   35  C   UNL     1      43.652  16.290  27.868  1.00  0.00     0.014 C 
HETATM   36  C   UNL     1      44.928  15.618  27.355  1.00  0.00     0.012 C 
BRANCH  35  37
HETATM   37  C   UNL     1      42.504  16.056  26.870  1.00  0.00     0.002 C 
HETATM   38  C   UNL     1      42.469  17.066  25.733  1.00  0.00     0.005 C 
ENDBRANCH  35  37
ENDBRANCH  13  35
BRANCH  17  39
HETATM   39  C   UNL     1      43.111  14.769  37.026  1.00  0.00     0.016 C 
HETATM   40  C   UNL     1      44.127  13.726  37.485  1.00  0.00     0.012 C 
HETATM   41  C   UNL     1      41.937  14.840  38.000  1.00  0.00     0.012 C 
ENDBRANCH  17  39
BRANCH  18  42
HETATM   42  C   UNL     1      39.219  15.859  30.864  1.00  0.00     0.016 C 
HETATM   43  C   UNL     1      39.421  14.496  30.203  1.00  0.00     0.012 C 
HETATM   44  C   UNL     1      38.000  15.832  31.784  1.00  0.00     0.012 C 
ENDBRANCH  18  42
BRANCH  16  45
HETATM   45  C   UNL     1      43.722  18.294  33.875  1.00  0.00     0.010 C 
HETATM   46  C   UNL     1      44.957  17.896  33.068  1.00  0.00     0.012 C 
HETATM   47  C   UNL     1      43.993  18.147  35.372  1.00  0.00     0.012 C 
ENDBRANCH  16  45
TORSDOF 8
ENDMDL
MODEL 17
REMARK VINA RESULT:    -4.642      4.347      8.917
REMARK INTER + INTRA:          -6.231
REMARK INTER:                  -7.590
REMARK INTRA:                   1.359
REMARK UNBOUND:                 0.582
REMARK  8 active torsions:
REMARK  status: ('A' for Active; 'I' for Inactive)
REMARK    1  A    between atoms: C_13  and  C_15 
REMARK    2  A    between atoms: C_14  and  C_16 
REMARK    3  A    between atoms: C_15  and  C_22 
REMARK    4  A    between atoms: C_16  and  C_23 
REMARK    5  A    between atoms: C_17  and  C_21 
REMARK    6  A    between atoms: C_18  and  C_24 
REMARK    7  A    between atoms: C_19  and  C_27 
REMARK    8  A    between atoms: C_20  and  C_30 
ROOT
HETATM    1  O   UNL     1      55.808  16.707  34.277  1.00  0.00    -0.304 OA
HETATM    2  O   UNL     1      54.477  17.859  29.766  1.00  0.00    -0.304 OA
HETATM    3  O   UNL     1      51.814  19.270  32.478  1.00  0.00    -0.304 OA
HETATM    4  O   UNL     1      55.695  18.716  32.577  1.00  0.00    -0.270 OA
HETATM    5  O   UNL     1      54.200  15.445  33.204  1.00  0.00    -0.263 OA
HETATM    6  O   UNL     1      53.156  19.015  34.679  1.00  0.00    -0.270 OA
HETATM    7  O   UNL     1      55.290  18.979  27.927  1.00  0.00    -0.263 OA
HETATM    8  O   UNL     1      52.369  18.305  27.074  1.00  0.00    -0.270 OA
HETATM    9  O   UNL     1      50.191  18.851  30.893  1.00  0.00    -0.263 OA
HETATM   10  N   UNL     1      56.880  17.681  30.872  1.00  0.00    -0.340 N 
HETATM   11  N   UNL     1      52.432  16.821  34.896  1.00  0.00    -0.340 N 
HETATM   12  N   UNL     1      51.973  19.659  28.914  1.00  0.00    -0.340 N 
HETATM   13  C   UNL     1      56.646  18.810  29.940  1.00  0.00     0.190 C 
HETATM   14  C   UNL     1      53.753  16.398  35.400  1.00  0.00     0.190 C 
HETATM   15  C   UNL     1      56.692  16.614  33.142  1.00  0.00     0.227 C 
HETATM   16  C   UNL     1      52.243  20.047  30.315  1.00  0.00     0.190 C 
HETATM   17  C   UNL     1      51.172  18.449  33.477  1.00  0.00     0.227 C 
HETATM   18  C   UNL     1      53.236  17.483  29.162  1.00  0.00     0.227 C 
HETATM   19  C   UNL     1      56.372  17.761  32.177  1.00  0.00     0.250 C 
HETATM   20  C   UNL     1      54.585  16.107  34.159  1.00  0.00     0.283 C 
HETATM   21  C   UNL     1      52.324  18.137  34.423  1.00  0.00     0.250 C 
HETATM   22  C   UNL     1      55.425  18.537  29.061  1.00  0.00     0.283 C 
HETATM   23  C   UNL     1      52.505  18.523  28.283  1.00  0.00     0.250 C 
HETATM   24  C   UNL     1      51.269  19.319  31.227  1.00  0.00     0.283 C 
HETATM   25  C   UNL     1      57.576  16.513  30.321  1.00  0.00     0.153 C 
HETATM   26  C   UNL     1      51.364  15.824  34.780  1.00  0.00     0.153 C 
HETATM   27  C   UNL     1      51.088  20.522  28.131  1.00  0.00     0.153 C 
ENDROOT
BRANCH  15  28
HETATM   28  C   UNL     1      58.113  16.754  33.671  1.00  0.00     0.016 C 
HETATM   29  C   UNL     1      58.103  17.206  35.130  1.00  0.00     0.012 C 
HETATM   30  C   UNL     1      58.876  15.439  33.523  1.00  0.00     0.012 C 
ENDBRANCH  15  28
BRANCH  14  31
HETATM   31  C   UNL     1      53.772  15.192  36.329  1.00  0.00     0.014 C 
HETATM   32  C   UNL     1      54.406  13.998  35.610  1.00  0.00     0.012 C 
BRANCH  31  33
HETATM   33  C   UNL     1      54.529  15.474  37.639  1.00  0.00     0.002 C 
HETATM   34  C   UNL     1      55.990  15.050  37.602  1.00  0.00     0.005 C 
ENDBRANCH  31  33
ENDBRANCH  14  31
BRANCH  13  35
HETATM   35  C   UNL     1      57.872  19.168  29.101  1.00  0.00     0.014 C 
HETATM   36  C   UNL     1      57.713  20.577  28.525  1.00  0.00     0.012 C 
BRANCH  35  37
HETATM   37  C   UNL     1      59.181  19.079  29.905  1.00  0.00     0.002 C 
HETATM   38  C   UNL     1      60.414  18.860  29.040  1.00  0.00     0.005 C 
ENDBRANCH  35  37
ENDBRANCH  13  35
BRANCH  17  39
HETATM   39  C   UNL     1      50.090  19.240  34.190  1.00  0.00     0.016 C 
HETATM   40  C   UNL     1      50.495  20.706  34.323  1.00  0.00     0.012 C 
HETATM   41  C   UNL     1      49.801  18.636  35.563  1.00  0.00     0.012 C 
ENDBRANCH  17  39
BRANCH  18  42
HETATM   42  C   UNL     1      53.469  16.176  28.403  1.00  0.00     0.016 C 
HETATM   43  C   UNL     1      54.306  15.208  29.240  1.00  0.00     0.012 C 
HETATM   44  C   UNL     1      52.140  15.533  28.012  1.00  0.00     0.012 C 
ENDBRANCH  18  42
BRANCH  16  45
HETATM   45  C   UNL     1      52.196  21.548  30.590  1.00  0.00     0.010 C 
HETATM   46  C   UNL     1      52.886  22.326  29.470  1.00  0.00     0.012 C 
HETATM   47  C   UNL     1      52.838  21.871  31.939  1.00  0.00     0.012 C 
ENDBRANCH  16  45
TORSDOF 8
ENDMDL
MODEL 18
REMARK VINA RESULT:    -4.635      5.812     10.212
REMARK INTER + INTRA:          -6.221
REMARK INTER:                  -6.700
REMARK INTRA:                   0.479
REMARK UNBOUND:                 0.582
REMARK  8 active torsions:
REMARK  status: ('A' for Active; 'I' for Inactive)
REMARK    1  A    between atoms: C_13  and  C_15 
REMARK    2  A    between atoms: C_14  and  C_16 
REMARK    3  A    between atoms: C_15  and  C_22 
REMARK    4  A    between atoms: C_16  and  C_23 
REMARK    5  A    between atoms: C_17  and  C_21 
REMARK    6  A    between atoms: C_18  and  C_24 
REMARK    7  A    between atoms: C_19  and  C_27 
REMARK    8  A    between atoms: C_20  and  C_30 
ROOT
HETATM    1  O   UNL     1      52.468  21.614  29.599  1.00  0.00    -0.304 OA
HETATM    2  O   UNL     1      56.426  19.737  31.665  1.00  0.00    -0.304 OA
HETATM    3  O   UNL     1      55.397  23.251  33.408  1.00  0.00    -0.304 OA
HETATM    4  O   UNL     1      53.309  20.367  31.762  1.00  0.00    -0.270 OA
HETATM    5  O   UNL     1      54.552  22.404  29.000  1.00  0.00    -0.263 OA
HETATM    6  O   UNL     1      52.995  23.580  32.493  1.00  0.00    -0.270 OA
HETATM    7  O   UNL     1      57.104  17.817  32.738  1.00  0.00    -0.263 OA
HETATM    8  O   UNL     1      59.586  19.677  33.042  1.00  0.00    -0.270 OA
HETATM    9  O   UNL     1      57.659  23.616  33.680  1.00  0.00    -0.263 OA
HETATM   10  N   UNL     1      54.269  18.562  30.666  1.00  0.00    -0.340 N 
HETATM   11  N   UNL     1      53.835  24.606  30.588  1.00  0.00    -0.340 N 
HETATM   12  N   UNL     1      57.993  20.902  34.199  1.00  0.00    -0.340 N 
HETATM   13  C   UNL     1      54.818  18.009  31.927  1.00  0.00     0.190 C 
HETATM   14  C   UNL     1      52.819  23.946  29.744  1.00  0.00     0.190 C 
HETATM   15  C   UNL     1      52.890  20.249  29.408  1.00  0.00     0.227 C 
HETATM   16  C   UNL     1      56.639  21.485  34.307  1.00  0.00     0.190 C 
HETATM   17  C   UNL     1      55.199  24.482  32.680  1.00  0.00     0.227 C 
HETATM   18  C   UNL     1      57.695  20.394  31.741  1.00  0.00     0.227 C 
HETATM   19  C   UNL     1      53.508  19.740  30.715  1.00  0.00     0.250 C 
HETATM   20  C   UNL     1      53.408  22.586  29.393  1.00  0.00     0.283 C 
HETATM   21  C   UNL     1      53.902  24.205  31.931  1.00  0.00     0.250 C 
HETATM   22  C   UNL     1      56.262  18.468  32.131  1.00  0.00     0.283 C 
HETATM   23  C   UNL     1      58.503  20.274  33.052  1.00  0.00     0.250 C 
HETATM   24  C   UNL     1      56.667  22.908  33.773  1.00  0.00     0.283 C 
HETATM   25  C   UNL     1      54.634  17.860  29.431  1.00  0.00     0.153 C 
HETATM   26  C   UNL     1      54.795  25.517  29.961  1.00  0.00     0.153 C 
HETATM   27  C   UNL     1      58.861  20.986  35.374  1.00  0.00     0.153 C 
ENDROOT
BRANCH  15  28
HETATM   28  C   UNL     1      51.645  19.441  29.067  1.00  0.00     0.016 C 
HETATM   29  C   UNL     1      50.404  20.073  29.694  1.00  0.00     0.012 C 
HETATM   30  C   UNL     1      51.478  19.321  27.553  1.00  0.00     0.012 C 
ENDBRANCH  15  28
BRANCH  14  31
HETATM   31  C   UNL     1      52.414  24.676  28.471  1.00  0.00     0.014 C 
HETATM   32  C   UNL     1      51.808  23.682  27.477  1.00  0.00     0.012 C 
BRANCH  31  33
HETATM   33  C   UNL     1      51.418  25.816  28.743  1.00  0.00     0.002 C 
HETATM   34  C   UNL     1      50.467  26.084  27.584  1.00  0.00     0.005 C 
ENDBRANCH  31  33
ENDBRANCH  14  31
BRANCH  13  35
HETATM   35  C   UNL     1      54.694  16.489  32.027  1.00  0.00     0.014 C 
HETATM   36  C   UNL     1      54.869  16.050  33.483  1.00  0.00     0.012 C 
BRANCH  35  37
HETATM   37  C   UNL     1      53.348  15.973  31.487  1.00  0.00     0.002 C 
HETATM   38  C   UNL     1      52.163  16.312  32.379  1.00  0.00     0.005 C 
ENDBRANCH  35  37
ENDBRANCH  13  35
BRANCH  17  39
HETATM   39  C   UNL     1      55.026  25.640  33.645  1.00  0.00     0.016 C 
HETATM   40  C   UNL     1      56.306  26.468  33.724  1.00  0.00     0.012 C 
HETATM   41  C   UNL     1      54.629  25.131  35.029  1.00  0.00     0.012 C 
ENDBRANCH  17  39
BRANCH  18  42
HETATM   42  C   UNL     1      58.518  19.947  30.533  1.00  0.00     0.016 C 
HETATM   43  C   UNL     1      57.623  19.762  29.307  1.00  0.00     0.012 C 
HETATM   44  C   UNL     1      59.630  20.951  30.236  1.00  0.00     0.012 C 
ENDBRANCH  18  42
BRANCH  16  45
HETATM   45  C   UNL     1      56.035  21.464  35.709  1.00  0.00     0.010 C 
HETATM   46  C   UNL     1      54.519  21.284  35.643  1.00  0.00     0.012 C 
HETATM   47  C   UNL     1      56.388  22.742  36.470  1.00  0.00     0.012 C 
ENDBRANCH  16  45
TORSDOF 8
ENDMDL
MODEL 19
REMARK VINA RESULT:    -4.568      5.460      9.002
REMARK INTER + INTRA:          -6.122
REMARK INTER:                  -6.806
REMARK INTRA:                   0.684
REMARK UNBOUND:                 0.582
REMARK  8 active torsions:
REMARK  status: ('A' for Active; 'I' for Inactive)
REMARK    1  A    between atoms: C_13  and  C_15 
REMARK    2  A    between atoms: C_14  and  C_16 
REMARK    3  A    between atoms: C_15  and  C_22 
REMARK    4  A    between atoms: C_16  and  C_23 
REMARK    5  A    between atoms: C_17  and  C_21 
REMARK    6  A    between atoms: C_18  and  C_24 
REMARK    7  A    between atoms: C_19  and  C_27 
REMARK    8  A    between atoms: C_20  and  C_30 
ROOT
HETATM    1  O   UNL     1      53.111  21.895  31.128  1.00  0.00    -0.304 OA
HETATM    2  O   UNL     1      55.942  18.037  31.866  1.00  0.00    -0.304 OA
HETATM    3  O   UNL     1      53.933  19.038  35.243  1.00  0.00    -0.304 OA
HETATM    4  O   UNL     1      53.046  19.279  31.430  1.00  0.00    -0.270 OA
HETATM    5  O   UNL     1      55.163  22.164  32.149  1.00  0.00    -0.263 OA
HETATM    6  O   UNL     1      52.144  20.659  34.300  1.00  0.00    -0.270 OA
HETATM    7  O   UNL     1      56.268  15.914  31.039  1.00  0.00    -0.263 OA
HETATM    8  O   UNL     1      58.185  15.986  33.495  1.00  0.00    -0.270 OA
HETATM    9  O   UNL     1      55.808  18.347  36.395  1.00  0.00    -0.263 OA
HETATM   10  N   UNL     1      54.553  18.785  29.736  1.00  0.00    -0.340 N 
HETATM   11  N   UNL     1      53.624  22.437  34.481  1.00  0.00    -0.340 N 
HETATM   12  N   UNL     1      56.140  16.296  34.543  1.00  0.00    -0.340 N 
HETATM   13  C   UNL     1      54.551  17.341  30.072  1.00  0.00     0.190 C 
HETATM   14  C   UNL     1      53.141  23.012  33.210  1.00  0.00     0.190 C 
HETATM   15  C   UNL     1      53.701  21.130  30.059  1.00  0.00     0.227 C 
HETATM   16  C   UNL     1      54.824  16.963  34.637  1.00  0.00     0.190 C 
HETATM   17  C   UNL     1      53.954  20.357  35.829  1.00  0.00     0.227 C 
HETATM   18  C   UNL     1      56.984  17.966  32.844  1.00  0.00     0.227 C 
HETATM   19  C   UNL     1      53.737  19.655  30.476  1.00  0.00     0.250 C 
HETATM   20  C   UNL     1      53.950  22.320  32.121  1.00  0.00     0.283 C 
HETATM   21  C   UNL     1      53.141  21.166  34.826  1.00  0.00     0.250 C 
HETATM   22  C   UNL     1      55.714  17.005  31.006  1.00  0.00     0.283 C 
HETATM   23  C   UNL     1      57.154  16.652  33.639  1.00  0.00     0.250 C 
HETATM   24  C   UNL     1      54.946  18.175  35.547  1.00  0.00     0.283 C 
HETATM   25  C   UNL     1      55.481  19.210  28.683  1.00  0.00     0.153 C 
HETATM   26  C   UNL     1      54.670  23.141  35.227  1.00  0.00     0.153 C 
HETATM   27  C   UNL     1      56.402  15.185  35.458  1.00  0.00     0.153 C 
ENDROOT
BRANCH  15  28
HETATM   28  C   UNL     1      52.809  21.308  28.838  1.00  0.00     0.016 C 
HETATM   29  C   UNL     1      51.464  20.613  29.046  1.00  0.00     0.012 C 
HETATM   30  C   UNL     1      52.603  22.791  28.533  1.00  0.00     0.012 C 
ENDBRANCH  15  28
BRANCH  14  31
HETATM   31  C   UNL     1      53.260  24.523  33.058  1.00  0.00     0.014 C 
HETATM   32  C   UNL     1      53.037  24.914  31.596  1.00  0.00     0.012 C 
BRANCH  31  33
HETATM   33  C   UNL     1      52.269  25.281  33.959  1.00  0.00     0.002 C 
HETATM   34  C   UNL     1      51.866  26.643  33.410  1.00  0.00     0.005 C 
ENDBRANCH  31  33
ENDBRANCH  14  31
BRANCH  13  35
HETATM   35  C   UNL     1      54.540  16.433  28.843  1.00  0.00     0.014 C 
HETATM   36  C   UNL     1      54.335  14.978  29.275  1.00  0.00     0.012 C 
BRANCH  35  37
HETATM   37  C   UNL     1      53.455  16.831  27.827  1.00  0.00     0.002 C 
HETATM   38  C   UNL     1      52.220  15.943  27.876  1.00  0.00     0.005 C 
ENDBRANCH  35  37
ENDBRANCH  13  35
BRANCH  17  39
HETATM   39  C   UNL     1      53.271  20.340  37.185  1.00  0.00     0.016 C 
HETATM   40  C   UNL     1      51.982  19.525  37.126  1.00  0.00     0.012 C 
HETATM   41  C   UNL     1      52.985  21.763  37.660  1.00  0.00     0.012 C 
ENDBRANCH  17  39
BRANCH  18  42
HETATM   42  C   UNL     1      58.288  18.376  32.158  1.00  0.00     0.016 C 
HETATM   43  C   UNL     1      58.034  19.476  31.127  1.00  0.00     0.012 C 
HETATM   44  C   UNL     1      59.318  18.837  33.188  1.00  0.00     0.012 C 
ENDBRANCH  18  42
BRANCH  16  45
HETATM   45  C   UNL     1      53.678  16.069  35.106  1.00  0.00     0.010 C 
HETATM   46  C   UNL     1      52.424  16.314  34.267  1.00  0.00     0.012 C 
HETATM   47  C   UNL     1      53.383  16.301  36.587  1.00  0.00     0.012 C 
ENDBRANCH  16  45
TORSDOF 8
ENDMDL
MODEL 20
REMARK VINA RESULT:    -4.567      4.130      8.419
REMARK INTER + INTRA:          -6.121
REMARK INTER:                  -6.480
REMARK INTRA:                   0.359
REMARK UNBOUND:                 0.582
REMARK  8 active torsions:
REMARK  status: ('A' for Active; 'I' for Inactive)
REMARK    1  A    between atoms: C_13  and  C_15 
REMARK    2  A    between atoms: C_14  and  C_16 
REMARK    3  A    between atoms: C_15  and  C_22 
REMARK    4  A    between atoms: C_16  and  C_23 
REMARK    5  A    between atoms: C_17  and  C_21 
REMARK    6  A    between atoms: C_18  and  C_24 
REMARK    7  A    between atoms: C_19  and  C_27 
REMARK    8  A    between atoms: C_20  and  C_30 
ROOT
HETATM    1  O   UNL     1      43.542  12.954  28.828  1.00  0.00    -0.304 OA
HETATM    2  O   UNL     1      43.258  15.575  32.890  1.00  0.00    -0.304 OA
HETATM    3  O   UNL     1      43.499  11.614  33.723  1.00  0.00    -0.304 OA
HETATM    4  O   UNL     1      44.977  13.840  30.852  1.00  0.00    -0.270 OA
HETATM    5  O   UNL     1      41.515  13.162  29.912  1.00  0.00    -0.263 OA
HETATM    6  O   UNL     1      44.246  10.664  31.431  1.00  0.00    -0.270 OA
HETATM    7  O   UNL     1      44.376  17.276  33.963  1.00  0.00    -0.263 OA
HETATM    8  O   UNL     1      42.226  16.447  36.062  1.00  0.00    -0.270 OA
HETATM    9  O   UNL     1      42.116  12.052  35.518  1.00  0.00    -0.263 OA
HETATM   10  N   UNL     1      44.454  16.083  30.579  1.00  0.00    -0.340 N 
HETATM   11  N   UNL     1      42.035  10.530  30.739  1.00  0.00    -0.340 N 
HETATM   12  N   UNL     1      43.433  14.475  35.889  1.00  0.00    -0.340 N 
HETATM   13  C   UNL     1      45.179  16.466  31.814  1.00  0.00     0.190 C 
HETATM   14  C   UNL     1      42.401  10.958  29.374  1.00  0.00     0.190 C 
HETATM   15  C   UNL     1      43.751  14.379  28.867  1.00  0.00     0.227 C 
HETATM   16  C   UNL     1      44.087  13.428  35.076  1.00  0.00     0.190 C 
HETATM   17  C   UNL     1      42.609  10.621  33.170  1.00  0.00     0.227 C 
HETATM   18  C   UNL     1      42.235  15.434  33.880  1.00  0.00     0.227 C 
HETATM   19  C   UNL     1      44.444  14.736  30.187  1.00  0.00     0.250 C 
HETATM   20  C   UNL     1      42.401  12.480  29.415  1.00  0.00     0.283 C 
HETATM   21  C   UNL     1      43.045  10.578  31.711  1.00  0.00     0.250 C 
HETATM   22  C   UNL     1      44.218  16.535  33.001  1.00  0.00     0.283 C 
HETATM   23  C   UNL     1      42.642  15.512  35.369  1.00  0.00     0.250 C 
HETATM   24  C   UNL     1      43.100  12.297  34.836  1.00  0.00     0.283 C 
HETATM   25  C   UNL     1      43.729  17.155  29.889  1.00  0.00     0.153 C 
HETATM   26  C   UNL     1      40.634  10.223  31.034  1.00  0.00     0.153 C 
HETATM   27  C   UNL     1      43.625  14.426  37.338  1.00  0.00     0.153 C 
ENDROOT
BRANCH  15  28
HETATM   28  C   UNL     1      44.653  14.730  27.690  1.00  0.00     0.016 C 
HETATM   29  C   UNL     1      45.779  13.708  27.551  1.00  0.00     0.012 C 
HETATM   30  C   UNL     1      43.844  14.813  26.397  1.00  0.00     0.012 C 
ENDBRANCH  15  28
BRANCH  14  31
HETATM   31  C   UNL     1      41.503  10.473  28.245  1.00  0.00     0.014 C 
HETATM   32  C   UNL     1      41.553  11.467  27.082  1.00  0.00     0.012 C 
BRANCH  31  33
HETATM   33  C   UNL     1      41.892   9.070  27.749  1.00  0.00     0.002 C 
HETATM   34  C   UNL     1      40.766   8.345  27.025  1.00  0.00     0.005 C 
ENDBRANCH  31  33
ENDBRANCH  14  31
BRANCH  13  35
HETATM   35  C   UNL     1      45.985  17.756  31.670  1.00  0.00     0.014 C 
HETATM   36  C   UNL     1      46.936  17.909  32.860  1.00  0.00     0.012 C 
BRANCH  35  37
HETATM   37  C   UNL     1      46.785  17.805  30.356  1.00  0.00     0.002 C 
HETATM   38  C   UNL     1      48.221  17.323  30.499  1.00  0.00     0.005 C 
ENDBRANCH  35  37
ENDBRANCH  13  35
BRANCH  17  39
HETATM   39  C   UNL     1      42.841   9.278  33.840  1.00  0.00     0.016 C 
HETATM   40  C   UNL     1      43.178   8.211  32.801  1.00  0.00     0.012 C 
HETATM   41  C   UNL     1      41.616   8.866  34.654  1.00  0.00     0.012 C 
ENDBRANCH  17  39
BRANCH  18  42
HETATM   42  C   UNL     1      41.132  16.440  33.549  1.00  0.00     0.016 C 
HETATM   43  C   UNL     1      40.965  16.580  32.036  1.00  0.00     0.012 C 
HETATM   44  C   UNL     1      39.812  16.025  34.196  1.00  0.00     0.012 C 
ENDBRANCH  18  42
BRANCH  16  45
HETATM   45  C   UNL     1      45.386  12.874  35.660  1.00  0.00     0.010 C 
HETATM   46  C   UNL     1      46.528  13.002  34.652  1.00  0.00     0.012 C 
HETATM   47  C   UNL     1      45.210  11.417  36.086  1.00  0.00     0.012 C 
ENDBRANCH  16  45
TORSDOF 8
ENDMDL
