MODEL 1
REMARK VINA RESULT:    -6.618      0.000      0.000
REMARK INTER + INTRA:          -9.390
REMARK INTER:                  -9.713
REMARK INTRA:                   0.323
REMARK UNBOUND:                 0.323
REMARK  8 active torsions:
REMARK  status: ('A' for Active; 'I' for Inactive)
REMARK    1  A    between atoms: C_13  and  C_15 
REMARK    2  A    between atoms: C_14  and  C_16 
REMARK    3  A    between atoms: C_15  and  C_22 
REMARK    4  A    between atoms: C_16  and  C_23 
REMARK    5  A    between atoms: C_17  and  C_21 
REMARK    6  A    between atoms: C_18  and  C_24 
REMARK    7  A    between atoms: C_19  and  C_27 
REMARK    8  A    between atoms: C_20  and  C_30 
ROOT
HETATM    1  O   UNL     1       6.576  18.688  16.102  1.00  0.00    -0.304 OA
HETATM    2  O   UNL     1       4.591  21.225  12.486  1.00  0.00    -0.304 OA
HETATM    3  O   UNL     1       5.648  23.649  15.560  1.00  0.00    -0.304 OA
HETATM    4  O   UNL     1       7.165  20.328  14.126  1.00  0.00    -0.270 OA
HETATM    5  O   UNL     1       4.360  19.320  16.233  1.00  0.00    -0.263 OA
HETATM    6  O   UNL     1       7.175  22.073  16.938  1.00  0.00    -0.270 OA
HETATM    7  O   UNL     1       4.911  21.630  10.243  1.00  0.00    -0.263 OA
HETATM    8  O   UNL     1       2.596  23.589  10.963  1.00  0.00    -0.270 OA
HETATM    9  O   UNL     1       3.791  24.908  15.021  1.00  0.00    -0.263 OA
HETATM   10  N   UNL     1       6.156  19.086  12.446  1.00  0.00    -0.340 N 
HETATM   11  N   UNL     1       5.329  21.222  18.057  1.00  0.00    -0.340 N 
HETATM   12  N   UNL     1       4.283  24.406  12.328  1.00  0.00    -0.340 N 
HETATM   13  C   UNL     1       6.416  20.133  11.430  1.00  0.00     0.190 C 
HETATM   14  C   UNL     1       5.903  19.862  18.038  1.00  0.00     0.190 C 
HETATM   15  C   UNL     1       6.385  18.159  14.774  1.00  0.00     0.227 C 
HETATM   16  C   UNL     1       5.375  24.191  13.302  1.00  0.00     0.190 C 
HETATM   17  C   UNL     1       5.223  23.449  16.925  1.00  0.00     0.227 C 
HETATM   18  C   UNL     1       3.425  22.045  12.610  1.00  0.00     0.227 C 
HETATM   19  C   UNL     1       6.601  19.290  13.761  1.00  0.00     0.250 C 
HETATM   20  C   UNL     1       5.491  19.268  16.698  1.00  0.00     0.283 C 
HETATM   21  C   UNL     1       6.009  22.207  17.326  1.00  0.00     0.250 C 
HETATM   22  C   UNL     1       5.203  21.051  11.281  1.00  0.00     0.283 C 
HETATM   23  C   UNL     1       3.406  23.406  11.879  1.00  0.00     0.250 C 
HETATM   24  C   UNL     1       4.815  24.317  14.710  1.00  0.00     0.283 C 
HETATM   25  C   UNL     1       5.373  17.927  12.005  1.00  0.00     0.153 C 
HETATM   26  C   UNL     1       4.031  21.435  18.700  1.00  0.00     0.153 C 
HETATM   27  C   UNL     1       4.108  25.757  11.795  1.00  0.00     0.153 C 
ENDROOT
BRANCH  15  28
HETATM   28  C   UNL     1       7.430  17.070  14.574  1.00  0.00     0.016 C 
HETATM   29  C   UNL     1       8.832  17.608  14.854  1.00  0.00     0.012 C 
HETATM   30  C   UNL     1       7.132  15.866  15.467  1.00  0.00     0.012 C 
ENDBRANCH  15  28
BRANCH  14  31
HETATM   31  C   UNL     1       5.481  18.930  19.166  1.00  0.00     0.014 C 
HETATM   32  C   UNL     1       5.518  17.480  18.679  1.00  0.00     0.012 C 
BRANCH  31  33
HETATM   33  C   UNL     1       6.367  19.085  20.415  1.00  0.00     0.002 C 
HETATM   34  C   UNL     1       6.304  17.891  21.358  1.00  0.00     0.005 C 
ENDBRANCH  31  33
ENDBRANCH  14  31
BRANCH  13  35
HETATM   35  C   UNL     1       6.863  19.571  10.081  1.00  0.00     0.014 C 
HETATM   36  C   UNL     1       7.599  20.654   9.287  1.00  0.00     0.012 C 
BRANCH  35  37
HETATM   37  C   UNL     1       7.764  18.332  10.230  1.00  0.00     0.002 C 
HETATM   38  C   UNL     1       9.170  18.656  10.711  1.00  0.00     0.005 C 
ENDBRANCH  35  37
ENDBRANCH  13  35
BRANCH  17  39
HETATM   39  C   UNL     1       5.623  24.638  17.779  1.00  0.00     0.016 C 
HETATM   40  C   UNL     1       6.714  24.243  18.771  1.00  0.00     0.012 C 
HETATM   41  C   UNL     1       4.409  25.204  18.513  1.00  0.00     0.012 C 
ENDBRANCH  17  39
BRANCH  18  42
HETATM   42  C   UNL     1       2.217  21.189  12.229  1.00  0.00     0.016 C 
HETATM   43  C   UNL     1       2.397  19.752  12.719  1.00  0.00     0.012 C 
HETATM   44  C   UNL     1       0.930  21.788  12.793  1.00  0.00     0.012 C 
ENDBRANCH  18  42
BRANCH  16  45
HETATM   45  C   UNL     1       6.581  25.113  13.134  1.00  0.00     0.010 C 
HETATM   46  C   UNL     1       7.845  24.302  12.851  1.00  0.00     0.012 C 
HETATM   47  C   UNL     1       6.773  25.985  14.374  1.00  0.00     0.012 C 
ENDBRANCH  16  45
TORSDOF 8
ENDMDL
MODEL 2
REMARK VINA RESULT:    -6.105      1.804      7.409
REMARK INTER + INTRA:          -8.638
REMARK INTER:                  -9.258
REMARK INTRA:                   0.620
REMARK UNBOUND:                 0.323
REMARK  8 active torsions:
REMARK  status: ('A' for Active; 'I' for Inactive)
REMARK    1  A    between atoms: C_13  and  C_15 
REMARK    2  A    between atoms: C_14  and  C_16 
REMARK    3  A    between atoms: C_15  and  C_22 
REMARK    4  A    between atoms: C_16  and  C_23 
REMARK    5  A    between atoms: C_17  and  C_21 
REMARK    6  A    between atoms: C_18  and  C_24 
REMARK    7  A    between atoms: C_19  and  C_27 
REMARK    8  A    between atoms: C_20  and  C_30 
ROOT
HETATM    1  O   UNL     1       5.770  23.950  16.638  1.00  0.00    -0.304 OA
HETATM    2  O   UNL     1       4.220  19.387  16.167  1.00  0.00    -0.304 OA
HETATM    3  O   UNL     1       6.894  20.326  13.267  1.00  0.00    -0.304 OA
HETATM    4  O   UNL     1       6.497  21.445  17.005  1.00  0.00    -0.270 OA
HETATM    5  O   UNL     1       4.122  23.458  15.100  1.00  0.00    -0.263 OA
HETATM    6  O   UNL     1       7.907  22.517  14.209  1.00  0.00    -0.270 OA
HETATM    7  O   UNL     1       4.132  17.429  17.373  1.00  0.00    -0.263 OA
HETATM    8  O   UNL     1       3.092  16.547  14.571  1.00  0.00    -0.270 OA
HETATM    9  O   UNL     1       5.662  18.954  11.882  1.00  0.00    -0.263 OA
HETATM   10  N   UNL     1       4.692  20.842  18.332  1.00  0.00    -0.340 N 
HETATM   11  N   UNL     1       6.201  23.754  13.236  1.00  0.00    -0.340 N 
HETATM   12  N   UNL     1       5.238  17.235  14.029  1.00  0.00    -0.340 N 
HETATM   13  C   UNL     1       5.113  19.421  18.367  1.00  0.00     0.190 C 
HETATM   14  C   UNL     1       6.133  24.646  14.410  1.00  0.00     0.190 C 
HETATM   15  C   UNL     1       5.065  23.242  17.677  1.00  0.00     0.227 C 
HETATM   16  C   UNL     1       6.339  18.218  14.112  1.00  0.00     0.190 C 
HETATM   17  C   UNL     1       6.765  21.468  12.393  1.00  0.00     0.227 C 
HETATM   18  C   UNL     1       3.569  18.863  15.005  1.00  0.00     0.227 C 
HETATM   19  C   UNL     1       5.482  21.767  17.634  1.00  0.00     0.250 C 
HETATM   20  C   UNL     1       5.203  23.950  15.394  1.00  0.00     0.283 C 
HETATM   21  C   UNL     1       7.033  22.629  13.342  1.00  0.00     0.250 C 
HETATM   22  C   UNL     1       4.395  18.621  17.279  1.00  0.00     0.283 C 
HETATM   23  C   UNL     1       3.944  17.441  14.534  1.00  0.00     0.250 C 
HETATM   24  C   UNL     1       6.239  19.176  12.936  1.00  0.00     0.283 C 
HETATM   25  C   UNL     1       3.416  21.162  18.982  1.00  0.00     0.153 C 
HETATM   26  C   UNL     1       5.306  24.001  12.104  1.00  0.00     0.153 C 
HETATM   27  C   UNL     1       5.519  15.957  13.374  1.00  0.00     0.153 C 
ENDROOT
BRANCH  15  28
HETATM   28  C   UNL     1       5.479  23.867  19.002  1.00  0.00     0.016 C 
HETATM   29  C   UNL     1       6.687  24.782  18.814  1.00  0.00     0.012 C 
HETATM   30  C   UNL     1       4.315  24.638  19.622  1.00  0.00     0.012 C 
ENDBRANCH  15  28
BRANCH  14  31
HETATM   31  C   UNL     1       5.645  26.066  14.157  1.00  0.00     0.014 C 
HETATM   32  C   UNL     1       5.197  26.701  15.476  1.00  0.00     0.012 C 
BRANCH  31  33
HETATM   33  C   UNL     1       6.720  26.945  13.494  1.00  0.00     0.002 C 
HETATM   34  C   UNL     1       7.080  28.183  14.303  1.00  0.00     0.005 C 
ENDBRANCH  31  33
ENDBRANCH  14  31
BRANCH  13  35
HETATM   35  C   UNL     1       4.947  18.773  19.741  1.00  0.00     0.014 C 
HETATM   36  C   UNL     1       5.702  17.442  19.781  1.00  0.00     0.012 C 
BRANCH  35  37
HETATM   37  C   UNL     1       5.435  19.683  20.882  1.00  0.00     0.002 C 
HETATM   38  C   UNL     1       6.924  19.991  20.821  1.00  0.00     0.005 C 
ENDBRANCH  35  37
ENDBRANCH  13  35
BRANCH  17  39
HETATM   39  C   UNL     1       7.816  21.414  11.299  1.00  0.00     0.016 C 
HETATM   40  C   UNL     1       7.211  20.888  10.000  1.00  0.00     0.012 C 
HETATM   41  C   UNL     1       8.996  20.547  11.732  1.00  0.00     0.012 C 
ENDBRANCH  17  39
BRANCH  18  42
HETATM   42  C   UNL     1       2.062  19.002  15.220  1.00  0.00     0.016 C 
HETATM   43  C   UNL     1       1.741  20.287  15.982  1.00  0.00     0.012 C 
HETATM   44  C   UNL     1       1.321  18.974  13.884  1.00  0.00     0.012 C 
ENDBRANCH  18  42
BRANCH  16  45
HETATM   45  C   UNL     1       7.741  17.615  14.177  1.00  0.00     0.010 C 
HETATM   46  C   UNL     1       8.584  18.320  15.239  1.00  0.00     0.012 C 
HETATM   47  C   UNL     1       8.427  17.692  12.814  1.00  0.00     0.012 C 
ENDBRANCH  16  45
TORSDOF 8
ENDMDL
MODEL 3
REMARK VINA RESULT:    -6.101     20.002     24.497
REMARK INTER + INTRA:          -8.632
REMARK INTER:                  -8.970
REMARK INTRA:                   0.338
REMARK UNBOUND:                 0.323
REMARK  8 active torsions:
REMARK  status: ('A' for Active; 'I' for Inactive)
REMARK    1  A    between atoms: C_13  and  C_15 
REMARK    2  A    between atoms: C_14  and  C_16 
REMARK    3  A    between atoms: C_15  and  C_22 
REMARK    4  A    between atoms: C_16  and  C_23 
REMARK    5  A    between atoms: C_17  and  C_21 
REMARK    6  A    between atoms: C_18  and  C_24 
REMARK    7  A    between atoms: C_19  and  C_27 
REMARK    8  A    between atoms: C_20  and  C_30 
ROOT
HETATM    1  O   UNL     1       8.394  41.328  29.701  1.00  0.00    -0.304 OA
HETATM    2  O   UNL     1       6.438  36.910  29.377  1.00  0.00    -0.304 OA
HETATM    3  O   UNL     1       4.733  39.043  32.374  1.00  0.00    -0.304 OA
HETATM    4  O   UNL     1       6.238  40.048  28.894  1.00  0.00    -0.270 OA
HETATM    5  O   UNL     1       9.087  39.665  31.143  1.00  0.00    -0.263 OA
HETATM    6  O   UNL     1       5.564  41.435  31.822  1.00  0.00    -0.270 OA
HETATM    7  O   UNL     1       5.351  35.579  27.846  1.00  0.00    -0.263 OA
HETATM    8  O   UNL     1       5.179  33.888  30.458  1.00  0.00    -0.270 OA
HETATM    9  O   UNL     1       4.554  37.042  33.507  1.00  0.00    -0.263 OA
HETATM   10  N   UNL     1       7.330  38.552  27.497  1.00  0.00    -0.340 N 
HETATM   11  N   UNL     1       7.520  41.056  33.012  1.00  0.00    -0.340 N 
HETATM   12  N   UNL     1       3.990  35.774  31.094  1.00  0.00    -0.340 N 
HETATM   13  C   UNL     1       6.080  37.811  27.209  1.00  0.00     0.190 C 
HETATM   14  C   UNL     1       8.311  41.803  32.014  1.00  0.00     0.190 C 
HETATM   15  C   UNL     1       8.572  40.465  28.561  1.00  0.00     0.227 C 
HETATM   16  C   UNL     1       3.844  37.242  31.176  1.00  0.00     0.190 C 
HETATM   17  C   UNL     1       5.479  39.676  33.435  1.00  0.00     0.227 C 
HETATM   18  C   UNL     1       6.423  35.946  30.434  1.00  0.00     0.227 C 
HETATM   19  C   UNL     1       7.277  39.673  28.340  1.00  0.00     0.250 C 
HETATM   20  C   UNL     1       8.655  40.790  30.930  1.00  0.00     0.283 C 
HETATM   21  C   UNL     1       6.173  40.817  32.703  1.00  0.00     0.250 C 
HETATM   22  C   UNL     1       5.939  36.611  28.145  1.00  0.00     0.283 C 
HETATM   23  C   UNL     1       5.142  35.109  30.644  1.00  0.00     0.250 C 
HETATM   24  C   UNL     1       4.408  37.724  32.503  1.00  0.00     0.283 C 
HETATM   25  C   UNL     1       8.563  38.001  26.924  1.00  0.00     0.153 C 
HETATM   26  C   UNL     1       8.202  40.490  34.178  1.00  0.00     0.153 C 
HETATM   27  C   UNL     1       2.851  34.956  31.512  1.00  0.00     0.153 C 
ENDROOT
BRANCH  15  28
HETATM   28  C   UNL     1       8.848  41.362  27.361  1.00  0.00     0.016 C 
HETATM   29  C   UNL     1       7.703  42.351  27.152  1.00  0.00     0.012 C 
HETATM   30  C   UNL     1      10.171  42.105  27.538  1.00  0.00     0.012 C 
ENDBRANCH  15  28
BRANCH  14  31
HETATM   31  C   UNL     1       9.584  42.472  32.516  1.00  0.00     0.014 C 
HETATM   32  C   UNL     1      10.523  42.744  31.340  1.00  0.00     0.012 C 
BRANCH  31  33
HETATM   33  C   UNL     1       9.297  43.782  33.271  1.00  0.00     0.002 C 
HETATM   34  C   UNL     1       9.777  43.771  34.716  1.00  0.00     0.005 C 
ENDBRANCH  31  33
ENDBRANCH  14  31
BRANCH  13  35
HETATM   35  C   UNL     1       5.942  37.398  25.744  1.00  0.00     0.014 C 
HETATM   36  C   UNL     1       4.477  37.086  25.429  1.00  0.00     0.012 C 
BRANCH  35  37
HETATM   37  C   UNL     1       6.463  38.478  24.779  1.00  0.00     0.002 C 
HETATM   38  C   UNL     1       5.548  39.688  24.667  1.00  0.00     0.005 C 
ENDBRANCH  35  37
ENDBRANCH  13  35
BRANCH  17  39
HETATM   39  C   UNL     1       4.533  40.213  34.494  1.00  0.00     0.016 C 
HETATM   40  C   UNL     1       4.649  41.732  34.597  1.00  0.00     0.012 C 
HETATM   41  C   UNL     1       4.814  39.561  35.846  1.00  0.00     0.012 C 
ENDBRANCH  17  39
BRANCH  18  42
HETATM   42  C   UNL     1       7.652  35.052  30.259  1.00  0.00     0.016 C 
HETATM   43  C   UNL     1       8.907  35.896  30.036  1.00  0.00     0.012 C 
HETATM   44  C   UNL     1       7.832  34.138  31.470  1.00  0.00     0.012 C 
ENDBRANCH  18  42
BRANCH  16  45
HETATM   45  C   UNL     1       2.419  37.762  30.994  1.00  0.00     0.010 C 
HETATM   46  C   UNL     1       2.356  38.779  29.855  1.00  0.00     0.012 C 
HETATM   47  C   UNL     1       1.899  38.380  32.291  1.00  0.00     0.012 C 
ENDBRANCH  16  45
TORSDOF 8
ENDMDL
MODEL 4
REMARK VINA RESULT:    -6.007     18.855     24.046
REMARK INTER + INTRA:          -8.494
REMARK INTER:                  -9.159
REMARK INTRA:                   0.666
REMARK UNBOUND:                 0.323
REMARK  8 active torsions:
REMARK  status: ('A' for Active; 'I' for Inactive)
REMARK    1  A    between atoms: C_13  and  C_15 
REMARK    2  A    between atoms: C_14  and  C_16 
REMARK    3  A    between atoms: C_15  and  C_22 
REMARK    4  A    between atoms: C_16  and  C_23 
REMARK    5  A    between atoms: C_17  and  C_21 
REMARK    6  A    between atoms: C_18  and  C_24 
REMARK    7  A    between atoms: C_19  and  C_27 
REMARK    8  A    between atoms: C_20  and  C_30 
ROOT
HETATM    1  O   UNL     1       8.683  40.865  25.920  1.00  0.00    -0.304 OA
HETATM    2  O   UNL     1       6.382  40.132  30.118  1.00  0.00    -0.304 OA
HETATM    3  O   UNL     1       6.428  36.757  27.871  1.00  0.00    -0.304 OA
HETATM    4  O   UNL     1       8.951  39.732  28.284  1.00  0.00    -0.270 OA
HETATM    5  O   UNL     1       6.377  40.914  25.981  1.00  0.00    -0.263 OA
HETATM    6  O   UNL     1       8.214  37.362  26.094  1.00  0.00    -0.270 OA
HETATM    7  O   UNL     1       6.769  40.282  32.382  1.00  0.00    -0.263 OA
HETATM    8  O   UNL     1       3.937  38.985  32.261  1.00  0.00    -0.270 OA
HETATM    9  O   UNL     1       4.344  36.310  28.754  1.00  0.00    -0.263 OA
HETATM   10  N   UNL     1       8.490  41.630  29.536  1.00  0.00    -0.340 N 
HETATM   11  N   UNL     1       6.597  38.385  24.781  1.00  0.00    -0.340 N 
HETATM   12  N   UNL     1       5.194  37.361  31.186  1.00  0.00    -0.340 N 
HETATM   13  C   UNL     1       8.529  40.875  30.810  1.00  0.00     0.190 C 
HETATM   14  C   UNL     1       7.535  39.462  24.406  1.00  0.00     0.190 C 
HETATM   15  C   UNL     1       8.769  41.770  27.039  1.00  0.00     0.227 C 
HETATM   16  C   UNL     1       6.211  36.963  30.190  1.00  0.00     0.190 C 
HETATM   17  C   UNL     1       5.960  36.693  26.507  1.00  0.00     0.227 C 
HETATM   18  C   UNL     1       5.025  39.697  30.238  1.00  0.00     0.227 C 
HETATM   19  C   UNL     1       8.741  40.950  28.335  1.00  0.00     0.250 C 
HETATM   20  C   UNL     1       7.430  40.496  25.518  1.00  0.00     0.283 C 
HETATM   21  C   UNL     1       7.029  37.482  25.763  1.00  0.00     0.250 C 
HETATM   22  C   UNL     1       7.122  40.439  31.220  1.00  0.00     0.283 C 
HETATM   23  C   UNL     1       4.682  38.660  31.330  1.00  0.00     0.250 C 
HETATM   24  C   UNL     1       5.517  36.629  28.879  1.00  0.00     0.283 C 
HETATM   25  C   UNL     1       8.113  43.045  29.626  1.00  0.00     0.153 C 
HETATM   26  C   UNL     1       5.241  38.402  24.229  1.00  0.00     0.153 C 
HETATM   27  C   UNL     1       4.687  36.325  32.087  1.00  0.00     0.153 C 
ENDROOT
BRANCH  15  28
HETATM   28  C   UNL     1      10.095  42.508  26.914  1.00  0.00     0.016 C 
HETATM   29  C   UNL     1      10.913  41.954  25.750  1.00  0.00     0.012 C 
HETATM   30  C   UNL     1       9.862  44.008  26.739  1.00  0.00     0.012 C 
ENDBRANCH  15  28
BRANCH  14  31
HETATM   31  C   UNL     1       7.299  40.130  23.058  1.00  0.00     0.014 C 
HETATM   32  C   UNL     1       7.974  41.503  23.037  1.00  0.00     0.012 C 
BRANCH  31  33
HETATM   33  C   UNL     1       7.813  39.277  21.884  1.00  0.00     0.002 C 
HETATM   34  C   UNL     1       6.739  38.943  20.858  1.00  0.00     0.005 C 
ENDBRANCH  31  33
ENDBRANCH  14  31
BRANCH  13  35
HETATM   35  C   UNL     1       9.234  41.625  31.939  1.00  0.00     0.014 C 
HETATM   36  C   UNL     1       9.863  40.625  32.913  1.00  0.00     0.012 C 
BRANCH  35  37
HETATM   37  C   UNL     1      10.313  42.592  31.418  1.00  0.00     0.002 C 
HETATM   38  C   UNL     1      11.520  42.709  32.337  1.00  0.00     0.005 C 
ENDBRANCH  35  37
ENDBRANCH  13  35
BRANCH  17  39
HETATM   39  C   UNL     1       5.926  35.252  26.031  1.00  0.00     0.016 C 
HETATM   40  C   UNL     1       4.512  34.687  26.130  1.00  0.00     0.012 C 
HETATM   41  C   UNL     1       6.903  34.397  26.837  1.00  0.00     0.012 C 
ENDBRANCH  17  39
BRANCH  18  42
HETATM   42  C   UNL     1       4.150  40.946  30.358  1.00  0.00     0.016 C 
HETATM   43  C   UNL     1       4.708  42.081  29.500  1.00  0.00     0.012 C 
HETATM   44  C   UNL     1       2.708  40.635  29.961  1.00  0.00     0.012 C 
ENDBRANCH  18  42
BRANCH  16  45
HETATM   45  C   UNL     1       7.114  35.806  30.614  1.00  0.00     0.010 C 
HETATM   46  C   UNL     1       8.517  35.973  30.029  1.00  0.00     0.012 C 
HETATM   47  C   UNL     1       6.514  34.467  30.188  1.00  0.00     0.012 C 
ENDBRANCH  16  45
TORSDOF 8
ENDMDL
MODEL 5
REMARK VINA RESULT:    -5.656      2.496      8.539
REMARK INTER + INTRA:          -7.979
REMARK INTER:                  -9.030
REMARK INTRA:                   1.051
REMARK UNBOUND:                 0.323
REMARK  8 active torsions:
REMARK  status: ('A' for Active; 'I' for Inactive)
REMARK    1  A    between atoms: C_13  and  C_15 
REMARK    2  A    between atoms: C_14  and  C_16 
REMARK    3  A    between atoms: C_15  and  C_22 
REMARK    4  A    between atoms: C_16  and  C_23 
REMARK    5  A    between atoms: C_17  and  C_21 
REMARK    6  A    between atoms: C_18  and  C_24 
REMARK    7  A    between atoms: C_19  and  C_27 
REMARK    8  A    between atoms: C_20  and  C_30 
ROOT
HETATM    1  O   UNL     1       2.936  25.811  11.887  1.00  0.00    -0.304 OA
HETATM    2  O   UNL     1       5.007  23.834  15.793  1.00  0.00    -0.304 OA
HETATM    3  O   UNL     1       5.609  21.540  12.504  1.00  0.00    -0.304 OA
HETATM    4  O   UNL     1       5.269  25.410  13.042  1.00  0.00    -0.270 OA
HETATM    5  O   UNL     1       1.862  24.102  13.007  1.00  0.00    -0.263 OA
HETATM    6  O   UNL     1       4.935  23.183  10.617  1.00  0.00    -0.270 OA
HETATM    7  O   UNL     1       6.561  24.355  17.409  1.00  0.00    -0.263 OA
HETATM    8  O   UNL     1       5.933  21.361  18.009  1.00  0.00    -0.270 OA
HETATM    9  O   UNL     1       5.469  19.723  13.919  1.00  0.00    -0.263 OA
HETATM   10  N   UNL     1       4.720  26.371  15.080  1.00  0.00    -0.340 N 
HETATM   11  N   UNL     1       2.712  22.552  10.826  1.00  0.00    -0.340 N 
HETATM   12  N   UNL     1       6.807  21.190  15.868  1.00  0.00    -0.340 N 
HETATM   13  C   UNL     1       6.016  25.981  15.684  1.00  0.00     0.190 C 
HETATM   14  C   UNL     1       2.262  23.940  10.610  1.00  0.00     0.190 C 
HETATM   15  C   UNL     1       3.154  26.529  13.117  1.00  0.00     0.227 C 
HETATM   16  C   UNL     1       6.881  21.643  14.463  1.00  0.00     0.190 C 
HETATM   17  C   UNL     1       4.547  21.065  11.650  1.00  0.00     0.227 C 
HETATM   18  C   UNL     1       4.709  22.531  16.302  1.00  0.00     0.227 C 
HETATM   19  C   UNL     1       4.471  26.048  13.738  1.00  0.00     0.250 C 
HETATM   20  C   UNL     1       2.309  24.599  11.982  1.00  0.00     0.283 C 
HETATM   21  C   UNL     1       4.093  22.346  10.960  1.00  0.00     0.250 C 
HETATM   22  C   UNL     1       5.881  24.657  16.436  1.00  0.00     0.283 C 
HETATM   23  C   UNL     1       5.877  21.658  16.811  1.00  0.00     0.250 C 
HETATM   24  C   UNL     1       5.909  20.825  13.627  1.00  0.00     0.283 C 
HETATM   25  C   UNL     1       3.750  27.014  15.974  1.00  0.00     0.153 C 
HETATM   26  C   UNL     1       1.709  21.504  11.032  1.00  0.00     0.153 C 
HETATM   27  C   UNL     1       7.774  20.184  16.307  1.00  0.00     0.153 C 
ENDROOT
BRANCH  15  28
HETATM   28  C   UNL     1       3.252  28.006  12.759  1.00  0.00     0.016 C 
HETATM   29  C   UNL     1       4.161  28.209  11.549  1.00  0.00     0.012 C 
HETATM   30  C   UNL     1       1.865  28.589  12.490  1.00  0.00     0.012 C 
ENDBRANCH  15  28
BRANCH  14  31
HETATM   31  C   UNL     1       0.879  24.120  10.000  1.00  0.00     0.014 C 
HETATM   32  C   UNL     1       0.181  25.319  10.646  1.00  0.00     0.012 C 
BRANCH  31  33
HETATM   33  C   UNL     1       0.933  24.308   8.473  1.00  0.00     0.002 C 
HETATM   34  C   UNL     1       1.789  25.488   8.034  1.00  0.00     0.005 C 
ENDBRANCH  31  33
ENDBRANCH  14  31
BRANCH  13  35
HETATM   35  C   UNL     1       6.625  27.068  16.569  1.00  0.00     0.014 C 
HETATM   36  C   UNL     1       6.745  28.374  15.778  1.00  0.00     0.012 C 
BRANCH  35  37
HETATM   37  C   UNL     1       5.806  27.310  17.850  1.00  0.00     0.002 C 
HETATM   38  C   UNL     1       6.663  27.595  19.075  1.00  0.00     0.005 C 
ENDBRANCH  35  37
ENDBRANCH  13  35
BRANCH  17  39
HETATM   39  C   UNL     1       5.090  20.073  10.637  1.00  0.00     0.016 C 
HETATM   40  C   UNL     1       4.770  18.643  11.062  1.00  0.00     0.012 C 
HETATM   41  C   UNL     1       6.597  20.256  10.463  1.00  0.00     0.012 C 
ENDBRANCH  17  39
BRANCH  18  42
HETATM   42  C   UNL     1       3.624  22.690  17.368  1.00  0.00     0.016 C 
HETATM   43  C   UNL     1       2.659  23.815  16.994  1.00  0.00     0.012 C 
HETATM   44  C   UNL     1       2.865  21.379  17.567  1.00  0.00     0.012 C 
ENDBRANCH  18  42
BRANCH  16  45
HETATM   45  C   UNL     1       8.275  21.597  13.841  1.00  0.00     0.010 C 
HETATM   46  C   UNL     1       8.493  22.792  12.914  1.00  0.00     0.012 C 
HETATM   47  C   UNL     1       8.485  20.287  13.082  1.00  0.00     0.012 C 
ENDBRANCH  16  45
TORSDOF 8
ENDMDL
MODEL 6
REMARK VINA RESULT:    -5.632      2.372      6.247
REMARK INTER + INTRA:          -7.943
REMARK INTER:                  -8.833
REMARK INTRA:                   0.890
REMARK UNBOUND:                 0.323
REMARK  8 active torsions:
REMARK  status: ('A' for Active; 'I' for Inactive)
REMARK    1  A    between atoms: C_13  and  C_15 
REMARK    2  A    between atoms: C_14  and  C_16 
REMARK    3  A    between atoms: C_15  and  C_22 
REMARK    4  A    between atoms: C_16  and  C_23 
REMARK    5  A    between atoms: C_17  and  C_21 
REMARK    6  A    between atoms: C_18  and  C_24 
REMARK    7  A    between atoms: C_19  and  C_27 
REMARK    8  A    between atoms: C_20  and  C_30 
ROOT
HETATM    1  O   UNL     1       5.351  23.120  14.394  1.00  0.00    -0.304 OA
HETATM    2  O   UNL     1       6.269  18.687  12.676  1.00  0.00    -0.304 OA
HETATM    3  O   UNL     1       2.449  18.974  14.004  1.00  0.00    -0.304 OA
HETATM    4  O   UNL     1       4.902  21.539  12.335  1.00  0.00    -0.270 OA
HETATM    5  O   UNL     1       5.838  21.406  15.861  1.00  0.00    -0.263 OA
HETATM    6  O   UNL     1       2.188  21.542  14.229  1.00  0.00    -0.270 OA
HETATM    7  O   UNL     1       6.978  17.666  10.739  1.00  0.00    -0.263 OA
HETATM    8  O   UNL     1       6.245  15.241  12.554  1.00  0.00    -0.270 OA
HETATM    9  O   UNL     1       2.660  16.772  14.660  1.00  0.00    -0.263 OA
HETATM   10  N   UNL     1       7.127  21.065  11.881  1.00  0.00    -0.340 N 
HETATM   11  N   UNL     1       3.078  21.469  16.371  1.00  0.00    -0.340 N 
HETATM   12  N   UNL     1       4.180  16.282  12.381  1.00  0.00    -0.340 N 
HETATM   13  C   UNL     1       6.769  20.089  10.826  1.00  0.00     0.190 C 
HETATM   14  C   UNL     1       3.813  22.729  16.144  1.00  0.00     0.190 C 
HETATM   15  C   UNL     1       6.503  22.806  13.586  1.00  0.00     0.227 C 
HETATM   16  C   UNL     1       3.337  17.495  12.425  1.00  0.00     0.190 C 
HETATM   17  C   UNL     1       2.089  19.424  15.327  1.00  0.00     0.227 C 
HETATM   18  C   UNL     1       6.143  17.478  13.431  1.00  0.00     0.227 C 
HETATM   19  C   UNL     1       6.102  21.748  12.552  1.00  0.00     0.250 C 
HETATM   20  C   UNL     1       5.120  22.321  15.479  1.00  0.00     0.283 C 
HETATM   21  C   UNL     1       2.425  20.908  15.263  1.00  0.00     0.250 C 
HETATM   22  C   UNL     1       6.734  18.670  11.396  1.00  0.00     0.283 C 
HETATM   23  C   UNL     1       5.539  16.239  12.735  1.00  0.00     0.250 C 
HETATM   24  C   UNL     1       2.780  17.661  13.830  1.00  0.00     0.283 C 
HETATM   25  C   UNL     1       8.554  21.191  12.197  1.00  0.00     0.153 C 
HETATM   26  C   UNL     1       3.187  20.808  17.673  1.00  0.00     0.153 C 
HETATM   27  C   UNL     1       3.552  15.038  11.936  1.00  0.00     0.153 C 
ENDROOT
BRANCH  15  28
HETATM   28  C   UNL     1       6.919  24.093  12.885  1.00  0.00     0.016 C 
HETATM   29  C   UNL     1       5.944  24.433  11.759  1.00  0.00     0.012 C 
HETATM   30  C   UNL     1       7.008  25.247  13.882  1.00  0.00     0.012 C 
ENDBRANCH  15  28
BRANCH  14  31
HETATM   31  C   UNL     1       4.105  23.577  17.375  1.00  0.00     0.014 C 
HETATM   32  C   UNL     1       5.429  24.322  17.187  1.00  0.00     0.012 C 
BRANCH  31  33
HETATM   33  C   UNL     1       2.978  24.582  17.674  1.00  0.00     0.002 C 
HETATM   34  C   UNL     1       2.411  24.459  19.082  1.00  0.00     0.005 C 
ENDBRANCH  31  33
ENDBRANCH  14  31
BRANCH  13  35
HETATM   35  C   UNL     1       7.664  20.173   9.590  1.00  0.00     0.014 C 
HETATM   36  C   UNL     1       7.374  21.469   8.827  1.00  0.00     0.012 C 
BRANCH  35  37
HETATM   37  C   UNL     1       9.161  20.102   9.944  1.00  0.00     0.002 C 
HETATM   38  C   UNL     1       9.934  19.088   9.114  1.00  0.00     0.005 C 
ENDBRANCH  35  37
ENDBRANCH  13  35
BRANCH  17  39
HETATM   39  C   UNL     1       0.604  19.219  15.566  1.00  0.00     0.016 C 
HETATM   40  C   UNL     1      -0.097  20.560  15.765  1.00  0.00     0.012 C 
HETATM   41  C   UNL     1       0.375  18.310  16.772  1.00  0.00     0.012 C 
ENDBRANCH  17  39
BRANCH  18  42
HETATM   42  C   UNL     1       7.514  17.167  14.035  1.00  0.00     0.016 C 
HETATM   43  C   UNL     1       8.224  18.454  14.454  1.00  0.00     0.012 C 
HETATM   44  C   UNL     1       7.377  16.219  15.224  1.00  0.00     0.012 C 
ENDBRANCH  18  42
BRANCH  16  45
HETATM   45  C   UNL     1       2.202  17.532  11.404  1.00  0.00     0.010 C 
HETATM   46  C   UNL     1       2.184  18.868  10.663  1.00  0.00     0.012 C 
HETATM   47  C   UNL     1       0.856  17.279  12.082  1.00  0.00     0.012 C 
ENDBRANCH  16  45
TORSDOF 8
ENDMDL
MODEL 7
REMARK VINA RESULT:    -5.553      1.982      6.494
REMARK INTER + INTRA:          -7.827
REMARK INTER:                  -8.117
REMARK INTRA:                   0.290
REMARK UNBOUND:                 0.323
REMARK  8 active torsions:
REMARK  status: ('A' for Active; 'I' for Inactive)
REMARK    1  A    between atoms: C_13  and  C_15 
REMARK    2  A    between atoms: C_14  and  C_16 
REMARK    3  A    between atoms: C_15  and  C_22 
REMARK    4  A    between atoms: C_16  and  C_23 
REMARK    5  A    between atoms: C_17  and  C_21 
REMARK    6  A    between atoms: C_18  and  C_24 
REMARK    7  A    between atoms: C_19  and  C_27 
REMARK    8  A    between atoms: C_20  and  C_30 
ROOT
HETATM    1  O   UNL     1       4.858  23.856  15.248  1.00  0.00    -0.304 OA
HETATM    2  O   UNL     1       5.387  19.440  13.332  1.00  0.00    -0.304 OA
HETATM    3  O   UNL     1       4.780  19.231  17.336  1.00  0.00    -0.304 OA
HETATM    4  O   UNL     1       3.513  21.697  14.562  1.00  0.00    -0.270 OA
HETATM    5  O   UNL     1       6.896  22.784  15.398  1.00  0.00    -0.263 OA
HETATM    6  O   UNL     1       3.947  21.631  17.843  1.00  0.00    -0.270 OA
HETATM    7  O   UNL     1       4.432  18.098  11.725  1.00  0.00    -0.263 OA
HETATM    8  O   UNL     1       6.498  16.187  13.066  1.00  0.00    -0.270 OA
HETATM    9  O   UNL     1       6.199  17.411  17.314  1.00  0.00    -0.263 OA
HETATM   10  N   UNL     1       4.241  21.624  12.361  1.00  0.00    -0.340 N 
HETATM   11  N   UNL     1       6.135  22.370  18.069  1.00  0.00    -0.340 N 
HETATM   12  N   UNL     1       5.113  16.647  14.868  1.00  0.00    -0.340 N 
HETATM   13  C   UNL     1       3.557  20.334  12.112  1.00  0.00     0.190 C 
HETATM   14  C   UNL     1       5.809  23.645  17.400  1.00  0.00     0.190 C 
HETATM   15  C   UNL     1       4.782  23.592  13.833  1.00  0.00     0.227 C 
HETATM   16  C   UNL     1       4.364  17.602  15.710  1.00  0.00     0.190 C 
HETATM   17  C   UNL     1       5.573  19.945  18.308  1.00  0.00     0.227 C 
HETATM   18  C   UNL     1       6.393  18.499  13.719  1.00  0.00     0.227 C 
HETATM   19  C   UNL     1       4.126  22.222  13.625  1.00  0.00     0.250 C 
HETATM   20  C   UNL     1       5.950  23.367  15.910  1.00  0.00     0.283 C 
HETATM   21  C   UNL     1       5.135  21.386  18.081  1.00  0.00     0.250 C 
HETATM   22  C   UNL     1       4.521  19.165  12.318  1.00  0.00     0.283 C 
HETATM   23  C   UNL     1       5.997  17.011  13.839  1.00  0.00     0.250 C 
HETATM   24  C   UNL     1       5.241  18.031  16.875  1.00  0.00     0.283 C 
HETATM   25  C   UNL     1       5.063  22.150  11.265  1.00  0.00     0.153 C 
HETATM   26  C   UNL     1       7.502  22.148  18.545  1.00  0.00     0.153 C 
HETATM   27  C   UNL     1       4.919  15.220  15.126  1.00  0.00     0.153 C 
ENDROOT
BRANCH  15  28
HETATM   28  C   UNL     1       3.916  24.686  13.221  1.00  0.00     0.016 C 
HETATM   29  C   UNL     1       3.051  25.350  14.291  1.00  0.00     0.012 C 
HETATM   30  C   UNL     1       4.782  25.725  12.511  1.00  0.00     0.012 C 
ENDBRANCH  15  28
BRANCH  14  31
HETATM   31  C   UNL     1       6.658  24.850  17.782  1.00  0.00     0.014 C 
HETATM   32  C   UNL     1       6.409  25.991  16.793  1.00  0.00     0.012 C 
BRANCH  31  33
HETATM   33  C   UNL     1       6.377  25.332  19.217  1.00  0.00     0.002 C 
HETATM   34  C   UNL     1       6.677  26.809  19.433  1.00  0.00     0.005 C 
ENDBRANCH  31  33
ENDBRANCH  14  31
BRANCH  13  35
HETATM   35  C   UNL     1       2.874  20.263  10.747  1.00  0.00     0.014 C 
HETATM   36  C   UNL     1       1.901  19.081  10.714  1.00  0.00     0.012 C 
BRANCH  35  37
HETATM   37  C   UNL     1       2.126  21.562  10.396  1.00  0.00     0.002 C 
HETATM   38  C   UNL     1       0.958  21.862  11.323  1.00  0.00     0.005 C 
ENDBRANCH  35  37
ENDBRANCH  13  35
BRANCH  17  39
HETATM   39  C   UNL     1       5.219  19.490  19.712  1.00  0.00     0.016 C 
HETATM   40  C   UNL     1       4.671  20.656  20.532  1.00  0.00     0.012 C 
HETATM   41  C   UNL     1       6.436  18.875  20.400  1.00  0.00     0.012 C 
ENDBRANCH  17  39
BRANCH  18  42
HETATM   42  C   UNL     1       7.585  18.687  12.780  1.00  0.00     0.016 C 
HETATM   43  C   UNL     1       7.892  20.172  12.585  1.00  0.00     0.012 C 
HETATM   44  C   UNL     1       8.814  17.953  13.313  1.00  0.00     0.012 C 
ENDBRANCH  18  42
BRANCH  16  45
HETATM   45  C   UNL     1       3.020  17.093  16.227  1.00  0.00     0.010 C 
HETATM   46  C   UNL     1       1.890  18.038  15.820  1.00  0.00     0.012 C 
HETATM   47  C   UNL     1       3.053  16.924  17.746  1.00  0.00     0.012 C 
ENDBRANCH  16  45
TORSDOF 8
ENDMDL
MODEL 8
REMARK VINA RESULT:    -5.542      2.016      5.164
REMARK INTER + INTRA:          -7.810
REMARK INTER:                  -9.015
REMARK INTRA:                   1.205
REMARK UNBOUND:                 0.323
REMARK  8 active torsions:
REMARK  status: ('A' for Active; 'I' for Inactive)
REMARK    1  A    between atoms: C_13  and  C_15 
REMARK    2  A    between atoms: C_14  and  C_16 
REMARK    3  A    between atoms: C_15  and  C_22 
REMARK    4  A    between atoms: C_16  and  C_23 
REMARK    5  A    between atoms: C_17  and  C_21 
REMARK    6  A    between atoms: C_18  and  C_24 
REMARK    7  A    between atoms: C_19  and  C_27 
REMARK    8  A    between atoms: C_20  and  C_30 
ROOT
HETATM    1  O   UNL     1       7.056  20.736  13.833  1.00  0.00    -0.304 OA
HETATM    2  O   UNL     1       3.686  24.037  14.926  1.00  0.00    -0.304 OA
HETATM    3  O   UNL     1       5.648  22.799  18.251  1.00  0.00    -0.304 OA
HETATM    4  O   UNL     1       6.743  23.261  14.514  1.00  0.00    -0.270 OA
HETATM    5  O   UNL     1       5.014  20.050  14.660  1.00  0.00    -0.263 OA
HETATM    6  O   UNL     1       7.687  21.587  17.208  1.00  0.00    -0.270 OA
HETATM    7  O   UNL     1       3.110  26.201  14.395  1.00  0.00    -0.263 OA
HETATM    8  O   UNL     1       1.105  25.506  16.678  1.00  0.00    -0.270 OA
HETATM    9  O   UNL     1       3.642  23.057  19.360  1.00  0.00    -0.263 OA
HETATM   10  N   UNL     1       5.267  23.810  12.810  1.00  0.00    -0.340 N 
HETATM   11  N   UNL     1       6.461  19.626  17.028  1.00  0.00    -0.340 N 
HETATM   12  N   UNL     1       3.120  25.306  17.807  1.00  0.00    -0.340 N 
HETATM   13  C   UNL     1       5.052  25.173  13.351  1.00  0.00     0.190 C 
HETATM   14  C   UNL     1       7.079  19.319  15.723  1.00  0.00     0.190 C 
HETATM   15  C   UNL     1       6.418  21.573  12.848  1.00  0.00     0.227 C 
HETATM   16  C   UNL     1       4.509  24.809  17.893  1.00  0.00     0.190 C 
HETATM   17  C   UNL     1       5.782  21.414  18.637  1.00  0.00     0.227 C 
HETATM   18  C   UNL     1       2.598  23.822  15.830  1.00  0.00     0.227 C 
HETATM   19  C   UNL     1       6.158  22.950  13.470  1.00  0.00     0.250 C 
HETATM   20  C   UNL     1       6.237  20.059  14.693  1.00  0.00     0.283 C 
HETATM   21  C   UNL     1       6.746  20.880  17.586  1.00  0.00     0.250 C 
HETATM   22  C   UNL     1       3.811  25.208  14.242  1.00  0.00     0.283 C 
HETATM   23  C   UNL     1       2.210  24.965  16.794  1.00  0.00     0.250 C 
HETATM   24  C   UNL     1       4.512  23.467  18.607  1.00  0.00     0.283 C 
HETATM   25  C   UNL     1       4.458  23.434  11.646  1.00  0.00     0.153 C 
HETATM   26  C   UNL     1       5.488  18.686  17.590  1.00  0.00     0.153 C 
HETATM   27  C   UNL     1       2.662  26.221  18.854  1.00  0.00     0.153 C 
ENDROOT
BRANCH  15  28
HETATM   28  C   UNL     1       7.385  21.701  11.678  1.00  0.00     0.016 C 
HETATM   29  C   UNL     1       8.785  21.242  12.082  1.00  0.00     0.012 C 
HETATM   30  C   UNL     1       6.886  20.899  10.476  1.00  0.00     0.012 C 
ENDBRANCH  15  28
BRANCH  14  31
HETATM   31  C   UNL     1       7.178  17.847  15.346  1.00  0.00     0.014 C 
HETATM   32  C   UNL     1       6.137  17.518  14.273  1.00  0.00     0.012 C 
BRANCH  31  33
HETATM   33  C   UNL     1       8.583  17.465  14.846  1.00  0.00     0.002 C 
HETATM   34  C   UNL     1       8.793  17.727  13.361  1.00  0.00     0.005 C 
ENDBRANCH  31  33
ENDBRANCH  14  31
BRANCH  13  35
HETATM   35  C   UNL     1       4.997  26.252  12.271  1.00  0.00     0.014 C 
HETATM   36  C   UNL     1       3.539  26.567  11.926  1.00  0.00     0.012 C 
BRANCH  35  37
HETATM   37  C   UNL     1       5.722  27.543  12.693  1.00  0.00     0.002 C 
HETATM   38  C   UNL     1       4.949  28.812  12.361  1.00  0.00     0.005 C 
ENDBRANCH  35  37
ENDBRANCH  13  35
BRANCH  17  39
HETATM   39  C   UNL     1       6.389  21.313  20.025  1.00  0.00     0.016 C 
HETATM   40  C   UNL     1       7.800  21.897  20.038  1.00  0.00     0.012 C 
HETATM   41  C   UNL     1       6.406  19.860  20.498  1.00  0.00     0.012 C 
ENDBRANCH  17  39
BRANCH  18  42
HETATM   42  C   UNL     1       1.398  23.355  15.004  1.00  0.00     0.016 C 
HETATM   43  C   UNL     1       1.853  22.486  13.832  1.00  0.00     0.012 C 
HETATM   44  C   UNL     1       0.403  22.596  15.879  1.00  0.00     0.012 C 
ENDBRANCH  18  42
BRANCH  16  45
HETATM   45  C   UNL     1       5.496  25.762  18.565  1.00  0.00     0.010 C 
HETATM   46  C   UNL     1       6.534  26.261  17.560  1.00  0.00     0.012 C 
HETATM   47  C   UNL     1       6.183  25.082  19.749  1.00  0.00     0.012 C 
ENDBRANCH  16  45
TORSDOF 8
ENDMDL
MODEL 9
REMARK VINA RESULT:    -5.482      2.260      7.741
REMARK INTER + INTRA:          -7.722
REMARK INTER:                  -8.037
REMARK INTRA:                   0.315
REMARK UNBOUND:                 0.323
REMARK  8 active torsions:
REMARK  status: ('A' for Active; 'I' for Inactive)
REMARK    1  A    between atoms: C_13  and  C_15 
REMARK    2  A    between atoms: C_14  and  C_16 
REMARK    3  A    between atoms: C_15  and  C_22 
REMARK    4  A    between atoms: C_16  and  C_23 
REMARK    5  A    between atoms: C_17  and  C_21 
REMARK    6  A    between atoms: C_18  and  C_24 
REMARK    7  A    between atoms: C_19  and  C_27 
REMARK    8  A    between atoms: C_20  and  C_30 
ROOT
HETATM    1  O   UNL     1       6.124  23.484  13.404  1.00  0.00    -0.304 OA
HETATM    2  O   UNL     1       3.510  23.448  17.480  1.00  0.00    -0.304 OA
HETATM    3  O   UNL     1       5.856  20.151  17.223  1.00  0.00    -0.304 OA
HETATM    4  O   UNL     1       6.300  23.853  16.006  1.00  0.00    -0.270 OA
HETATM    5  O   UNL     1       4.192  22.225  13.510  1.00  0.00    -0.263 OA
HETATM    6  O   UNL     1       7.478  20.837  15.322  1.00  0.00    -0.270 OA
HETATM    7  O   UNL     1       3.157  24.741  19.351  1.00  0.00    -0.263 OA
HETATM    8  O   UNL     1       1.527  22.163  19.991  1.00  0.00    -0.270 OA
HETATM    9  O   UNL     1       4.144  19.023  18.281  1.00  0.00    -0.263 OA
HETATM   10  N   UNL     1       4.628  25.454  16.156  1.00  0.00    -0.340 N 
HETATM   11  N   UNL     1       5.976  20.068  13.729  1.00  0.00    -0.340 N 
HETATM   12  N   UNL     1       3.667  21.284  19.831  1.00  0.00    -0.340 N 
HETATM   13  C   UNL     1       4.710  25.491  17.635  1.00  0.00     0.190 C 
HETATM   14  C   UNL     1       6.295  21.197  12.834  1.00  0.00     0.190 C 
HETATM   15  C   UNL     1       5.440  24.644  13.917  1.00  0.00     0.227 C 
HETATM   16  C   UNL     1       4.965  21.162  19.134  1.00  0.00     0.190 C 
HETATM   17  C   UNL     1       5.862  19.255  16.091  1.00  0.00     0.227 C 
HETATM   18  C   UNL     1       2.587  22.418  17.847  1.00  0.00     0.227 C 
HETATM   19  C   UNL     1       5.495  24.608  15.448  1.00  0.00     0.250 C 
HETATM   20  C   UNL     1       5.390  22.337  13.283  1.00  0.00     0.283 C 
HETATM   21  C   UNL     1       6.532  20.101  15.016  1.00  0.00     0.250 C 
HETATM   22  C   UNL     1       3.671  24.557  18.255  1.00  0.00     0.283 C 
HETATM   23  C   UNL     1       2.548  21.963  19.323  1.00  0.00     0.250 C 
HETATM   24  C   UNL     1       4.910  19.971  18.191  1.00  0.00     0.283 C 
HETATM   25  C   UNL     1       3.574  26.268  15.539  1.00  0.00     0.153 C 
HETATM   26  C   UNL     1       5.000  19.067  13.290  1.00  0.00     0.153 C 
HETATM   27  C   UNL     1       3.543  20.653  21.146  1.00  0.00     0.153 C 
ENDROOT
BRANCH  15  28
HETATM   28  C   UNL     1       6.183  25.867  13.394  1.00  0.00     0.016 C 
HETATM   29  C   UNL     1       7.401  25.447  12.573  1.00  0.00     0.012 C 
HETATM   30  C   UNL     1       5.254  26.747  12.560  1.00  0.00     0.012 C 
ENDBRANCH  15  28
BRANCH  14  31
HETATM   31  C   UNL     1       6.115  20.954  11.342  1.00  0.00     0.014 C 
HETATM   32  C   UNL     1       5.885  22.287  10.625  1.00  0.00     0.012 C 
BRANCH  31  33
HETATM   33  C   UNL     1       7.319  20.227  10.718  1.00  0.00     0.002 C 
HETATM   34  C   UNL     1       8.656  20.634  11.322  1.00  0.00     0.005 C 
ENDBRANCH  31  33
ENDBRANCH  14  31
BRANCH  13  35
HETATM   35  C   UNL     1       4.609  26.902  18.213  1.00  0.00     0.014 C 
HETATM   36  C   UNL     1       5.086  26.902  19.668  1.00  0.00     0.012 C 
BRANCH  35  37
HETATM   37  C   UNL     1       5.420  27.929  17.401  1.00  0.00     0.002 C 
HETATM   38  C   UNL     1       6.925  27.792  17.576  1.00  0.00     0.005 C 
ENDBRANCH  35  37
ENDBRANCH  13  35
BRANCH  17  39
HETATM   39  C   UNL     1       6.694  18.023  16.401  1.00  0.00     0.016 C 
HETATM   40  C   UNL     1       7.836  17.881  15.399  1.00  0.00     0.012 C 
HETATM   41  C   UNL     1       5.819  16.771  16.400  1.00  0.00     0.012 C 
ENDBRANCH  17  39
BRANCH  18  42
HETATM   42  C   UNL     1       1.203  22.843  17.356  1.00  0.00     0.016 C 
HETATM   43  C   UNL     1       1.306  23.587  16.025  1.00  0.00     0.012 C 
HETATM   44  C   UNL     1       0.282  21.632  17.222  1.00  0.00     0.012 C 
ENDBRANCH  18  42
BRANCH  16  45
HETATM   45  C   UNL     1       6.183  21.049  20.049  1.00  0.00     0.010 C 
HETATM   46  C   UNL     1       7.325  21.926  19.537  1.00  0.00     0.012 C 
HETATM   47  C   UNL     1       6.638  19.595  20.168  1.00  0.00     0.012 C 
ENDBRANCH  16  45
TORSDOF 8
ENDMDL
MODEL 10
REMARK VINA RESULT:    -5.324      2.039      5.733
REMARK INTER + INTRA:          -7.491
REMARK INTER:                  -8.216
REMARK INTRA:                   0.725
REMARK UNBOUND:                 0.323
REMARK  8 active torsions:
REMARK  status: ('A' for Active; 'I' for Inactive)
REMARK    1  A    between atoms: C_13  and  C_15 
REMARK    2  A    between atoms: C_14  and  C_16 
REMARK    3  A    between atoms: C_15  and  C_22 
REMARK    4  A    between atoms: C_16  and  C_23 
REMARK    5  A    between atoms: C_17  and  C_21 
REMARK    6  A    between atoms: C_18  and  C_24 
REMARK    7  A    between atoms: C_19  and  C_27 
REMARK    8  A    between atoms: C_20  and  C_30 
ROOT
HETATM    1  O   UNL     1       6.010  21.518  18.218  1.00  0.00    -0.304 OA
HETATM    2  O   UNL     1       5.764  20.928  13.418  1.00  0.00    -0.304 OA
HETATM    3  O   UNL     1       2.761  18.946  15.287  1.00  0.00    -0.304 OA
HETATM    4  O   UNL     1       4.670  22.279  16.082  1.00  0.00    -0.270 OA
HETATM    5  O   UNL     1       6.829  19.583  17.263  1.00  0.00    -0.263 OA
HETATM    6  O   UNL     1       2.868  19.992  17.656  1.00  0.00    -0.270 OA
HETATM    7  O   UNL     1       5.594  22.189  11.500  1.00  0.00    -0.263 OA
HETATM    8  O   UNL     1       5.341  19.276  10.421  1.00  0.00    -0.270 OA
HETATM    9  O   UNL     1       2.973  17.352  13.633  1.00  0.00    -0.263 OA
HETATM   10  N   UNL     1       6.506  23.017  14.871  1.00  0.00    -0.340 N 
HETATM   11  N   UNL     1       4.477  18.445  18.292  1.00  0.00    -0.340 N 
HETATM   12  N   UNL     1       3.479  19.382  11.798  1.00  0.00    -0.340 N 
HETATM   13  C   UNL     1       5.683  23.288  13.669  1.00  0.00     0.190 C 
HETATM   14  C   UNL     1       5.201  19.468  19.071  1.00  0.00     0.190 C 
HETATM   15  C   UNL     1       6.742  22.333  17.281  1.00  0.00     0.227 C 
HETATM   16  C   UNL     1       2.843  19.731  13.086  1.00  0.00     0.190 C 
HETATM   17  C   UNL     1       2.967  17.993  16.352  1.00  0.00     0.227 C 
HETATM   18  C   UNL     1       5.804  19.664  12.749  1.00  0.00     0.227 C 
HETATM   19  C   UNL     1       5.879  22.534  16.030  1.00  0.00     0.250 C 
HETATM   20  C   UNL     1       6.118  20.162  18.073  1.00  0.00     0.283 C 
HETATM   21  C   UNL     1       3.406  18.889  17.503  1.00  0.00     0.250 C 
HETATM   22  C   UNL     1       5.716  22.094  12.715  1.00  0.00     0.283 C 
HETATM   23  C   UNL     1       4.860  19.441  11.547  1.00  0.00     0.250 C 
HETATM   24  C   UNL     1       2.867  18.514  13.997  1.00  0.00     0.283 C 
HETATM   25  C   UNL     1       7.953  23.211  14.729  1.00  0.00     0.153 C 
HETATM   26  C   UNL     1       4.993  17.074  18.269  1.00  0.00     0.153 C 
HETATM   27  C   UNL     1       2.606  18.945  10.708  1.00  0.00     0.153 C 
ENDROOT
BRANCH  15  28
HETATM   28  C   UNL     1       6.998  23.672  17.961  1.00  0.00     0.016 C 
HETATM   29  C   UNL     1       5.971  24.710  17.512  1.00  0.00     0.012 C 
HETATM   30  C   UNL     1       6.974  23.518  19.481  1.00  0.00     0.012 C 
ENDBRANCH  15  28
BRANCH  14  31
HETATM   31  C   UNL     1       6.015  18.971  20.258  1.00  0.00     0.014 C 
HETATM   32  C   UNL     1       6.971  20.070  20.727  1.00  0.00     0.012 C 
BRANCH  31  33
HETATM   33  C   UNL     1       5.124  18.519  21.429  1.00  0.00     0.002 C 
HETATM   34  C   UNL     1       5.910  18.035  22.641  1.00  0.00     0.005 C 
ENDBRANCH  31  33
ENDBRANCH  14  31
BRANCH  13  35
HETATM   35  C   UNL     1       6.059  24.585  12.955  1.00  0.00     0.014 C 
HETATM   36  C   UNL     1       4.844  25.137  12.206  1.00  0.00     0.012 C 
BRANCH  35  37
HETATM   37  C   UNL     1       6.601  25.652  13.924  1.00  0.00     0.002 C 
HETATM   38  C   UNL     1       6.926  26.977  13.250  1.00  0.00     0.005 C 
ENDBRANCH  35  37
ENDBRANCH  13  35
BRANCH  17  39
HETATM   39  C   UNL     1       1.664  17.289  16.685  1.00  0.00     0.016 C 
HETATM   40  C   UNL     1       1.253  17.575  18.128  1.00  0.00     0.012 C 
HETATM   41  C   UNL     1       1.791  15.785  16.452  1.00  0.00     0.012 C 
ENDBRANCH  17  39
BRANCH  18  42
HETATM   42  C   UNL     1       7.260  19.386  12.375  1.00  0.00     0.016 C 
HETATM   43  C   UNL     1       8.208  19.948  13.435  1.00  0.00     0.012 C 
HETATM   44  C   UNL     1       7.494  17.888  12.189  1.00  0.00     0.012 C 
ENDBRANCH  18  42
BRANCH  16  45
HETATM   45  C   UNL     1       1.420  20.275  12.978  1.00  0.00     0.010 C 
HETATM   46  C   UNL     1       1.312  21.643  13.650  1.00  0.00     0.012 C 
HETATM   47  C   UNL     1       0.418  19.298  13.592  1.00  0.00     0.012 C 
ENDBRANCH  16  45
TORSDOF 8
ENDMDL
MODEL 11
REMARK VINA RESULT:    -5.242      2.141      7.023
REMARK INTER + INTRA:          -7.370
REMARK INTER:                  -8.077
REMARK INTRA:                   0.706
REMARK UNBOUND:                 0.323
REMARK  8 active torsions:
REMARK  status: ('A' for Active; 'I' for Inactive)
REMARK    1  A    between atoms: C_13  and  C_15 
REMARK    2  A    between atoms: C_14  and  C_16 
REMARK    3  A    between atoms: C_15  and  C_22 
REMARK    4  A    between atoms: C_16  and  C_23 
REMARK    5  A    between atoms: C_17  and  C_21 
REMARK    6  A    between atoms: C_18  and  C_24 
REMARK    7  A    between atoms: C_19  and  C_27 
REMARK    8  A    between atoms: C_20  and  C_30 
ROOT
HETATM    1  O   UNL     1       3.272  23.637  12.696  1.00  0.00    -0.304 OA
HETATM    2  O   UNL     1       4.529  18.961  12.709  1.00  0.00    -0.304 OA
HETATM    3  O   UNL     1       6.220  20.934  15.821  1.00  0.00    -0.304 OA
HETATM    4  O   UNL     1       2.815  21.350  13.921  1.00  0.00    -0.270 OA
HETATM    5  O   UNL     1       5.325  23.005  11.851  1.00  0.00    -0.263 OA
HETATM    6  O   UNL     1       4.853  23.135  15.821  1.00  0.00    -0.270 OA
HETATM    7  O   UNL     1       3.549  16.879  12.770  1.00  0.00    -0.263 OA
HETATM    8  O   UNL     1       6.584  16.207  12.998  1.00  0.00    -0.270 OA
HETATM    9  O   UNL     1       8.032  19.532  15.543  1.00  0.00    -0.263 OA
HETATM   10  N   UNL     1       2.259  20.143  12.019  1.00  0.00    -0.340 N 
HETATM   11  N   UNL     1       6.300  24.063  14.262  1.00  0.00    -0.340 N 
HETATM   12  N   UNL     1       6.281  17.460  14.926  1.00  0.00    -0.340 N 
HETATM   13  C   UNL     1       2.157  18.875  12.779  1.00  0.00     0.190 C 
HETATM   14  C   UNL     1       5.179  24.727  13.567  1.00  0.00     0.190 C 
HETATM   15  C   UNL     1       2.598  22.634  11.911  1.00  0.00     0.227 C 
HETATM   16  C   UNL     1       5.753  18.652  15.622  1.00  0.00     0.190 C 
HETATM   17  C   UNL     1       7.015  22.131  15.678  1.00  0.00     0.227 C 
HETATM   18  C   UNL     1       5.875  18.479  12.648  1.00  0.00     0.227 C 
HETATM   19  C   UNL     1       2.573  21.324  12.708  1.00  0.00     0.250 C 
HETATM   20  C   UNL     1       4.635  23.689  12.595  1.00  0.00     0.283 C 
HETATM   21  C   UNL     1       5.968  23.166  15.288  1.00  0.00     0.250 C 
HETATM   22  C   UNL     1       3.474  18.100  12.710  1.00  0.00     0.283 C 
HETATM   23  C   UNL     1       6.261  17.273  13.534  1.00  0.00     0.250 C 
HETATM   24  C   UNL     1       6.830  19.724  15.655  1.00  0.00     0.283 C 
HETATM   25  C   UNL     1       2.092  20.049  10.565  1.00  0.00     0.153 C 
HETATM   26  C   UNL     1       7.662  24.258  13.759  1.00  0.00     0.153 C 
HETATM   27  C   UNL     1       6.864  16.399  15.747  1.00  0.00     0.153 C 
ENDROOT
BRANCH  15  28
HETATM   28  C   UNL     1       1.179  23.132  11.675  1.00  0.00     0.016 C 
HETATM   29  C   UNL     1       0.833  24.257  12.649  1.00  0.00     0.012 C 
HETATM   30  C   UNL     1       1.004  23.600  10.232  1.00  0.00     0.012 C 
ENDBRANCH  15  28
BRANCH  14  31
HETATM   31  C   UNL     1       5.508  26.011  12.819  1.00  0.00     0.014 C 
HETATM   32  C   UNL     1       4.322  26.415  11.939  1.00  0.00     0.012 C 
BRANCH  31  33
HETATM   33  C   UNL     1       5.870  27.166  13.770  1.00  0.00     0.002 C 
HETATM   34  C   UNL     1       7.029  28.021  13.277  1.00  0.00     0.005 C 
ENDBRANCH  31  33
ENDBRANCH  14  31
BRANCH  13  35
HETATM   35  C   UNL     1       0.974  18.006  12.354  1.00  0.00     0.014 C 
HETATM   36  C   UNL     1       0.616  17.032  13.479  1.00  0.00     0.012 C 
BRANCH  35  37
HETATM   37  C   UNL     1      -0.262  18.842  11.977  1.00  0.00     0.002 C 
HETATM   38  C   UNL     1      -1.156  18.175  10.942  1.00  0.00     0.005 C 
ENDBRANCH  35  37
ENDBRANCH  13  35
BRANCH  17  39
HETATM   39  C   UNL     1       7.661  22.493  17.003  1.00  0.00     0.016 C 
HETATM   40  C   UNL     1       9.131  22.082  17.013  1.00  0.00     0.012 C 
HETATM   41  C   UNL     1       6.913  21.838  18.162  1.00  0.00     0.012 C 
ENDBRANCH  17  39
BRANCH  18  42
HETATM   42  C   UNL     1       6.207  18.221  11.178  1.00  0.00     0.016 C 
HETATM   43  C   UNL     1       5.721  19.377  10.304  1.00  0.00     0.012 C 
HETATM   44  C   UNL     1       7.708  18.004  10.993  1.00  0.00     0.012 C 
ENDBRANCH  18  42
BRANCH  16  45
HETATM   45  C   UNL     1       5.225  18.396  17.032  1.00  0.00     0.010 C 
HETATM   46  C   UNL     1       3.897  19.120  17.251  1.00  0.00     0.012 C 
HETATM   47  C   UNL     1       6.249  18.830  18.080  1.00  0.00     0.012 C 
ENDBRANCH  16  45
TORSDOF 8
ENDMDL
MODEL 12
REMARK VINA RESULT:    -5.206     18.303     22.123
REMARK INTER + INTRA:          -7.318
REMARK INTER:                  -8.157
REMARK INTRA:                   0.839
REMARK UNBOUND:                 0.323
REMARK  8 active torsions:
REMARK  status: ('A' for Active; 'I' for Inactive)
REMARK    1  A    between atoms: C_13  and  C_15 
REMARK    2  A    between atoms: C_14  and  C_16 
REMARK    3  A    between atoms: C_15  and  C_22 
REMARK    4  A    between atoms: C_16  and  C_23 
REMARK    5  A    between atoms: C_17  and  C_21 
REMARK    6  A    between atoms: C_18  and  C_24 
REMARK    7  A    between atoms: C_19  and  C_27 
REMARK    8  A    between atoms: C_20  and  C_30 
ROOT
HETATM    1  O   UNL     1       5.922  36.029  27.709  1.00  0.00    -0.304 OA
HETATM    2  O   UNL     1       5.489  40.384  25.637  1.00  0.00    -0.304 OA
HETATM    3  O   UNL     1       8.083  40.502  28.751  1.00  0.00    -0.304 OA
HETATM    4  O   UNL     1       7.170  37.729  26.131  1.00  0.00    -0.270 OA
HETATM    5  O   UNL     1       4.545  37.616  28.665  1.00  0.00    -0.263 OA
HETATM    6  O   UNL     1       8.499  37.976  29.152  1.00  0.00    -0.270 OA
HETATM    7  O   UNL     1       5.761  41.386  23.582  1.00  0.00    -0.263 OA
HETATM    8  O   UNL     1       5.155  43.810  25.445  1.00  0.00    -0.270 OA
HETATM    9  O   UNL     1       7.299  42.637  29.140  1.00  0.00    -0.263 OA
HETATM   10  N   UNL     1       5.458  37.952  24.582  1.00  0.00    -0.340 N 
HETATM   11  N   UNL     1       6.632  37.862  30.526  1.00  0.00    -0.340 N 
HETATM   12  N   UNL     1       7.123  43.029  26.391  1.00  0.00    -0.340 N 
HETATM   13  C   UNL     1       6.187  39.004  23.835  1.00  0.00     0.190 C 
HETATM   14  C   UNL     1       6.278  36.533  29.990  1.00  0.00     0.190 C 
HETATM   15  C   UNL     1       5.322  36.234  26.415  1.00  0.00     0.227 C 
HETATM   16  C   UNL     1       7.962  41.924  26.898  1.00  0.00     0.190 C 
HETATM   17  C   UNL     1       7.761  40.048  30.083  1.00  0.00     0.227 C 
HETATM   18  C   UNL     1       5.061  41.570  26.313  1.00  0.00     0.227 C 
HETATM   19  C   UNL     1       6.066  37.372  25.705  1.00  0.00     0.250 C 
HETATM   20  C   UNL     1       5.462  36.808  28.734  1.00  0.00     0.283 C 
HETATM   21  C   UNL     1       7.689  38.538  29.898  1.00  0.00     0.250 C 
HETATM   22  C   UNL     1       5.752  40.394  24.300  1.00  0.00     0.283 C 
HETATM   23  C   UNL     1       5.783  42.897  25.992  1.00  0.00     0.250 C 
HETATM   24  C   UNL     1       7.732  41.772  28.393  1.00  0.00     0.283 C 
HETATM   25  C   UNL     1       4.099  37.647  24.121  1.00  0.00     0.153 C 
HETATM   26  C   UNL     1       5.789  38.455  31.566  1.00  0.00     0.153 C 
HETATM   27  C   UNL     1       7.734  44.355  26.297  1.00  0.00     0.153 C 
ENDROOT
BRANCH  15  28
HETATM   28  C   UNL     1       5.485  34.935  25.637  1.00  0.00     0.016 C 
HETATM   29  C   UNL     1       6.637  34.108  26.205  1.00  0.00     0.012 C 
HETATM   30  C   UNL     1       4.187  34.129  25.655  1.00  0.00     0.012 C 
ENDBRANCH  15  28
BRANCH  14  31
HETATM   31  C   UNL     1       5.499  35.611  30.918  1.00  0.00     0.014 C 
HETATM   32  C   UNL     1       4.412  34.879  30.127  1.00  0.00     0.012 C 
BRANCH  31  33
HETATM   33  C   UNL     1       6.408  34.589  31.624  1.00  0.00     0.002 C 
HETATM   34  C   UNL     1       7.802  34.494  31.021  1.00  0.00     0.005 C 
ENDBRANCH  31  33
ENDBRANCH  14  31
BRANCH  13  35
HETATM   35  C   UNL     1       6.074  38.860  22.318  1.00  0.00     0.014 C 
HETATM   36  C   UNL     1       5.086  39.895  21.771  1.00  0.00     0.012 C 
BRANCH  35  37
HETATM   37  C   UNL     1       7.432  39.013  21.610  1.00  0.00     0.002 C 
HETATM   38  C   UNL     1       7.399  38.624  20.139  1.00  0.00     0.005 C 
ENDBRANCH  35  37
ENDBRANCH  13  35
BRANCH  17  39
HETATM   39  C   UNL     1       8.874  40.419  31.047  1.00  0.00     0.016 C 
HETATM   40  C   UNL     1       9.319  39.197  31.847  1.00  0.00     0.012 C 
HETATM   41  C   UNL     1       8.422  41.538  31.983  1.00  0.00     0.012 C 
ENDBRANCH  17  39
BRANCH  18  42
HETATM   42  C   UNL     1       3.549  41.693  26.115  1.00  0.00     0.016 C 
HETATM   43  C   UNL     1       2.892  40.313  26.102  1.00  0.00     0.012 C 
HETATM   44  C   UNL     1       2.932  42.570  27.202  1.00  0.00     0.012 C 
ENDBRANCH  18  42
BRANCH  16  45
HETATM   45  C   UNL     1       9.456  42.061  26.610  1.00  0.00     0.010 C 
HETATM   46  C   UNL     1      10.009  40.772  26.001  1.00  0.00     0.012 C 
HETATM   47  C   UNL     1      10.222  42.423  27.882  1.00  0.00     0.012 C 
ENDBRANCH  16  45
TORSDOF 8
ENDMDL
MODEL 13
REMARK VINA RESULT:    -5.072      2.106      5.670
REMARK INTER + INTRA:          -7.122
REMARK INTER:                  -7.684
REMARK INTRA:                   0.562
REMARK UNBOUND:                 0.323
REMARK  8 active torsions:
REMARK  status: ('A' for Active; 'I' for Inactive)
REMARK    1  A    between atoms: C_13  and  C_15 
REMARK    2  A    between atoms: C_14  and  C_16 
REMARK    3  A    between atoms: C_15  and  C_22 
REMARK    4  A    between atoms: C_16  and  C_23 
REMARK    5  A    between atoms: C_17  and  C_21 
REMARK    6  A    between atoms: C_18  and  C_24 
REMARK    7  A    between atoms: C_19  and  C_27 
REMARK    8  A    between atoms: C_20  and  C_30 
ROOT
HETATM    1  O   UNL     1       3.339  23.534  17.809  1.00  0.00    -0.304 OA
HETATM    2  O   UNL     1       3.887  20.611  13.988  1.00  0.00    -0.304 OA
HETATM    3  O   UNL     1       5.718  24.175  13.371  1.00  0.00    -0.304 OA
HETATM    4  O   UNL     1       5.096  22.005  16.579  1.00  0.00    -0.270 OA
HETATM    5  O   UNL     1       1.978  23.800  15.965  1.00  0.00    -0.263 OA
HETATM    6  O   UNL     1       5.739  25.150  15.772  1.00  0.00    -0.270 OA
HETATM    7  O   UNL     1       4.724  18.529  13.476  1.00  0.00    -0.263 OA
HETATM    8  O   UNL     1       4.004  19.680  10.670  1.00  0.00    -0.270 OA
HETATM    9  O   UNL     1       5.120  23.940  11.156  1.00  0.00    -0.263 OA
HETATM   10  N   UNL     1       3.810  20.074  16.583  1.00  0.00    -0.340 N 
HETATM   11  N   UNL     1       3.612  26.026  15.462  1.00  0.00    -0.340 N 
HETATM   12  N   UNL     1       5.607  21.207  11.357  1.00  0.00    -0.340 N 
HETATM   13  C   UNL     1       4.804  19.336  15.769  1.00  0.00     0.190 C 
HETATM   14  C   UNL     1       3.235  25.690  16.848  1.00  0.00     0.190 C 
HETATM   15  C   UNL     1       3.071  22.118  17.850  1.00  0.00     0.227 C 
HETATM   16  C   UNL     1       6.178  22.108  12.380  1.00  0.00     0.190 C 
HETATM   17  C   UNL     1       5.057  25.452  13.504  1.00  0.00     0.227 C 
HETATM   18  C   UNL     1       3.459  20.919  12.658  1.00  0.00     0.227 C 
HETATM   19  C   UNL     1       4.081  21.403  16.946  1.00  0.00     0.250 C 
HETATM   20  C   UNL     1       2.756  24.245  16.798  1.00  0.00     0.283 C 
HETATM   21  C   UNL     1       4.853  25.553  15.010  1.00  0.00     0.250 C 
HETATM   22  C   UNL     1       4.440  19.402  14.286  1.00  0.00     0.283 C 
HETATM   23  C   UNL     1       4.383  20.530  11.483  1.00  0.00     0.250 C 
HETATM   24  C   UNL     1       5.605  23.503  12.189  1.00  0.00     0.283 C 
HETATM   25  C   UNL     1       2.562  19.367  16.890  1.00  0.00     0.153 C 
HETATM   26  C   UNL     1       2.633  26.695  14.602  1.00  0.00     0.153 C 
HETATM   27  C   UNL     1       6.373  21.008  10.127  1.00  0.00     0.153 C 
ENDROOT
BRANCH  15  28
HETATM   28  C   UNL     1       3.251  21.672  19.295  1.00  0.00     0.016 C 
HETATM   29  C   UNL     1       4.334  22.501  19.984  1.00  0.00     0.012 C 
HETATM   30  C   UNL     1       1.933  21.772  20.060  1.00  0.00     0.012 C 
ENDBRANCH  15  28
BRANCH  14  31
HETATM   31  C   UNL     1       2.167  26.563  17.494  1.00  0.00     0.014 C 
HETATM   32  C   UNL     1       1.519  25.812  18.659  1.00  0.00     0.012 C 
BRANCH  31  33
HETATM   33  C   UNL     1       2.732  27.907  17.988  1.00  0.00     0.002 C 
HETATM   34  C   UNL     1       4.154  27.810  18.524  1.00  0.00     0.005 C 
ENDBRANCH  31  33
ENDBRANCH  14  31
BRANCH  13  35
HETATM   35  C   UNL     1       5.015  17.894  16.230  1.00  0.00     0.014 C 
HETATM   36  C   UNL     1       6.384  17.395  15.761  1.00  0.00     0.012 C 
BRANCH  35  37
HETATM   37  C   UNL     1       4.903  17.744  17.758  1.00  0.00     0.002 C 
HETATM   38  C   UNL     1       5.990  18.483  18.525  1.00  0.00     0.005 C 
ENDBRANCH  35  37
ENDBRANCH  13  35
BRANCH  17  39
HETATM   39  C   UNL     1       5.962  26.565  13.008  1.00  0.00     0.016 C 
HETATM   40  C   UNL     1       6.674  27.240  14.179  1.00  0.00     0.012 C 
HETATM   41  C   UNL     1       5.163  27.589  12.204  1.00  0.00     0.012 C 
ENDBRANCH  17  39
BRANCH  18  42
HETATM   42  C   UNL     1       2.054  20.341  12.480  1.00  0.00     0.016 C 
HETATM   43  C   UNL     1       1.247  20.474  13.771  1.00  0.00     0.012 C 
HETATM   44  C   UNL     1       1.330  21.027  11.324  1.00  0.00     0.012 C 
ENDBRANCH  18  42
BRANCH  16  45
HETATM   45  C   UNL     1       7.704  22.169  12.409  1.00  0.00     0.010 C 
HETATM   46  C   UNL     1       8.274  21.047  13.277  1.00  0.00     0.012 C 
HETATM   47  C   UNL     1       8.182  23.529  12.914  1.00  0.00     0.012 C 
ENDBRANCH  16  45
TORSDOF 8
ENDMDL
MODEL 14
REMARK VINA RESULT:    -4.986      2.167      6.810
REMARK INTER + INTRA:          -6.995
REMARK INTER:                  -7.869
REMARK INTRA:                   0.874
REMARK UNBOUND:                 0.323
REMARK  8 active torsions:
REMARK  status: ('A' for Active; 'I' for Inactive)
REMARK    1  A    between atoms: C_13  and  C_15 
REMARK    2  A    between atoms: C_14  and  C_16 
REMARK    3  A    between atoms: C_15  and  C_22 
REMARK    4  A    between atoms: C_16  and  C_23 
REMARK    5  A    between atoms: C_17  and  C_21 
REMARK    6  A    between atoms: C_18  and  C_24 
REMARK    7  A    between atoms: C_19  and  C_27 
REMARK    8  A    between atoms: C_20  and  C_30 
ROOT
HETATM    1  O   UNL     1       4.575  22.745  13.008  1.00  0.00    -0.304 OA
HETATM    2  O   UNL     1       4.902  18.078  14.256  1.00  0.00    -0.304 OA
HETATM    3  O   UNL     1       4.910  20.468  17.532  1.00  0.00    -0.304 OA
HETATM    4  O   UNL     1       3.188  20.747  14.019  1.00  0.00    -0.270 OA
HETATM    5  O   UNL     1       6.634  21.846  13.534  1.00  0.00    -0.263 OA
HETATM    6  O   UNL     1       4.112  22.714  16.515  1.00  0.00    -0.270 OA
HETATM    7  O   UNL     1       3.744  16.106  13.997  1.00  0.00    -0.263 OA
HETATM    8  O   UNL     1       6.028  15.299  15.958  1.00  0.00    -0.270 OA
HETATM    9  O   UNL     1       6.347  18.930  18.477  1.00  0.00    -0.263 OA
HETATM   10  N   UNL     1       3.577  19.256  12.285  1.00  0.00    -0.340 N 
HETATM   11  N   UNL     1       6.293  23.256  15.938  1.00  0.00    -0.340 N 
HETATM   12  N   UNL     1       4.922  16.892  17.228  1.00  0.00    -0.340 N 
HETATM   13  C   UNL     1       2.890  18.152  12.997  1.00  0.00     0.190 C 
HETATM   14  C   UNL     1       5.843  23.853  14.665  1.00  0.00     0.190 C 
HETATM   15  C   UNL     1       4.292  21.661  12.101  1.00  0.00     0.227 C 
HETATM   16  C   UNL     1       4.287  18.220  17.368  1.00  0.00     0.190 C 
HETATM   17  C   UNL     1       5.825  21.568  17.722  1.00  0.00     0.227 C 
HETATM   18  C   UNL     1       5.974  17.510  15.015  1.00  0.00     0.227 C 
HETATM   19  C   UNL     1       3.641  20.519  12.892  1.00  0.00     0.250 C 
HETATM   20  C   UNL     1       5.764  22.694  13.680  1.00  0.00     0.283 C 
HETATM   21  C   UNL     1       5.327  22.579  16.697  1.00  0.00     0.250 C 
HETATM   22  C   UNL     1       3.898  17.298  13.766  1.00  0.00     0.283 C 
HETATM   23  C   UNL     1       5.632  16.461  16.095  1.00  0.00     0.250 C 
HETATM   24  C   UNL     1       5.322  19.212  17.875  1.00  0.00     0.283 C 
HETATM   25  C   UNL     1       4.212  18.913  11.009  1.00  0.00     0.153 C 
HETATM   26  C   UNL     1       7.721  23.273  16.264  1.00  0.00     0.153 C 
HETATM   27  C   UNL     1       4.798  15.962  18.350  1.00  0.00     0.153 C 
ENDROOT
BRANCH  15  28
HETATM   28  C   UNL     1       3.321  22.195  11.057  1.00  0.00     0.016 C 
HETATM   29  C   UNL     1       1.887  21.791  11.396  1.00  0.00     0.012 C 
HETATM   30  C   UNL     1       3.435  23.715  10.942  1.00  0.00     0.012 C 
ENDBRANCH  15  28
BRANCH  14  31
HETATM   31  C   UNL     1       6.714  24.960  14.087  1.00  0.00     0.014 C 
HETATM   32  C   UNL     1       6.900  24.741  12.584  1.00  0.00     0.012 C 
BRANCH  31  33
HETATM   33  C   UNL     1       6.127  26.360  14.342  1.00  0.00     0.002 C 
HETATM   34  C   UNL     1       6.981  27.490  13.783  1.00  0.00     0.005 C 
ENDBRANCH  31  33
ENDBRANCH  14  31
BRANCH  13  35
HETATM   35  C   UNL     1       2.011  17.297  12.086  1.00  0.00     0.014 C 
HETATM   36  C   UNL     1       0.947  16.576  12.919  1.00  0.00     0.012 C 
BRANCH  35  37
HETATM   37  C   UNL     1       1.332  18.124  10.980  1.00  0.00     0.002 C 
HETATM   38  C   UNL     1       0.730  17.276   9.868  1.00  0.00     0.005 C 
ENDBRANCH  35  37
ENDBRANCH  13  35
BRANCH  17  39
HETATM   39  C   UNL     1       5.696  22.121  19.129  1.00  0.00     0.016 C 
HETATM   40  C   UNL     1       5.303  23.596  19.093  1.00  0.00     0.012 C 
HETATM   41  C   UNL     1       7.000  21.932  19.902  1.00  0.00     0.012 C 
ENDBRANCH  17  39
BRANCH  18  42
HETATM   42  C   UNL     1       7.007  16.974  14.022  1.00  0.00     0.016 C 
HETATM   43  C   UNL     1       6.856  17.657  12.663  1.00  0.00     0.012 C 
HETATM   44  C   UNL     1       8.423  17.163  14.561  1.00  0.00     0.012 C 
ENDBRANCH  18  42
BRANCH  16  45
HETATM   45  C   UNL     1       3.048  18.254  18.260  1.00  0.00     0.010 C 
HETATM   46  C   UNL     1       1.861  18.861  17.512  1.00  0.00     0.012 C 
HETATM   47  C   UNL     1       3.326  19.035  19.543  1.00  0.00     0.012 C 
ENDBRANCH  16  45
TORSDOF 8
ENDMDL
MODEL 15
REMARK VINA RESULT:    -4.841     19.864     24.773
REMARK INTER + INTRA:          -6.781
REMARK INTER:                  -7.394
REMARK INTRA:                   0.613
REMARK UNBOUND:                 0.323
REMARK  8 active torsions:
REMARK  status: ('A' for Active; 'I' for Inactive)
REMARK    1  A    between atoms: C_13  and  C_15 
REMARK    2  A    between atoms: C_14  and  C_16 
REMARK    3  A    between atoms: C_15  and  C_22 
REMARK    4  A    between atoms: C_16  and  C_23 
REMARK    5  A    between atoms: C_17  and  C_21 
REMARK    6  A    between atoms: C_18  and  C_24 
REMARK    7  A    between atoms: C_19  and  C_27 
REMARK    8  A    between atoms: C_20  and  C_30 
ROOT
HETATM    1  O   UNL     1       6.580  38.038  27.196  1.00  0.00    -0.304 OA
HETATM    2  O   UNL     1       6.448  42.179  29.704  1.00  0.00    -0.304 OA
HETATM    3  O   UNL     1       5.703  38.996  32.103  1.00  0.00    -0.304 OA
HETATM    4  O   UNL     1       7.946  39.484  28.923  1.00  0.00    -0.270 OA
HETATM    5  O   UNL     1       4.545  39.012  27.685  1.00  0.00    -0.263 OA
HETATM    6  O   UNL     1       6.464  37.037  30.588  1.00  0.00    -0.270 OA
HETATM    7  O   UNL     1       7.795  43.981  30.190  1.00  0.00    -0.263 OA
HETATM    8  O   UNL     1       5.297  44.498  31.981  1.00  0.00    -0.270 OA
HETATM    9  O   UNL     1       4.266  40.383  33.259  1.00  0.00    -0.263 OA
HETATM   10  N   UNL     1       7.973  41.434  27.668  1.00  0.00    -0.340 N 
HETATM   11  N   UNL     1       4.369  36.960  29.593  1.00  0.00    -0.340 N 
HETATM   12  N   UNL     1       6.043  42.487  32.862  1.00  0.00    -0.340 N 
HETATM   13  C   UNL     1       8.625  42.199  28.756  1.00  0.00     0.190 C 
HETATM   14  C   UNL     1       4.968  36.686  28.272  1.00  0.00     0.190 C 
HETATM   15  C   UNL     1       7.098  39.286  26.693  1.00  0.00     0.227 C 
HETATM   16  C   UNL     1       6.531  41.103  32.689  1.00  0.00     0.190 C 
HETATM   17  C   UNL     1       4.679  38.013  31.839  1.00  0.00     0.227 C 
HETATM   18  C   UNL     1       5.318  42.646  30.446  1.00  0.00     0.227 C 
HETATM   19  C   UNL     1       7.704  40.071  27.862  1.00  0.00     0.250 C 
HETATM   20  C   UNL     1       5.305  38.053  27.691  1.00  0.00     0.283 C 
HETATM   21  C   UNL     1       5.251  37.270  30.638  1.00  0.00     0.250 C 
HETATM   22  C   UNL     1       7.580  42.929  29.601  1.00  0.00     0.283 C 
HETATM   23  C   UNL     1       5.566  43.302  31.823  1.00  0.00     0.250 C 
HETATM   24  C   UNL     1       5.348  40.149  32.742  1.00  0.00     0.283 C 
HETATM   25  C   UNL     1       7.586  42.195  26.475  1.00  0.00     0.153 C 
HETATM   26  C   UNL     1       2.910  37.035  29.708  1.00  0.00     0.153 C 
HETATM   27  C   UNL     1       6.059  43.046  34.214  1.00  0.00     0.153 C 
ENDROOT
BRANCH  15  28
HETATM   28  C   UNL     1       8.178  38.942  25.676  1.00  0.00     0.016 C 
HETATM   29  C   UNL     1       9.490  38.599  26.378  1.00  0.00     0.012 C 
HETATM   30  C   UNL     1       7.730  37.786  24.784  1.00  0.00     0.012 C 
ENDBRANCH  15  28
BRANCH  14  31
HETATM   31  C   UNL     1       4.113  35.903  27.285  1.00  0.00     0.014 C 
HETATM   32  C   UNL     1       4.262  36.502  25.885  1.00  0.00     0.012 C 
BRANCH  31  33
HETATM   33  C   UNL     1       4.475  34.408  27.256  1.00  0.00     0.002 C 
HETATM   34  C   UNL     1       5.972  34.145  27.158  1.00  0.00     0.005 C 
ENDBRANCH  31  33
ENDBRANCH  14  31
BRANCH  13  35
HETATM   35  C   UNL     1       9.711  43.154  28.261  1.00  0.00     0.014 C 
HETATM   36  C   UNL     1      10.685  43.467  29.399  1.00  0.00     0.012 C 
BRANCH  35  37
HETATM   37  C   UNL     1      10.483  42.590  27.055  1.00  0.00     0.002 C 
HETATM   38  C   UNL     1      11.925  43.070  26.977  1.00  0.00     0.005 C 
ENDBRANCH  35  37
ENDBRANCH  13  35
BRANCH  17  39
HETATM   39  C   UNL     1       4.530  37.079  33.027  1.00  0.00     0.016 C 
HETATM   40  C   UNL     1       4.729  35.628  32.598  1.00  0.00     0.012 C 
HETATM   41  C   UNL     1       3.163  37.262  33.684  1.00  0.00     0.012 C 
ENDBRANCH  17  39
BRANCH  18  42
HETATM   42  C   UNL     1       4.510  43.564  29.528  1.00  0.00     0.016 C 
HETATM   43  C   UNL     1       4.539  43.049  28.089  1.00  0.00     0.012 C 
HETATM   44  C   UNL     1       3.071  43.691  30.021  1.00  0.00     0.012 C 
ENDBRANCH  18  42
BRANCH  16  45
HETATM   45  C   UNL     1       7.601  40.664  33.688  1.00  0.00     0.010 C 
HETATM   46  C   UNL     1       8.732  39.923  32.977  1.00  0.00     0.012 C 
HETATM   47  C   UNL     1       6.993  39.788  34.782  1.00  0.00     0.012 C 
ENDBRANCH  16  45
TORSDOF 8
ENDMDL
MODEL 16
REMARK VINA RESULT:    -4.788     20.400     25.301
REMARK INTER + INTRA:          -6.704
REMARK INTER:                  -7.499
REMARK INTRA:                   0.794
REMARK UNBOUND:                 0.323
REMARK  8 active torsions:
REMARK  status: ('A' for Active; 'I' for Inactive)
REMARK    1  A    between atoms: C_13  and  C_15 
REMARK    2  A    between atoms: C_14  and  C_16 
REMARK    3  A    between atoms: C_15  and  C_22 
REMARK    4  A    between atoms: C_16  and  C_23 
REMARK    5  A    between atoms: C_17  and  C_21 
REMARK    6  A    between atoms: C_18  and  C_24 
REMARK    7  A    between atoms: C_19  and  C_27 
REMARK    8  A    between atoms: C_20  and  C_30 
ROOT
HETATM    1  O   UNL     1       4.920  36.196  29.879  1.00  0.00    -0.304 OA
HETATM    2  O   UNL     1       5.701  40.628  31.666  1.00  0.00    -0.304 OA
HETATM    3  O   UNL     1       2.704  38.759  33.658  1.00  0.00    -0.304 OA
HETATM    4  O   UNL     1       5.979  37.470  31.927  1.00  0.00    -0.270 OA
HETATM    5  O   UNL     1       3.547  37.940  29.245  1.00  0.00    -0.263 OA
HETATM    6  O   UNL     1       3.022  36.313  32.862  1.00  0.00    -0.270 OA
HETATM    7  O   UNL     1       7.400  41.873  32.593  1.00  0.00    -0.263 OA
HETATM    8  O   UNL     1       4.933  43.750  32.910  1.00  0.00    -0.270 OA
HETATM    9  O   UNL     1       1.730  40.840  33.861  1.00  0.00    -0.263 OA
HETATM   10  N   UNL     1       7.387  38.833  30.686  1.00  0.00    -0.340 N 
HETATM   11  N   UNL     1       1.714  36.726  30.991  1.00  0.00    -0.340 N 
HETATM   12  N   UNL     1       4.261  41.946  34.201  1.00  0.00    -0.340 N 
HETATM   13  C   UNL     1       7.822  39.583  31.888  1.00  0.00     0.190 C 
HETATM   14  C   UNL     1       2.593  35.890  30.150  1.00  0.00     0.190 C 
HETATM   15  C   UNL     1       6.100  36.970  29.588  1.00  0.00     0.227 C 
HETATM   16  C   UNL     1       4.089  40.491  34.398  1.00  0.00     0.190 C 
HETATM   17  C   UNL     1       1.546  38.185  33.015  1.00  0.00     0.227 C 
HETATM   18  C   UNL     1       4.717  41.665  31.731  1.00  0.00     0.227 C 
HETATM   19  C   UNL     1       6.475  37.777  30.837  1.00  0.00     0.250 C 
HETATM   20  C   UNL     1       3.714  36.814  29.694  1.00  0.00     0.283 C 
HETATM   21  C   UNL     1       2.142  36.977  32.303  1.00  0.00     0.250 C 
HETATM   22  C   UNL     1       6.985  40.851  32.062  1.00  0.00     0.283 C 
HETATM   23  C   UNL     1       4.666  42.547  32.999  1.00  0.00     0.250 C 
HETATM   24  C   UNL     1       2.692  40.092  33.951  1.00  0.00     0.283 C 
HETATM   25  C   UNL     1       7.900  39.310  29.397  1.00  0.00     0.153 C 
HETATM   26  C   UNL     1       0.541  37.357  30.382  1.00  0.00     0.153 C 
HETATM   27  C   UNL     1       3.991  42.820  35.343  1.00  0.00     0.153 C 
ENDROOT
BRANCH  15  28
HETATM   28  C   UNL     1       7.209  35.983  29.250  1.00  0.00     0.016 C 
HETATM   29  C   UNL     1       7.449  35.022  30.412  1.00  0.00     0.012 C 
HETATM   30  C   UNL     1       6.871  35.208  27.977  1.00  0.00     0.012 C 
ENDBRANCH  15  28
BRANCH  14  31
HETATM   31  C   UNL     1       1.948  35.227  28.940  1.00  0.00     0.014 C 
HETATM   32  C   UNL     1       3.026  34.854  27.920  1.00  0.00     0.012 C 
BRANCH  31  33
HETATM   33  C   UNL     1       1.135  33.977  29.322  1.00  0.00     0.002 C 
HETATM   34  C   UNL     1       1.747  33.178  30.465  1.00  0.00     0.005 C 
ENDBRANCH  31  33
ENDBRANCH  14  31
BRANCH  13  35
HETATM   35  C   UNL     1       9.318  39.893  31.901  1.00  0.00     0.014 C 
HETATM   36  C   UNL     1       9.556  41.323  31.407  1.00  0.00     0.012 C 
BRANCH  35  37
HETATM   37  C   UNL     1       9.942  39.715  33.297  1.00  0.00     0.002 C 
HETATM   38  C   UNL     1      10.836  40.873  33.717  1.00  0.00     0.005 C 
ENDBRANCH  35  37
ENDBRANCH  13  35
BRANCH  17  39
HETATM   39  C   UNL     1       0.530  37.749  34.054  1.00  0.00     0.016 C 
HETATM   40  C   UNL     1       0.203  36.266  33.897  1.00  0.00     0.012 C 
HETATM   41  C   UNL     1      -0.740  38.592  33.950  1.00  0.00     0.012 C 
ENDBRANCH  17  39
BRANCH  18  42
HETATM   42  C   UNL     1       4.858  42.512  30.466  1.00  0.00     0.016 C 
HETATM   43  C   UNL     1       5.296  41.649  29.283  1.00  0.00     0.012 C 
HETATM   44  C   UNL     1       3.547  43.229  30.148  1.00  0.00     0.012 C 
ENDBRANCH  18  42
BRANCH  16  45
HETATM   45  C   UNL     1       4.345  39.996  35.820  1.00  0.00     0.010 C 
HETATM   46  C   UNL     1       5.625  39.164  35.881  1.00  0.00     0.012 C 
HETATM   47  C   UNL     1       3.155  39.185  36.333  1.00  0.00     0.012 C 
ENDBRANCH  16  45
TORSDOF 8
ENDMDL
MODEL 17
REMARK VINA RESULT:    -4.719     13.940     18.103
REMARK INTER + INTRA:          -6.603
REMARK INTER:                  -7.353
REMARK INTRA:                   0.750
REMARK UNBOUND:                 0.323
REMARK  8 active torsions:
REMARK  status: ('A' for Active; 'I' for Inactive)
REMARK    1  A    between atoms: C_13  and  C_15 
REMARK    2  A    between atoms: C_14  and  C_16 
REMARK    3  A    between atoms: C_15  and  C_22 
REMARK    4  A    between atoms: C_16  and  C_23 
REMARK    5  A    between atoms: C_17  and  C_21 
REMARK    6  A    between atoms: C_18  and  C_24 
REMARK    7  A    between atoms: C_19  and  C_27 
REMARK    8  A    between atoms: C_20  and  C_30 
ROOT
HETATM    1  O   UNL     1       2.029  30.139  29.760  1.00  0.00    -0.304 OA
HETATM    2  O   UNL     1       2.879  32.930  25.895  1.00  0.00    -0.304 OA
HETATM    3  O   UNL     1       3.860  34.854  29.327  1.00  0.00    -0.304 OA
HETATM    4  O   UNL     1       3.967  31.085  28.246  1.00  0.00    -0.270 OA
HETATM    5  O   UNL     1       0.501  31.764  29.167  1.00  0.00    -0.263 OA
HETATM    6  O   UNL     1       3.864  32.891  31.018  1.00  0.00    -0.270 OA
HETATM    7  O   UNL     1       4.095  32.900  23.941  1.00  0.00    -0.263 OA
HETATM    8  O   UNL     1       2.928  35.790  23.970  1.00  0.00    -0.270 OA
HETATM    9  O   UNL     1       3.153  36.785  28.281  1.00  0.00    -0.263 OA
HETATM   10  N   UNL     1       3.123  30.312  26.229  1.00  0.00    -0.340 N 
HETATM   11  N   UNL     1       1.583  33.147  31.358  1.00  0.00    -0.340 N 
HETATM   12  N   UNL     1       4.221  35.835  25.894  1.00  0.00    -0.340 N 
HETATM   13  C   UNL     1       4.183  30.996  25.452  1.00  0.00     0.190 C 
HETATM   14  C   UNL     1       1.395  31.684  31.431  1.00  0.00     0.190 C 
HETATM   15  C   UNL     1       2.070  29.633  28.411  1.00  0.00     0.227 C 
HETATM   16  C   UNL     1       4.668  35.226  27.164  1.00  0.00     0.190 C 
HETATM   17  C   UNL     1       2.957  35.023  30.440  1.00  0.00     0.227 C 
HETATM   18  C   UNL     1       2.292  34.216  25.673  1.00  0.00     0.227 C 
HETATM   19  C   UNL     1       3.134  30.412  27.628  1.00  0.00     0.250 C 
HETATM   20  C   UNL     1       1.231  31.226  29.989  1.00  0.00     0.283 C 
HETATM   21  C   UNL     1       2.856  33.605  30.989  1.00  0.00     0.250 C 
HETATM   22  C   UNL     1       3.698  32.362  24.966  1.00  0.00     0.283 C 
HETATM   23  C   UNL     1       3.182  35.337  25.091  1.00  0.00     0.250 C 
HETATM   24  C   UNL     1       3.799  35.748  28.297  1.00  0.00     0.283 C 
HETATM   25  C   UNL     1       2.081  29.631  25.453  1.00  0.00     0.153 C 
HETATM   26  C   UNL     1       0.420  34.021  31.528  1.00  0.00     0.153 C 
HETATM   27  C   UNL     1       4.913  37.042  25.442  1.00  0.00     0.153 C 
ENDROOT
BRANCH  15  28
HETATM   28  C   UNL     1       2.455  28.162  28.498  1.00  0.00     0.016 C 
HETATM   29  C   UNL     1       3.370  27.915  29.696  1.00  0.00     0.012 C 
HETATM   30  C   UNL     1       1.209  27.283  28.587  1.00  0.00     0.012 C 
ENDBRANCH  15  28
BRANCH  14  31
HETATM   31  C   UNL     1       0.222  31.190  32.266  1.00  0.00     0.014 C 
HETATM   32  C   UNL     1      -0.246  29.829  31.744  1.00  0.00     0.012 C 
BRANCH  31  33
HETATM   33  C   UNL     1       0.571  31.084  33.761  1.00  0.00     0.002 C 
HETATM   34  C   UNL     1      -0.580  31.462  34.683  1.00  0.00     0.005 C 
ENDBRANCH  31  33
ENDBRANCH  14  31
BRANCH  13  35
HETATM   35  C   UNL     1       4.730  30.154  24.300  1.00  0.00     0.014 C 
HETATM   36  C   UNL     1       6.047  30.753  23.799  1.00  0.00     0.012 C 
BRANCH  35  37
HETATM   37  C   UNL     1       4.947  28.683  24.698  1.00  0.00     0.002 C 
HETATM   38  C   UNL     1       6.131  28.473  25.631  1.00  0.00     0.005 C 
ENDBRANCH  35  37
ENDBRANCH  13  35
BRANCH  17  39
HETATM   39  C   UNL     1       3.564  35.956  31.472  1.00  0.00     0.016 C 
HETATM   40  C   UNL     1       4.704  35.265  32.216  1.00  0.00     0.012 C 
HETATM   41  C   UNL     1       2.497  36.439  32.452  1.00  0.00     0.012 C 
ENDBRANCH  17  39
BRANCH  18  42
HETATM   42  C   UNL     1       1.032  34.008  24.832  1.00  0.00     0.016 C 
HETATM   43  C   UNL     1       0.333  32.705  25.218  1.00  0.00     0.012 C 
HETATM   44  C   UNL     1       0.080  35.192  24.984  1.00  0.00     0.012 C 
ENDBRANCH  18  42
BRANCH  16  45
HETATM   45  C   UNL     1       6.144  35.434  27.497  1.00  0.00     0.010 C 
HETATM   46  C   UNL     1       7.000  34.334  26.871  1.00  0.00     0.012 C 
HETATM   47  C   UNL     1       6.356  35.480  29.010  1.00  0.00     0.012 C 
ENDBRANCH  16  45
TORSDOF 8
ENDMDL
MODEL 18
REMARK VINA RESULT:    -4.611     19.956     24.843
REMARK INTER + INTRA:          -6.444
REMARK INTER:                  -6.706
REMARK INTRA:                   0.261
REMARK UNBOUND:                 0.323
REMARK  8 active torsions:
REMARK  status: ('A' for Active; 'I' for Inactive)
REMARK    1  A    between atoms: C_13  and  C_15 
REMARK    2  A    between atoms: C_14  and  C_16 
REMARK    3  A    between atoms: C_15  and  C_22 
REMARK    4  A    between atoms: C_16  and  C_23 
REMARK    5  A    between atoms: C_17  and  C_21 
REMARK    6  A    between atoms: C_18  and  C_24 
REMARK    7  A    between atoms: C_19  and  C_27 
REMARK    8  A    between atoms: C_20  and  C_30 
ROOT
HETATM    1  O   UNL     1       5.471  40.706  33.388  1.00  0.00    -0.304 OA
HETATM    2  O   UNL     1       7.193  38.695  29.333  1.00  0.00    -0.304 OA
HETATM    3  O   UNL     1       3.142  38.553  29.426  1.00  0.00    -0.304 OA
HETATM    4  O   UNL     1       5.762  41.126  30.804  1.00  0.00    -0.270 OA
HETATM    5  O   UNL     1       5.649  38.409  33.240  1.00  0.00    -0.263 OA
HETATM    6  O   UNL     1       2.625  40.217  31.344  1.00  0.00    -0.270 OA
HETATM    7  O   UNL     1       8.508  39.240  27.525  1.00  0.00    -0.263 OA
HETATM    8  O   UNL     1       7.476  36.394  26.781  1.00  0.00    -0.270 OA
HETATM    9  O   UNL     1       3.328  36.531  28.330  1.00  0.00    -0.263 OA
HETATM   10  N   UNL     1       8.053  40.772  30.738  1.00  0.00    -0.340 N 
HETATM   11  N   UNL     1       2.863  38.522  32.911  1.00  0.00    -0.340 N 
HETATM   12  N   UNL     1       5.474  37.558  26.887  1.00  0.00    -0.340 N 
HETATM   13  C   UNL     1       8.092  40.892  29.262  1.00  0.00     0.190 C 
HETATM   14  C   UNL     1       3.530  39.442  33.854  1.00  0.00     0.190 C 
HETATM   15  C   UNL     1       6.828  40.878  32.933  1.00  0.00     0.227 C 
HETATM   16  C   UNL     1       4.561  38.499  27.568  1.00  0.00     0.190 C 
HETATM   17  C   UNL     1       2.381  37.990  30.516  1.00  0.00     0.227 C 
HETATM   18  C   UNL     1       6.950  37.345  28.927  1.00  0.00     0.227 C 
HETATM   19  C   UNL     1       6.827  40.932  31.401  1.00  0.00     0.250 C 
HETATM   20  C   UNL     1       5.002  39.424  33.463  1.00  0.00     0.283 C 
HETATM   21  C   UNL     1       2.604  39.013  31.623  1.00  0.00     0.250 C 
HETATM   22  C   UNL     1       8.006  39.512  28.608  1.00  0.00     0.283 C 
HETATM   23  C   UNL     1       6.672  37.069  27.433  1.00  0.00     0.250 C 
HETATM   24  C   UNL     1       3.611  37.713  28.458  1.00  0.00     0.283 C 
HETATM   25  C   UNL     1       9.314  40.415  31.398  1.00  0.00     0.153 C 
HETATM   26  C   UNL     1       2.644  37.131  33.313  1.00  0.00     0.153 C 
HETATM   27  C   UNL     1       5.101  37.105  25.546  1.00  0.00     0.153 C 
ENDROOT
BRANCH  15  28
HETATM   28  C   UNL     1       7.326  42.199  33.505  1.00  0.00     0.016 C 
HETATM   29  C   UNL     1       6.409  43.347  33.087  1.00  0.00     0.012 C 
HETATM   30  C   UNL     1       7.429  42.123  35.027  1.00  0.00     0.012 C 
ENDBRANCH  15  28
BRANCH  14  31
HETATM   31  C   UNL     1       3.387  39.119  35.335  1.00  0.00     0.014 C 
HETATM   32  C   UNL     1       4.556  39.730  36.112  1.00  0.00     0.012 C 
BRANCH  31  33
HETATM   33  C   UNL     1       2.054  39.622  35.917  1.00  0.00     0.002 C 
HETATM   34  C   UNL     1       1.383  38.624  36.851  1.00  0.00     0.005 C 
ENDBRANCH  31  33
ENDBRANCH  14  31
BRANCH  13  35
HETATM   35  C   UNL     1       9.296  41.680  28.748  1.00  0.00     0.014 C 
HETATM   36  C   UNL     1       9.038  42.144  27.312  1.00  0.00     0.012 C 
BRANCH  35  37
HETATM   37  C   UNL     1       9.624  42.895  29.636  1.00  0.00     0.002 C 
HETATM   38  C   UNL     1       8.643  44.047  29.478  1.00  0.00     0.005 C 
ENDBRANCH  35  37
ENDBRANCH  13  35
BRANCH  17  39
HETATM   39  C   UNL     1       0.912  37.910  30.146  1.00  0.00     0.016 C 
HETATM   40  C   UNL     1       0.074  38.777  31.083  1.00  0.00     0.012 C 
HETATM   41  C   UNL     1       0.428  36.462  30.178  1.00  0.00     0.012 C 
ENDBRANCH  17  39
BRANCH  18  42
HETATM   42  C   UNL     1       8.109  36.492  29.446  1.00  0.00     0.016 C 
HETATM   43  C   UNL     1       8.671  37.076  30.743  1.00  0.00     0.012 C 
HETATM   44  C   UNL     1       7.662  35.047  29.660  1.00  0.00     0.012 C 
ENDBRANCH  18  42
BRANCH  16  45
HETATM   45  C   UNL     1       3.769  39.419  26.641  1.00  0.00     0.010 C 
HETATM   46  C   UNL     1       4.002  40.885  27.005  1.00  0.00     0.012 C 
HETATM   47  C   UNL     1       2.278  39.086  26.693  1.00  0.00     0.012 C 
ENDBRANCH  16  45
TORSDOF 8
ENDMDL
MODEL 19
REMARK VINA RESULT:    -4.576      3.154      7.603
REMARK INTER + INTRA:          -6.394
REMARK INTER:                  -6.952
REMARK INTRA:                   0.558
REMARK UNBOUND:                 0.323
REMARK  8 active torsions:
REMARK  status: ('A' for Active; 'I' for Inactive)
REMARK    1  A    between atoms: C_13  and  C_15 
REMARK    2  A    between atoms: C_14  and  C_16 
REMARK    3  A    between atoms: C_15  and  C_22 
REMARK    4  A    between atoms: C_16  and  C_23 
REMARK    5  A    between atoms: C_17  and  C_21 
REMARK    6  A    between atoms: C_18  and  C_24 
REMARK    7  A    between atoms: C_19  and  C_27 
REMARK    8  A    between atoms: C_20  and  C_30 
ROOT
HETATM    1  O   UNL     1       2.615  26.356  18.439  1.00  0.00    -0.304 OA
HETATM    2  O   UNL     1       5.796  24.424  15.341  1.00  0.00    -0.304 OA
HETATM    3  O   UNL     1       2.070  22.955  14.711  1.00  0.00    -0.304 OA
HETATM    4  O   UNL     1       3.404  26.437  15.927  1.00  0.00    -0.270 OA
HETATM    5  O   UNL     1       3.482  24.258  18.854  1.00  0.00    -0.263 OA
HETATM    6  O   UNL     1       0.634  24.631  16.069  1.00  0.00    -0.270 OA
HETATM    7  O   UNL     1       7.304  25.085  13.732  1.00  0.00    -0.263 OA
HETATM    8  O   UNL     1       7.359  21.979  13.480  1.00  0.00    -0.270 OA
HETATM    9  O   UNL     1       3.100  20.966  14.160  1.00  0.00    -0.263 OA
HETATM   10  N   UNL     1       5.641  26.863  16.370  1.00  0.00    -0.340 N 
HETATM   11  N   UNL     1       0.956  23.382  17.997  1.00  0.00    -0.340 N 
HETATM   12  N   UNL     1       5.145  22.409  12.943  1.00  0.00    -0.340 N 
HETATM   13  C   UNL     1       6.009  26.755  14.938  1.00  0.00     0.190 C 
HETATM   14  C   UNL     1       1.071  24.607  18.812  1.00  0.00     0.190 C 
HETATM   15  C   UNL     1       3.932  26.897  18.216  1.00  0.00     0.227 C 
HETATM   16  C   UNL     1       3.859  23.087  13.211  1.00  0.00     0.190 C 
HETATM   17  C   UNL     1       1.259  22.350  15.741  1.00  0.00     0.227 C 
HETATM   18  C   UNL     1       6.064  23.025  15.216  1.00  0.00     0.227 C 
HETATM   19  C   UNL     1       4.296  26.707  16.739  1.00  0.00     0.250 C 
HETATM   20  C   UNL     1       2.534  25.020  18.715  1.00  0.00     0.283 C 
HETATM   21  C   UNL     1       0.894  23.548  16.606  1.00  0.00     0.250 C 
HETATM   22  C   UNL     1       6.492  25.341  14.612  1.00  0.00     0.283 C 
HETATM   23  C   UNL     1       6.258  22.440  13.799  1.00  0.00     0.250 C 
HETATM   24  C   UNL     1       2.988  22.179  14.064  1.00  0.00     0.283 C 
HETATM   25  C   UNL     1       6.745  27.056  17.316  1.00  0.00     0.153 C 
HETATM   26  C   UNL     1       1.056  22.078  18.658  1.00  0.00     0.153 C 
HETATM   27  C   UNL     1       5.265  21.653  11.696  1.00  0.00     0.153 C 
ENDROOT
BRANCH  15  28
HETATM   28  C   UNL     1       3.868  28.381  18.553  1.00  0.00     0.016 C 
HETATM   29  C   UNL     1       2.417  28.842  18.682  1.00  0.00     0.012 C 
HETATM   30  C   UNL     1       4.639  28.676  19.839  1.00  0.00     0.012 C 
ENDBRANCH  15  28
BRANCH  14  31
HETATM   31  C   UNL     1       0.665  24.492  20.275  1.00  0.00     0.014 C 
HETATM   32  C   UNL     1       1.350  25.592  21.090  1.00  0.00     0.012 C 
BRANCH  31  33
HETATM   33  C   UNL     1      -0.860  24.574  20.466  1.00  0.00     0.002 C 
HETATM   34  C   UNL     1      -1.458  23.342  21.133  1.00  0.00     0.005 C 
ENDBRANCH  31  33
ENDBRANCH  14  31
BRANCH  13  35
HETATM   35  C   UNL     1       7.021  27.809  14.491  1.00  0.00     0.014 C 
HETATM   36  C   UNL     1       7.007  27.926  12.964  1.00  0.00     0.012 C 
BRANCH  35  37
HETATM   37  C   UNL     1       6.749  29.188  15.120  1.00  0.00     0.002 C 
HETATM   38  C   UNL     1       6.960  30.348  14.158  1.00  0.00     0.005 C 
ENDBRANCH  35  37
ENDBRANCH  13  35
BRANCH  17  39
HETATM   39  C   UNL     1       0.016  21.727  15.132  1.00  0.00     0.016 C 
HETATM   40  C   UNL     1       0.170  20.211  15.032  1.00  0.00     0.012 C 
HETATM   41  C   UNL     1      -0.268  22.329  13.757  1.00  0.00     0.012 C 
ENDBRANCH  17  39
BRANCH  18  42
HETATM   42  C   UNL     1       7.253  22.700  16.122  1.00  0.00     0.016 C 
HETATM   43  C   UNL     1       7.146  23.456  17.446  1.00  0.00     0.012 C 
HETATM   44  C   UNL     1       7.348  21.196  16.371  1.00  0.00     0.012 C 
ENDBRANCH  18  42
BRANCH  16  45
HETATM   45  C   UNL     1       3.091  23.532  11.968  1.00  0.00     0.010 C 
HETATM   46  C   UNL     1       2.316  24.819  12.243  1.00  0.00     0.012 C 
HETATM   47  C   UNL     1       2.145  22.430  11.494  1.00  0.00     0.012 C 
ENDBRANCH  16  45
TORSDOF 8
ENDMDL
MODEL 20
REMARK VINA RESULT:    -4.522     19.573     24.777
REMARK INTER + INTRA:          -6.313
REMARK INTER:                  -6.772
REMARK INTRA:                   0.459
REMARK UNBOUND:                 0.323
REMARK  8 active torsions:
REMARK  status: ('A' for Active; 'I' for Inactive)
REMARK    1  A    between atoms: C_13  and  C_15 
REMARK    2  A    between atoms: C_14  and  C_16 
REMARK    3  A    between atoms: C_15  and  C_22 
REMARK    4  A    between atoms: C_16  and  C_23 
REMARK    5  A    between atoms: C_17  and  C_21 
REMARK    6  A    between atoms: C_18  and  C_24 
REMARK    7  A    between atoms: C_19  and  C_27 
REMARK    8  A    between atoms: C_20  and  C_30 
ROOT
HETATM    1  O   UNL     1       5.363  36.359  29.153  1.00  0.00    -0.304 OA
HETATM    2  O   UNL     1       4.558  40.170  32.030  1.00  0.00    -0.304 OA
HETATM    3  O   UNL     1       2.091  37.091  32.964  1.00  0.00    -0.304 OA
HETATM    4  O   UNL     1       5.763  37.258  31.597  1.00  0.00    -0.270 OA
HETATM    5  O   UNL     1       3.594  37.773  28.706  1.00  0.00    -0.263 OA
HETATM    6  O   UNL     1       3.223  35.137  31.693  1.00  0.00    -0.270 OA
HETATM    7  O   UNL     1       5.689  41.522  33.510  1.00  0.00    -0.263 OA
HETATM    8  O   UNL     1       2.745  42.504  33.806  1.00  0.00    -0.270 OA
HETATM    9  O   UNL     1       0.510  38.694  33.466  1.00  0.00    -0.263 OA
HETATM   10  N   UNL     1       6.805  39.236  30.979  1.00  0.00    -0.340 N 
HETATM   11  N   UNL     1       2.052  35.680  29.765  1.00  0.00    -0.340 N 
HETATM   12  N   UNL     1       2.530  40.303  34.502  1.00  0.00    -0.340 N 
HETATM   13  C   UNL     1       6.862  39.716  32.380  1.00  0.00     0.190 C 
HETATM   14  C   UNL     1       3.227  35.375  28.925  1.00  0.00     0.190 C 
HETATM   15  C   UNL     1       6.272  37.472  29.267  1.00  0.00     0.227 C 
HETATM   16  C   UNL     1       2.794  38.860  34.322  1.00  0.00     0.190 C 
HETATM   17  C   UNL     1       1.237  36.426  32.008  1.00  0.00     0.227 C 
HETATM   18  C   UNL     1       3.303  40.845  32.157  1.00  0.00     0.227 C 
HETATM   19  C   UNL     1       6.250  37.975  30.715  1.00  0.00     0.250 C 
HETATM   20  C   UNL     1       4.051  36.655  28.904  1.00  0.00     0.283 C 
HETATM   21  C   UNL     1       2.244  35.666  31.154  1.00  0.00     0.250 C 
HETATM   22  C   UNL     1       5.664  40.613  32.690  1.00  0.00     0.283 C 
HETATM   23  C   UNL     1       2.853  41.297  33.564  1.00  0.00     0.250 C 
HETATM   24  C   UNL     1       1.640  38.238  33.551  1.00  0.00     0.283 C 
HETATM   25  C   UNL     1       7.277  40.169  29.950  1.00  0.00     0.153 C 
HETATM   26  C   UNL     1       0.811  36.114  29.119  1.00  0.00     0.153 C 
HETATM   27  C   UNL     1       1.889  40.724  35.747  1.00  0.00     0.153 C 
ENDROOT
BRANCH  15  28
HETATM   28  C   UNL     1       7.659  36.952  28.913  1.00  0.00     0.016 C 
HETATM   29  C   UNL     1       7.716  35.431  29.049  1.00  0.00     0.012 C 
HETATM   30  C   UNL     1       8.049  37.377  27.498  1.00  0.00     0.012 C 
ENDBRANCH  15  28
BRANCH  14  31
HETATM   31  C   UNL     1       2.944  34.922  27.499  1.00  0.00     0.014 C 
HETATM   32  C   UNL     1       4.139  35.258  26.603  1.00  0.00     0.012 C 
BRANCH  31  33
HETATM   33  C   UNL     1       2.635  33.417  27.414  1.00  0.00     0.002 C 
HETATM   34  C   UNL     1       1.248  33.109  26.868  1.00  0.00     0.005 C 
ENDBRANCH  31  33
ENDBRANCH  14  31
BRANCH  13  35
HETATM   35  C   UNL     1       8.182  40.402  32.733  1.00  0.00     0.014 C 
HETATM   36  C   UNL     1       8.223  40.705  34.233  1.00  0.00     0.012 C 
BRANCH  35  37
HETATM   37  C   UNL     1       9.407  39.557  32.339  1.00  0.00     0.002 C 
HETATM   38  C   UNL     1      10.705  40.035  32.973  1.00  0.00     0.005 C 
ENDBRANCH  35  37
ENDBRANCH  13  35
BRANCH  17  39
HETATM   39  C   UNL     1       0.302  35.464  32.718  1.00  0.00     0.016 C 
HETATM   40  C   UNL     1       0.506  34.041  32.207  1.00  0.00     0.012 C 
HETATM   41  C   UNL     1      -1.151  35.897  32.537  1.00  0.00     0.012 C 
ENDBRANCH  17  39
BRANCH  18  42
HETATM   42  C   UNL     1       3.306  42.012  31.169  1.00  0.00     0.016 C 
HETATM   43  C   UNL     1       4.050  41.634  29.888  1.00  0.00     0.012 C 
HETATM   44  C   UNL     1       1.879  42.451  30.847  1.00  0.00     0.012 C 
ENDBRANCH  18  42
BRANCH  16  45
HETATM   45  C   UNL     1       3.040  38.081  35.612  1.00  0.00     0.010 C 
HETATM   46  C   UNL     1       4.135  37.035  35.411  1.00  0.00     0.012 C 
HETATM   47  C   UNL     1       1.752  37.420  36.100  1.00  0.00     0.012 C 
ENDBRANCH  16  45
TORSDOF 8
ENDMDL
