MODEL 1
REMARK VINA RESULT:    -5.297      0.000      0.000
REMARK INTER + INTRA:          -7.299
REMARK INTER:                  -7.775
REMARK INTRA:                   0.476
REMARK UNBOUND:                 0.476
REMARK  8 active torsions:
REMARK  status: ('A' for Active; 'I' for Inactive)
REMARK    1  A    between atoms: C_13  and  C_15 
REMARK    2  A    between atoms: C_14  and  C_16 
REMARK    3  A    between atoms: C_15  and  C_22 
REMARK    4  A    between atoms: C_16  and  C_23 
REMARK    5  A    between atoms: C_17  and  C_21 
REMARK    6  A    between atoms: C_18  and  C_24 
REMARK    7  A    between atoms: C_19  and  C_27 
REMARK    8  A    between atoms: C_20  and  C_30 
ROOT
HETATM    1  O   UNL     1      51.194  28.855  40.894  1.00  0.00    -0.304 OA
HETATM    2  O   UNL     1      53.463  31.366  37.431  1.00  0.00    -0.304 OA
HETATM    3  O   UNL     1      52.799  27.541  36.261  1.00  0.00    -0.304 OA
HETATM    4  O   UNL     1      50.812  30.020  38.562  1.00  0.00    -0.270 OA
HETATM    5  O   UNL     1      53.478  28.642  40.641  1.00  0.00    -0.263 OA
HETATM    6  O   UNL     1      51.086  26.762  38.043  1.00  0.00    -0.270 OA
HETATM    7  O   UNL     1      53.171  33.262  36.160  1.00  0.00    -0.263 OA
HETATM    8  O   UNL     1      55.747  32.011  34.930  1.00  0.00    -0.270 OA
HETATM    9  O   UNL     1      54.805  27.686  35.133  1.00  0.00    -0.263 OA
HETATM   10  N   UNL     1      51.614  32.107  39.180  1.00  0.00    -0.340 N 
HETATM   11  N   UNL     1      52.810  26.175  39.480  1.00  0.00    -0.340 N 
HETATM   12  N   UNL     1      54.210  30.329  34.498  1.00  0.00    -0.340 N 
HETATM   13  C   UNL     1      51.488  32.632  37.800  1.00  0.00     0.190 C 
HETATM   14  C   UNL     1      52.052  26.667  40.646  1.00  0.00     0.190 C 
HETATM   15  C   UNL     1      51.290  30.293  40.892  1.00  0.00     0.227 C 
HETATM   16  C   UNL     1      53.113  29.439  34.932  1.00  0.00     0.190 C 
HETATM   17  C   UNL     1      53.211  26.385  37.021  1.00  0.00     0.227 C 
HETATM   18  C   UNL     1      54.734  31.019  36.873  1.00  0.00     0.227 C 
HETATM   19  C   UNL     1      51.220  30.786  39.442  1.00  0.00     0.250 C 
HETATM   20  C   UNL     1      52.358  28.157  40.727  1.00  0.00     0.283 C 
HETATM   21  C   UNL     1      52.265  26.431  38.214  1.00  0.00     0.250 C 
HETATM   22  C   UNL     1      52.816  32.503  37.053  1.00  0.00     0.283 C 
HETATM   23  C   UNL     1      54.933  31.181  35.349  1.00  0.00     0.250 C 
HETATM   24  C   UNL     1      53.705  28.129  35.427  1.00  0.00     0.283 C 
HETATM   25  C   UNL     1      52.220  33.006  40.168  1.00  0.00     0.153 C 
HETATM   26  C   UNL     1      54.135  25.586  39.692  1.00  0.00     0.153 C 
HETATM   27  C   UNL     1      54.566  30.322  33.079  1.00  0.00     0.153 C 
ENDROOT
BRANCH  15  28
HETATM   28  C   UNL     1      50.100  30.820  41.684  1.00  0.00     0.016 C 
HETATM   29  C   UNL     1      48.921  29.853  41.593  1.00  0.00     0.012 C 
HETATM   30  C   UNL     1      50.486  31.058  43.143  1.00  0.00     0.012 C 
ENDBRANCH  15  28
BRANCH  14  31
HETATM   31  C   UNL     1      52.355  26.007  41.984  1.00  0.00     0.014 C 
HETATM   32  C   UNL     1      52.025  26.973  43.124  1.00  0.00     0.012 C 
BRANCH  31  33
HETATM   33  C   UNL     1      51.582  24.690  42.175  1.00  0.00     0.002 C 
HETATM   34  C   UNL     1      50.167  24.728  41.612  1.00  0.00     0.005 C 
ENDBRANCH  31  33
ENDBRANCH  14  31
BRANCH  13  35
HETATM   35  C   UNL     1      50.949  34.061  37.740  1.00  0.00     0.014 C 
HETATM   36  C   UNL     1      50.290  34.311  36.381  1.00  0.00     0.012 C 
BRANCH  35  37
HETATM   37  C   UNL     1      49.943  34.356  38.868  1.00  0.00     0.002 C 
HETATM   38  C   UNL     1      49.941  35.810  39.317  1.00  0.00     0.005 C 
ENDBRANCH  35  37
ENDBRANCH  13  35
BRANCH  17  39
HETATM   39  C   UNL     1      52.993  25.120  36.211  1.00  0.00     0.016 C 
HETATM   40  C   UNL     1      51.710  25.222  35.390  1.00  0.00     0.012 C 
HETATM   41  C   UNL     1      52.949  23.897  37.126  1.00  0.00     0.012 C 
ENDBRANCH  17  39
BRANCH  18  42
HETATM   42  C   UNL     1      55.805  31.775  37.660  1.00  0.00     0.016 C 
HETATM   43  C   UNL     1      55.414  31.887  39.134  1.00  0.00     0.012 C 
HETATM   44  C   UNL     1      57.163  31.091  37.517  1.00  0.00     0.012 C 
ENDBRANCH  18  42
BRANCH  16  45
HETATM   45  C   UNL     1      52.045  29.165  33.876  1.00  0.00     0.010 C 
HETATM   46  C   UNL     1      50.654  29.142  34.507  1.00  0.00     0.012 C 
HETATM   47  C   UNL     1      52.325  27.849  33.152  1.00  0.00     0.012 C 
ENDBRANCH  16  45
TORSDOF 8
ENDMDL
MODEL 2
REMARK VINA RESULT:    -5.152      3.484      7.663
REMARK INTER + INTRA:          -7.085
REMARK INTER:                  -7.393
REMARK INTRA:                   0.308
REMARK UNBOUND:                 0.476
REMARK  8 active torsions:
REMARK  status: ('A' for Active; 'I' for Inactive)
REMARK    1  A    between atoms: C_13  and  C_15 
REMARK    2  A    between atoms: C_14  and  C_16 
REMARK    3  A    between atoms: C_15  and  C_22 
REMARK    4  A    between atoms: C_16  and  C_23 
REMARK    5  A    between atoms: C_17  and  C_21 
REMARK    6  A    between atoms: C_18  and  C_24 
REMARK    7  A    between atoms: C_19  and  C_27 
REMARK    8  A    between atoms: C_20  and  C_30 
ROOT
HETATM    1  O   UNL     1      51.003  26.462  42.734  1.00  0.00    -0.304 OA
HETATM    2  O   UNL     1      50.436  30.774  44.864  1.00  0.00    -0.304 OA
HETATM    3  O   UNL     1      50.722  31.162  40.838  1.00  0.00    -0.304 OA
HETATM    4  O   UNL     1      49.238  28.370  43.159  1.00  0.00    -0.270 OA
HETATM    5  O   UNL     1      52.844  27.807  43.095  1.00  0.00    -0.263 OA
HETATM    6  O   UNL     1      50.383  28.710  40.073  1.00  0.00    -0.270 OA
HETATM    7  O   UNL     1      48.959  31.867  46.249  1.00  0.00    -0.263 OA
HETATM    8  O   UNL     1      50.971  34.122  45.488  1.00  0.00    -0.270 OA
HETATM    9  O   UNL     1      51.817  33.151  41.249  1.00  0.00    -0.263 OA
HETATM   10  N   UNL     1      49.433  28.396  45.470  1.00  0.00    -0.340 N 
HETATM   11  N   UNL     1      52.650  28.289  40.336  1.00  0.00    -0.340 N 
HETATM   12  N   UNL     1      50.110  33.599  43.400  1.00  0.00    -0.340 N 
HETATM   13  C   UNL     1      48.529  29.563  45.596  1.00  0.00     0.190 C 
HETATM   14  C   UNL     1      52.372  26.940  40.868  1.00  0.00     0.190 C 
HETATM   15  C   UNL     1      50.573  26.620  44.100  1.00  0.00     0.227 C 
HETATM   16  C   UNL     1      49.716  32.609  42.376  1.00  0.00     0.190 C 
HETATM   17  C   UNL     1      51.808  30.626  40.054  1.00  0.00     0.227 C 
HETATM   18  C   UNL     1      51.355  31.865  44.752  1.00  0.00     0.227 C 
HETATM   19  C   UNL     1      49.694  27.873  44.195  1.00  0.00     0.250 C 
HETATM   20  C   UNL     1      52.132  27.136  42.360  1.00  0.00     0.283 C 
HETATM   21  C   UNL     1      51.546  29.127  40.125  1.00  0.00     0.250 C 
HETATM   22  C   UNL     1      49.333  30.862  45.658  1.00  0.00     0.283 C 
HETATM   23  C   UNL     1      50.782  33.291  44.593  1.00  0.00     0.250 C 
HETATM   24  C   UNL     1      50.887  32.380  41.433  1.00  0.00     0.283 C 
HETATM   25  C   UNL     1      50.055  27.915  46.709  1.00  0.00     0.153 C 
HETATM   26  C   UNL     1      54.042  28.724  40.198  1.00  0.00     0.153 C 
HETATM   27  C   UNL     1      49.771  35.001  43.151  1.00  0.00     0.153 C 
ENDROOT
BRANCH  15  28
HETATM   28  C   UNL     1      49.761  25.382  44.458  1.00  0.00     0.016 C 
HETATM   29  C   UNL     1      48.841  24.988  43.303  1.00  0.00     0.012 C 
HETATM   30  C   UNL     1      50.683  24.221  44.827  1.00  0.00     0.012 C 
ENDBRANCH  15  28
BRANCH  14  31
HETATM   31  C   UNL     1      53.452  25.888  40.654  1.00  0.00     0.014 C 
HETATM   32  C   UNL     1      53.290  24.765  41.681  1.00  0.00     0.012 C 
BRANCH  31  33
HETATM   33  C   UNL     1      53.425  25.304  39.231  1.00  0.00     0.002 C 
HETATM   34  C   UNL     1      52.024  25.199  38.642  1.00  0.00     0.005 C 
ENDBRANCH  31  33
ENDBRANCH  14  31
BRANCH  13  35
HETATM   35  C   UNL     1      47.554  29.452  46.767  1.00  0.00     0.014 C 
HETATM   36  C   UNL     1      46.375  30.405  46.553  1.00  0.00     0.012 C 
BRANCH  35  37
HETATM   37  C   UNL     1      47.033  28.017  46.963  1.00  0.00     0.002 C 
HETATM   38  C   UNL     1      46.455  27.762  48.348  1.00  0.00     0.005 C 
ENDBRANCH  35  37
ENDBRANCH  13  35
BRANCH  17  39
HETATM   39  C   UNL     1      51.716  31.121  38.622  1.00  0.00     0.016 C 
HETATM   40  C   UNL     1      51.780  29.950  37.644  1.00  0.00     0.012 C 
HETATM   41  C   UNL     1      52.828  32.126  38.328  1.00  0.00     0.012 C 
ENDBRANCH  17  39
BRANCH  18  42
HETATM   42  C   UNL     1      52.319  31.778  45.936  1.00  0.00     0.016 C 
HETATM   43  C   UNL     1      52.623  30.320  46.280  1.00  0.00     0.012 C 
HETATM   44  C   UNL     1      53.611  32.537  45.637  1.00  0.00     0.012 C 
ENDBRANCH  18  42
BRANCH  16  45
HETATM   45  C   UNL     1      48.464  32.966  41.578  1.00  0.00     0.010 C 
HETATM   46  C   UNL     1      47.437  31.835  41.649  1.00  0.00     0.012 C 
HETATM   47  C   UNL     1      48.818  33.274  40.124  1.00  0.00     0.012 C 
ENDBRANCH  16  45
TORSDOF 8
ENDMDL
MODEL 3
REMARK VINA RESULT:    -5.081      3.961      8.031
REMARK INTER + INTRA:          -6.981
REMARK INTER:                  -7.558
REMARK INTRA:                   0.577
REMARK UNBOUND:                 0.476
REMARK  8 active torsions:
REMARK  status: ('A' for Active; 'I' for Inactive)
REMARK    1  A    between atoms: C_13  and  C_15 
REMARK    2  A    between atoms: C_14  and  C_16 
REMARK    3  A    between atoms: C_15  and  C_22 
REMARK    4  A    between atoms: C_16  and  C_23 
REMARK    5  A    between atoms: C_17  and  C_21 
REMARK    6  A    between atoms: C_18  and  C_24 
REMARK    7  A    between atoms: C_19  and  C_27 
REMARK    8  A    between atoms: C_20  and  C_30 
ROOT
HETATM    1  O   UNL     1      48.479  29.740  44.181  1.00  0.00    -0.304 OA
HETATM    2  O   UNL     1      52.612  27.661  42.750  1.00  0.00    -0.304 OA
HETATM    3  O   UNL     1      50.351  25.077  44.906  1.00  0.00    -0.304 OA
HETATM    4  O   UNL     1      49.464  28.009  42.456  1.00  0.00    -0.270 OA
HETATM    5  O   UNL     1      50.248  29.581  45.656  1.00  0.00    -0.263 OA
HETATM    6  O   UNL     1      48.069  26.306  44.927  1.00  0.00    -0.270 OA
HETATM    7  O   UNL     1      53.764  27.194  40.813  1.00  0.00    -0.263 OA
HETATM    8  O   UNL     1      55.478  25.758  42.984  1.00  0.00    -0.270 OA
HETATM    9  O   UNL     1      52.339  24.229  45.712  1.00  0.00    -0.263 OA
HETATM   10  N   UNL     1      51.052  29.430  41.539  1.00  0.00    -0.340 N 
HETATM   11  N   UNL     1      48.714  27.523  46.794  1.00  0.00    -0.340 N 
HETATM   12  N   UNL     1      53.473  24.613  43.200  1.00  0.00    -0.340 N 
HETATM   13  C   UNL     1      51.626  28.350  40.702  1.00  0.00     0.190 C 
HETATM   14  C   UNL     1      48.049  28.735  46.276  1.00  0.00     0.190 C 
HETATM   15  C   UNL     1      49.333  30.294  43.160  1.00  0.00     0.227 C 
HETATM   16  C   UNL     1      52.000  24.599  43.319  1.00  0.00     0.190 C 
HETATM   17  C   UNL     1      49.839  25.364  46.225  1.00  0.00     0.227 C 
HETATM   18  C   UNL     1      53.590  27.101  43.631  1.00  0.00     0.227 C 
HETATM   19  C   UNL     1      49.953  29.141  42.362  1.00  0.00     0.250 C 
HETATM   20  C   UNL     1      49.073  29.399  45.365  1.00  0.00     0.283 C 
HETATM   21  C   UNL     1      48.777  26.417  45.935  1.00  0.00     0.250 C 
HETATM   22  C   UNL     1      52.820  27.703  41.404  1.00  0.00     0.283 C 
HETATM   23  C   UNL     1      54.266  25.772  43.225  1.00  0.00     0.250 C 
HETATM   24  C   UNL     1      51.622  24.594  44.792  1.00  0.00     0.283 C 
HETATM   25  C   UNL     1      51.740  30.725  41.496  1.00  0.00     0.153 C 
HETATM   26  C   UNL     1      49.387  27.584  48.094  1.00  0.00     0.153 C 
HETATM   27  C   UNL     1      54.152  23.326  43.043  1.00  0.00     0.153 C 
ENDROOT
BRANCH  15  28
HETATM   28  C   UNL     1      48.451  31.143  42.255  1.00  0.00     0.016 C 
HETATM   29  C   UNL     1      46.976  30.810  42.472  1.00  0.00     0.012 C 
HETATM   30  C   UNL     1      48.704  32.630  42.495  1.00  0.00     0.012 C 
ENDBRANCH  15  28
BRANCH  14  31
HETATM   31  C   UNL     1      47.555  29.736  47.311  1.00  0.00     0.014 C 
HETATM   32  C   UNL     1      47.993  31.148  46.914  1.00  0.00     0.012 C 
BRANCH  31  33
HETATM   33  C   UNL     1      46.027  29.693  47.484  1.00  0.00     0.002 C 
HETATM   34  C   UNL     1      45.572  28.855  48.671  1.00  0.00     0.005 C 
ENDBRANCH  31  33
ENDBRANCH  14  31
BRANCH  13  35
HETATM   35  C   UNL     1      51.986  28.804  39.289  1.00  0.00     0.014 C 
HETATM   36  C   UNL     1      51.742  27.661  38.299  1.00  0.00     0.012 C 
BRANCH  35  37
HETATM   37  C   UNL     1      51.193  30.049  38.852  1.00  0.00     0.002 C 
HETATM   38  C   UNL     1      51.867  30.841  37.742  1.00  0.00     0.005 C 
ENDBRANCH  35  37
ENDBRANCH  13  35
BRANCH  17  39
HETATM   39  C   UNL     1      49.212  24.120  46.827  1.00  0.00     0.016 C 
HETATM   40  C   UNL     1      47.766  24.390  47.233  1.00  0.00     0.012 C 
HETATM   41  C   UNL     1      50.025  23.636  48.027  1.00  0.00     0.012 C 
ENDBRANCH  17  39
BRANCH  18  42
HETATM   42  C   UNL     1      54.626  28.188  43.922  1.00  0.00     0.016 C 
HETATM   43  C   UNL     1      53.959  29.561  44.006  1.00  0.00     0.012 C 
HETATM   44  C   UNL     1      55.382  27.882  45.213  1.00  0.00     0.012 C 
ENDBRANCH  18  42
BRANCH  16  45
HETATM   45  C   UNL     1      51.304  23.447  42.597  1.00  0.00     0.010 C 
HETATM   46  C   UNL     1      50.192  23.972  41.689  1.00  0.00     0.012 C 
HETATM   47  C   UNL     1      50.743  22.439  43.600  1.00  0.00     0.012 C 
ENDBRANCH  16  45
TORSDOF 8
ENDMDL
MODEL 4
REMARK VINA RESULT:    -5.074      1.532      1.882
REMARK INTER + INTRA:          -6.971
REMARK INTER:                  -7.423
REMARK INTRA:                   0.452
REMARK UNBOUND:                 0.476
REMARK  8 active torsions:
REMARK  status: ('A' for Active; 'I' for Inactive)
REMARK    1  A    between atoms: C_13  and  C_15 
REMARK    2  A    between atoms: C_14  and  C_16 
REMARK    3  A    between atoms: C_15  and  C_22 
REMARK    4  A    between atoms: C_16  and  C_23 
REMARK    5  A    between atoms: C_17  and  C_21 
REMARK    6  A    between atoms: C_18  and  C_24 
REMARK    7  A    between atoms: C_19  and  C_27 
REMARK    8  A    between atoms: C_20  and  C_30 
ROOT
HETATM    1  O   UNL     1      50.145  29.526  41.936  1.00  0.00    -0.304 OA
HETATM    2  O   UNL     1      53.330  31.701  39.007  1.00  0.00    -0.304 OA
HETATM    3  O   UNL     1      52.931  27.776  38.070  1.00  0.00    -0.304 OA
HETATM    4  O   UNL     1      50.442  30.455  39.489  1.00  0.00    -0.270 OA
HETATM    5  O   UNL     1      52.406  29.303  42.342  1.00  0.00    -0.263 OA
HETATM    6  O   UNL     1      50.779  27.165  39.378  1.00  0.00    -0.270 OA
HETATM    7  O   UNL     1      53.437  33.463  37.530  1.00  0.00    -0.263 OA
HETATM    8  O   UNL     1      56.225  32.112  37.181  1.00  0.00    -0.270 OA
HETATM    9  O   UNL     1      55.173  27.823  37.528  1.00  0.00    -0.263 OA
HETATM   10  N   UNL     1      51.088  32.598  40.101  1.00  0.00    -0.340 N 
HETATM   11  N   UNL     1      52.031  26.730  41.283  1.00  0.00    -0.340 N 
HETATM   12  N   UNL     1      54.830  30.388  36.505  1.00  0.00    -0.340 N 
HETATM   13  C   UNL     1      51.356  32.985  38.696  1.00  0.00     0.190 C 
HETATM   14  C   UNL     1      50.992  27.330  42.143  1.00  0.00     0.190 C 
HETATM   15  C   UNL     1      50.269  30.957  41.823  1.00  0.00     0.227 C 
HETATM   16  C   UNL     1      53.638  29.538  36.704  1.00  0.00     0.190 C 
HETATM   17  C   UNL     1      53.094  26.702  39.020  1.00  0.00     0.227 C 
HETATM   18  C   UNL     1      54.697  31.309  38.855  1.00  0.00     0.227 C 
HETATM   19  C   UNL     1      50.609  31.307  40.370  1.00  0.00     0.250 C 
HETATM   20  C   UNL     1      51.295  28.822  42.162  1.00  0.00     0.283 C 
HETATM   21  C   UNL     1      51.859  26.859  39.897  1.00  0.00     0.250 C 
HETATM   22  C   UNL     1      52.835  32.792  38.359  1.00  0.00     0.283 C 
HETATM   23  C   UNL     1      55.310  31.323  37.437  1.00  0.00     0.250 C 
HETATM   24  C   UNL     1      54.043  28.285  37.465  1.00  0.00     0.283 C 
HETATM   25  C   UNL     1      51.419  33.592  41.127  1.00  0.00     0.153 C 
HETATM   26  C   UNL     1      53.234  26.173  41.906  1.00  0.00     0.153 C 
HETATM   27  C   UNL     1      55.561  30.245  35.246  1.00  0.00     0.153 C 
ENDROOT
BRANCH  15  28
HETATM   28  C   UNL     1      48.919  31.552  42.203  1.00  0.00     0.016 C 
HETATM   29  C   UNL     1      47.787  30.589  41.851  1.00  0.00     0.012 C 
HETATM   30  C   UNL     1      48.882  31.899  43.691  1.00  0.00     0.012 C 
ENDBRANCH  15  28
BRANCH  14  31
HETATM   31  C   UNL     1      50.903  26.804  43.570  1.00  0.00     0.014 C 
HETATM   32  C   UNL     1      50.149  27.808  44.444  1.00  0.00     0.012 C 
BRANCH  31  33
HETATM   33  C   UNL     1      50.218  25.428  43.644  1.00  0.00     0.002 C 
HETATM   34  C   UNL     1      49.195  25.196  42.540  1.00  0.00     0.005 C 
ENDBRANCH  31  33
ENDBRANCH  14  31
BRANCH  13  35
HETATM   35  C   UNL     1      50.884  34.398  38.355  1.00  0.00     0.014 C 
HETATM   36  C   UNL     1      50.413  34.450  36.899  1.00  0.00     0.012 C 
BRANCH  35  37
HETATM   37  C   UNL     1      49.756  34.880  39.284  1.00  0.00     0.002 C 
HETATM   38  C   UNL     1      49.638  36.396  39.363  1.00  0.00     0.005 C 
ENDBRANCH  35  37
ENDBRANCH  13  35
BRANCH  17  39
HETATM   39  C   UNL     1      53.081  25.363  38.306  1.00  0.00     0.016 C 
HETATM   40  C   UNL     1      52.048  24.430  38.935  1.00  0.00     0.012 C 
HETATM   41  C   UNL     1      54.468  24.725  38.336  1.00  0.00     0.012 C 
ENDBRANCH  17  39
BRANCH  18  42
HETATM   42  C   UNL     1      55.527  32.144  39.831  1.00  0.00     0.016 C 
HETATM   43  C   UNL     1      54.756  32.383  41.129  1.00  0.00     0.012 C 
HETATM   44  C   UNL     1      56.864  31.466  40.121  1.00  0.00     0.012 C 
ENDBRANCH  18  42
BRANCH  16  45
HETATM   45  C   UNL     1      52.895  29.156  35.425  1.00  0.00     0.010 C 
HETATM   46  C   UNL     1      51.497  29.773  35.408  1.00  0.00     0.012 C 
HETATM   47  C   UNL     1      52.810  27.637  35.282  1.00  0.00     0.012 C 
ENDBRANCH  16  45
TORSDOF 8
ENDMDL
MODEL 5
REMARK VINA RESULT:    -4.970      2.146      4.443
REMARK INTER + INTRA:          -6.819
REMARK INTER:                  -7.428
REMARK INTRA:                   0.609
REMARK UNBOUND:                 0.476
REMARK  8 active torsions:
REMARK  status: ('A' for Active; 'I' for Inactive)
REMARK    1  A    between atoms: C_13  and  C_15 
REMARK    2  A    between atoms: C_14  and  C_16 
REMARK    3  A    between atoms: C_15  and  C_22 
REMARK    4  A    between atoms: C_16  and  C_23 
REMARK    5  A    between atoms: C_17  and  C_21 
REMARK    6  A    between atoms: C_18  and  C_24 
REMARK    7  A    between atoms: C_19  and  C_27 
REMARK    8  A    between atoms: C_20  and  C_30 
ROOT
HETATM    1  O   UNL     1      49.869  31.443  41.362  1.00  0.00    -0.304 OA
HETATM    2  O   UNL     1      53.866  30.180  38.937  1.00  0.00    -0.304 OA
HETATM    3  O   UNL     1      51.951  26.916  40.393  1.00  0.00    -0.304 OA
HETATM    4  O   UNL     1      50.696  30.396  39.090  1.00  0.00    -0.270 OA
HETATM    5  O   UNL     1      51.801  30.953  42.524  1.00  0.00    -0.263 OA
HETATM    6  O   UNL     1      49.651  27.927  41.031  1.00  0.00    -0.270 OA
HETATM    7  O   UNL     1      54.795  30.409  36.844  1.00  0.00    -0.263 OA
HETATM    8  O   UNL     1      56.794  28.488  38.269  1.00  0.00    -0.270 OA
HETATM    9  O   UNL     1      54.044  25.992  40.685  1.00  0.00    -0.263 OA
HETATM   10  N   UNL     1      52.122  32.131  38.508  1.00  0.00    -0.340 N 
HETATM   11  N   UNL     1      50.474  28.549  43.110  1.00  0.00    -0.340 N 
HETATM   12  N   UNL     1      54.864  27.205  38.318  1.00  0.00    -0.340 N 
HETATM   13  C   UNL     1      52.626  31.401  37.321  1.00  0.00     0.190 C 
HETATM   14  C   UNL     1      49.717  29.815  43.068  1.00  0.00     0.190 C 
HETATM   15  C   UNL     1      50.579  32.339  40.485  1.00  0.00     0.227 C 
HETATM   16  C   UNL     1      53.416  27.058  38.577  1.00  0.00     0.190 C 
HETATM   17  C   UNL     1      51.589  26.749  41.780  1.00  0.00     0.227 C 
HETATM   18  C   UNL     1      54.957  29.440  39.493  1.00  0.00     0.227 C 
HETATM   19  C   UNL     1      51.136  31.531  39.306  1.00  0.00     0.250 C 
HETATM   20  C   UNL     1      50.607  30.793  42.312  1.00  0.00     0.283 C 
HETATM   21  C   UNL     1      50.469  27.768  41.945  1.00  0.00     0.250 C 
HETATM   22  C   UNL     1      53.913  30.648  37.659  1.00  0.00     0.283 C 
HETATM   23  C   UNL     1      55.619  28.348  38.624  1.00  0.00     0.250 C 
HETATM   24  C   UNL     1      53.214  26.576  40.004  1.00  0.00     0.283 C 
HETATM   25  C   UNL     1      52.761  33.418  38.803  1.00  0.00     0.153 C 
HETATM   26  C   UNL     1      51.292  28.250  44.287  1.00  0.00     0.153 C 
HETATM   27  C   UNL     1      55.558  26.076  37.697  1.00  0.00     0.153 C 
ENDROOT
BRANCH  15  28
HETATM   28  C   UNL     1      49.572  33.367  39.987  1.00  0.00     0.016 C 
HETATM   29  C   UNL     1      48.165  33.021  40.470  1.00  0.00     0.012 C 
HETATM   30  C   UNL     1      49.964  34.772  40.443  1.00  0.00     0.012 C 
ENDBRANCH  15  28
BRANCH  14  31
HETATM   31  C   UNL     1      49.318  30.415  44.410  1.00  0.00     0.014 C 
HETATM   32  C   UNL     1      49.814  31.860  44.498  1.00  0.00     0.012 C 
BRANCH  31  33
HETATM   33  C   UNL     1      47.798  30.369  44.642  1.00  0.00     0.002 C 
HETATM   34  C   UNL     1      47.408  30.290  46.111  1.00  0.00     0.005 C 
ENDBRANCH  31  33
ENDBRANCH  14  31
BRANCH  13  35
HETATM   35  C   UNL     1      52.804  32.291  36.092  1.00  0.00     0.014 C 
HETATM   36  C   UNL     1      52.857  31.427  34.829  1.00  0.00     0.012 C 
BRANCH  35  37
HETATM   37  C   UNL     1      51.684  33.339  35.959  1.00  0.00     0.002 C 
HETATM   38  C   UNL     1      51.028  33.357  34.586  1.00  0.00     0.005 C 
ENDBRANCH  35  37
ENDBRANCH  13  35
BRANCH  17  39
HETATM   39  C   UNL     1      51.074  25.341  42.022  1.00  0.00     0.016 C 
HETATM   40  C   UNL     1      49.590  25.366  42.378  1.00  0.00     0.012 C 
HETATM   41  C   UNL     1      51.879  24.658  43.126  1.00  0.00     0.012 C 
ENDBRANCH  17  39
BRANCH  18  42
HETATM   42  C   UNL     1      55.986  30.450  40.003  1.00  0.00     0.016 C 
HETATM   43  C   UNL     1      55.292  31.686  40.576  1.00  0.00     0.012 C 
HETATM   44  C   UNL     1      56.894  29.812  41.053  1.00  0.00     0.012 C 
ENDBRANCH  18  42
BRANCH  16  45
HETATM   45  C   UNL     1      52.675  26.143  37.604  1.00  0.00     0.010 C 
HETATM   46  C   UNL     1      51.552  26.901  36.898  1.00  0.00     0.012 C 
HETATM   47  C   UNL     1      52.118  24.920  38.331  1.00  0.00     0.012 C 
ENDBRANCH  16  45
TORSDOF 8
ENDMDL
MODEL 6
REMARK VINA RESULT:    -4.764      2.271      3.378
REMARK INTER + INTRA:          -6.516
REMARK INTER:                  -7.374
REMARK INTRA:                   0.858
REMARK UNBOUND:                 0.476
REMARK  8 active torsions:
REMARK  status: ('A' for Active; 'I' for Inactive)
REMARK    1  A    between atoms: C_13  and  C_15 
REMARK    2  A    between atoms: C_14  and  C_16 
REMARK    3  A    between atoms: C_15  and  C_22 
REMARK    4  A    between atoms: C_16  and  C_23 
REMARK    5  A    between atoms: C_17  and  C_21 
REMARK    6  A    between atoms: C_18  and  C_24 
REMARK    7  A    between atoms: C_19  and  C_27 
REMARK    8  A    between atoms: C_20  and  C_30 
ROOT
HETATM    1  O   UNL     1      50.054  30.286  41.778  1.00  0.00    -0.304 OA
HETATM    2  O   UNL     1      53.172  33.665  40.258  1.00  0.00    -0.304 OA
HETATM    3  O   UNL     1      53.114  30.492  37.733  1.00  0.00    -0.304 OA
HETATM    4  O   UNL     1      50.373  32.180  39.975  1.00  0.00    -0.270 OA
HETATM    5  O   UNL     1      52.308  30.034  42.205  1.00  0.00    -0.263 OA
HETATM    6  O   UNL     1      50.967  29.270  38.514  1.00  0.00    -0.270 OA
HETATM    7  O   UNL     1      53.201  35.889  39.669  1.00  0.00    -0.263 OA
HETATM    8  O   UNL     1      56.096  34.965  38.974  1.00  0.00    -0.270 OA
HETATM    9  O   UNL     1      55.365  30.884  37.414  1.00  0.00    -0.263 OA
HETATM   10  N   UNL     1      50.827  33.892  41.472  1.00  0.00    -0.340 N 
HETATM   11  N   UNL     1      52.173  28.136  40.140  1.00  0.00    -0.340 N 
HETATM   12  N   UNL     1      54.866  33.618  37.544  1.00  0.00    -0.340 N 
HETATM   13  C   UNL     1      51.120  34.852  40.382  1.00  0.00     0.190 C 
HETATM   14  C   UNL     1      51.059  28.258  41.100  1.00  0.00     0.190 C 
HETATM   15  C   UNL     1      50.071  31.635  42.286  1.00  0.00     0.227 C 
HETATM   16  C   UNL     1      53.736  32.701  37.286  1.00  0.00     0.190 C 
HETATM   17  C   UNL     1      53.323  29.127  38.153  1.00  0.00     0.227 C 
HETATM   18  C   UNL     1      54.571  33.447  40.048  1.00  0.00     0.227 C 
HETATM   19  C   UNL     1      50.440  32.585  41.141  1.00  0.00     0.250 C 
HETATM   20  C   UNL     1      51.245  29.615  41.765  1.00  0.00     0.283 C 
HETATM   21  C   UNL     1      52.046  28.831  38.928  1.00  0.00     0.250 C 
HETATM   22  C   UNL     1      52.621  34.900  40.096  1.00  0.00     0.283 C 
HETATM   23  C   UNL     1      55.235  34.094  38.812  1.00  0.00     0.250 C 
HETATM   24  C   UNL     1      54.207  31.268  37.475  1.00  0.00     0.283 C 
HETATM   25  C   UNL     1      51.041  34.374  42.841  1.00  0.00     0.153 C 
HETATM   26  C   UNL     1      53.390  27.433  40.551  1.00  0.00     0.153 C 
HETATM   27  C   UNL     1      55.654  34.062  36.393  1.00  0.00     0.153 C 
ENDROOT
BRANCH  15  28
HETATM   28  C   UNL     1      48.666  31.939  42.788  1.00  0.00     0.016 C 
HETATM   29  C   UNL     1      47.651  31.829  41.651  1.00  0.00     0.012 C 
HETATM   30  C   UNL     1      48.288  31.003  43.935  1.00  0.00     0.012 C 
ENDBRANCH  15  28
BRANCH  14  31
HETATM   31  C   UNL     1      50.955  27.174  42.164  1.00  0.00     0.014 C 
HETATM   32  C   UNL     1      50.434  27.779  43.469  1.00  0.00     0.012 C 
BRANCH  31  33
HETATM   33  C   UNL     1      50.047  26.011  41.727  1.00  0.00     0.002 C 
HETATM   34  C   UNL     1      50.812  24.803  41.205  1.00  0.00     0.005 C 
ENDBRANCH  31  33
ENDBRANCH  14  31
BRANCH  13  35
HETATM   35  C   UNL     1      50.554  36.249  40.635  1.00  0.00     0.014 C 
HETATM   36  C   UNL     1      51.686  37.208  41.010  1.00  0.00     0.012 C 
BRANCH  35  37
HETATM   37  C   UNL     1      49.786  36.800  39.420  1.00  0.00     0.002 C 
HETATM   38  C   UNL     1      50.071  36.049  38.128  1.00  0.00     0.005 C 
ENDBRANCH  35  37
ENDBRANCH  13  35
BRANCH  17  39
HETATM   39  C   UNL     1      53.440  28.218  36.943  1.00  0.00     0.016 C 
HETATM   40  C   UNL     1      52.270  27.238  36.892  1.00  0.00     0.012 C 
HETATM   41  C   UNL     1      54.769  27.465  36.964  1.00  0.00     0.012 C 
ENDBRANCH  17  39
BRANCH  18  42
HETATM   42  C   UNL     1      55.295  33.833  41.338  1.00  0.00     0.016 C 
HETATM   43  C   UNL     1      54.454  33.468  42.561  1.00  0.00     0.012 C 
HETATM   44  C   UNL     1      56.665  33.160  41.411  1.00  0.00     0.012 C 
ENDBRANCH  18  42
BRANCH  16  45
HETATM   45  C   UNL     1      53.075  32.858  35.918  1.00  0.00     0.010 C 
HETATM   46  C   UNL     1      51.612  33.276  36.069  1.00  0.00     0.012 C 
HETATM   47  C   UNL     1      53.179  31.563  35.114  1.00  0.00     0.012 C 
ENDBRANCH  16  45
TORSDOF 8
ENDMDL
MODEL 7
REMARK VINA RESULT:    -4.761      4.924     10.984
REMARK INTER + INTRA:          -6.511
REMARK INTER:                  -6.971
REMARK INTRA:                   0.459
REMARK UNBOUND:                 0.476
REMARK  8 active torsions:
REMARK  status: ('A' for Active; 'I' for Inactive)
REMARK    1  A    between atoms: C_13  and  C_15 
REMARK    2  A    between atoms: C_14  and  C_16 
REMARK    3  A    between atoms: C_15  and  C_22 
REMARK    4  A    between atoms: C_16  and  C_23 
REMARK    5  A    between atoms: C_17  and  C_21 
REMARK    6  A    between atoms: C_18  and  C_24 
REMARK    7  A    between atoms: C_19  and  C_27 
REMARK    8  A    between atoms: C_20  and  C_30 
ROOT
HETATM    1  O   UNL     1      51.029  25.601  42.412  1.00  0.00    -0.304 OA
HETATM    2  O   UNL     1      50.100  26.282  47.115  1.00  0.00    -0.304 OA
HETATM    3  O   UNL     1      48.754  29.397  44.897  1.00  0.00    -0.304 OA
HETATM    4  O   UNL     1      49.085  25.554  44.190  1.00  0.00    -0.270 OA
HETATM    5  O   UNL     1      52.413  26.959  43.663  1.00  0.00    -0.263 OA
HETATM    6  O   UNL     1      48.862  28.396  42.509  1.00  0.00    -0.270 OA
HETATM    7  O   UNL     1      48.996  25.254  48.854  1.00  0.00    -0.263 OA
HETATM    8  O   UNL     1      49.861  27.973  50.111  1.00  0.00    -0.270 OA
HETATM    9  O   UNL     1      49.315  30.735  46.690  1.00  0.00    -0.263 OA
HETATM   10  N   UNL     1      50.106  24.071  45.653  1.00  0.00    -0.340 N 
HETATM   11  N   UNL     1      51.085  29.034  42.316  1.00  0.00    -0.340 N 
HETATM   12  N   UNL     1      48.473  28.714  48.408  1.00  0.00    -0.340 N 
HETATM   13  C   UNL     1      49.023  24.216  46.654  1.00  0.00     0.190 C 
HETATM   14  C   UNL     1      51.416  27.786  41.601  1.00  0.00     0.190 C 
HETATM   15  C   UNL     1      51.109  24.550  43.396  1.00  0.00     0.227 C 
HETATM   16  C   UNL     1      48.025  28.682  47.000  1.00  0.00     0.190 C 
HETATM   17  C   UNL     1      49.577  30.142  43.973  1.00  0.00     0.227 C 
HETATM   18  C   UNL     1      50.564  27.396  47.885  1.00  0.00     0.227 C 
HETATM   19  C   UNL     1      50.013  24.777  44.444  1.00  0.00     0.250 C 
HETATM   20  C   UNL     1      51.700  26.759  42.689  1.00  0.00     0.283 C 
HETATM   21  C   UNL     1      49.793  29.134  42.852  1.00  0.00     0.250 C 
HETATM   22  C   UNL     1      49.393  25.273  47.696  1.00  0.00     0.283 C 
HETATM   23  C   UNL     1      49.597  28.035  48.905  1.00  0.00     0.250 C 
HETATM   24  C   UNL     1      48.777  29.746  46.216  1.00  0.00     0.283 C 
HETATM   25  C   UNL     1      51.250  23.241  46.044  1.00  0.00     0.153 C 
HETATM   26  C   UNL     1      52.143  30.019  42.551  1.00  0.00     0.153 C 
HETATM   27  C   UNL     1      47.686  29.511  49.350  1.00  0.00     0.153 C 
ENDROOT
BRANCH  15  28
HETATM   28  C   UNL     1      50.871  23.236  42.664  1.00  0.00     0.016 C 
HETATM   29  C   UNL     1      50.382  23.492  41.240  1.00  0.00     0.012 C 
HETATM   30  C   UNL     1      52.143  22.389  42.649  1.00  0.00     0.012 C 
ENDBRANCH  15  28
BRANCH  14  31
HETATM   31  C   UNL     1      52.589  27.847  40.632  1.00  0.00     0.014 C 
HETATM   32  C   UNL     1      53.199  26.453  40.470  1.00  0.00     0.012 C 
BRANCH  31  33
HETATM   33  C   UNL     1      52.182  28.402  39.255  1.00  0.00     0.002 C 
HETATM   34  C   UNL     1      51.818  27.321  38.246  1.00  0.00     0.005 C 
ENDBRANCH  31  33
ENDBRANCH  14  31
BRANCH  13  35
HETATM   35  C   UNL     1      48.625  22.896  47.313  1.00  0.00     0.014 C 
HETATM   36  C   UNL     1      47.215  23.014  47.898  1.00  0.00     0.012 C 
BRANCH  35  37
HETATM   37  C   UNL     1      48.684  21.710  46.333  1.00  0.00     0.002 C 
HETATM   38  C   UNL     1      49.043  20.389  46.998  1.00  0.00     0.005 C 
ENDBRANCH  35  37
ENDBRANCH  13  35
BRANCH  17  39
HETATM   39  C   UNL     1      48.826  31.359  43.465  1.00  0.00     0.016 C 
HETATM   40  C   UNL     1      48.402  31.159  42.012  1.00  0.00     0.012 C 
HETATM   41  C   UNL     1      49.682  32.616  43.606  1.00  0.00     0.012 C 
ENDBRANCH  17  39
BRANCH  18  42
HETATM   42  C   UNL     1      51.880  26.983  48.545  1.00  0.00     0.016 C 
HETATM   43  C   UNL     1      52.688  26.074  47.619  1.00  0.00     0.012 C 
HETATM   44  C   UNL     1      52.698  28.212  48.935  1.00  0.00     0.012 C 
ENDBRANCH  18  42
BRANCH  16  45
HETATM   45  C   UNL     1      46.520  28.847  46.796  1.00  0.00     0.010 C 
HETATM   46  C   UNL     1      45.883  27.521  46.382  1.00  0.00     0.012 C 
HETATM   47  C   UNL     1      46.231  29.927  45.754  1.00  0.00     0.012 C 
ENDBRANCH  16  45
TORSDOF 8
ENDMDL
MODEL 8
REMARK VINA RESULT:    -4.752      5.817     11.664
REMARK INTER + INTRA:          -6.498
REMARK INTER:                  -7.450
REMARK INTRA:                   0.951
REMARK UNBOUND:                 0.476
REMARK  8 active torsions:
REMARK  status: ('A' for Active; 'I' for Inactive)
REMARK    1  A    between atoms: C_13  and  C_15 
REMARK    2  A    between atoms: C_14  and  C_16 
REMARK    3  A    between atoms: C_15  and  C_22 
REMARK    4  A    between atoms: C_16  and  C_23 
REMARK    5  A    between atoms: C_17  and  C_21 
REMARK    6  A    between atoms: C_18  and  C_24 
REMARK    7  A    between atoms: C_19  and  C_27 
REMARK    8  A    between atoms: C_20  and  C_30 
ROOT
HETATM    1  O   UNL     1      49.331  28.340  43.276  1.00  0.00    -0.304 OA
HETATM    2  O   UNL     1      51.201  24.955  46.191  1.00  0.00    -0.304 OA
HETATM    3  O   UNL     1      47.980  26.732  47.898  1.00  0.00    -0.304 OA
HETATM    4  O   UNL     1      48.923  25.900  44.182  1.00  0.00    -0.270 OA
HETATM    5  O   UNL     1      50.722  28.967  45.008  1.00  0.00    -0.263 OA
HETATM    6  O   UNL     1      46.946  27.956  45.861  1.00  0.00    -0.270 OA
HETATM    7  O   UNL     1      51.686  22.705  46.184  1.00  0.00    -0.263 OA
HETATM    8  O   UNL     1      52.296  23.522  49.130  1.00  0.00    -0.270 OA
HETATM    9  O   UNL     1      49.075  26.462  49.911  1.00  0.00    -0.263 OA
HETATM   10  N   UNL     1      50.982  25.040  43.551  1.00  0.00    -0.340 N 
HETATM   11  N   UNL     1      48.328  29.784  46.227  1.00  0.00    -0.340 N 
HETATM   12  N   UNL     1      50.031  24.008  49.014  1.00  0.00    -0.340 N 
HETATM   13  C   UNL     1      50.711  23.740  44.210  1.00  0.00     0.190 C 
HETATM   14  C   UNL     1      48.516  29.975  44.775  1.00  0.00     0.190 C 
HETATM   15  C   UNL     1      50.273  27.344  42.831  1.00  0.00     0.227 C 
HETATM   16  C   UNL     1      48.874  24.614  48.324  1.00  0.00     0.190 C 
HETATM   17  C   UNL     1      47.844  28.160  48.065  1.00  0.00     0.227 C 
HETATM   18  C   UNL     1      51.683  25.197  47.516  1.00  0.00     0.227 C 
HETATM   19  C   UNL     1      49.997  26.038  43.585  1.00  0.00     0.250 C 
HETATM   20  C   UNL     1      49.667  29.054  44.393  1.00  0.00     0.283 C 
HETATM   21  C   UNL     1      47.638  28.632  46.631  1.00  0.00     0.250 C 
HETATM   22  C   UNL     1      51.298  23.722  45.622  1.00  0.00     0.283 C 
HETATM   23  C   UNL     1      51.369  24.154  48.612  1.00  0.00     0.250 C 
HETATM   24  C   UNL     1      48.674  26.030  48.840  1.00  0.00     0.283 C 
HETATM   25  C   UNL     1      52.316  25.209  42.964  1.00  0.00     0.153 C 
HETATM   26  C   UNL     1      48.982  30.710  47.155  1.00  0.00     0.153 C 
HETATM   27  C   UNL     1      49.762  23.196  50.202  1.00  0.00     0.153 C 
ENDROOT
BRANCH  15  28
HETATM   28  C   UNL     1      50.042  27.147  41.339  1.00  0.00     0.016 C 
HETATM   29  C   UNL     1      48.941  28.079  40.836  1.00  0.00     0.012 C 
HETATM   30  C   UNL     1      51.335  27.376  40.558  1.00  0.00     0.012 C 
ENDBRANCH  15  28
BRANCH  14  31
HETATM   31  C   UNL     1      48.815  31.393  44.308  1.00  0.00     0.014 C 
HETATM   32  C   UNL     1      50.328  31.593  44.199  1.00  0.00     0.012 C 
BRANCH  31  33
HETATM   33  C   UNL     1      48.147  31.717  42.960  1.00  0.00     0.002 C 
HETATM   34  C   UNL     1      49.119  31.740  41.788  1.00  0.00     0.005 C 
ENDBRANCH  31  33
ENDBRANCH  14  31
BRANCH  13  35
HETATM   35  C   UNL     1      51.178  22.536  43.394  1.00  0.00     0.014 C 
HETATM   36  C   UNL     1      50.621  21.248  44.005  1.00  0.00     0.012 C 
BRANCH  35  37
HETATM   37  C   UNL     1      50.761  22.633  41.915  1.00  0.00     0.002 C 
HETATM   38  C   UNL     1      51.732  21.949  40.963  1.00  0.00     0.005 C 
ENDBRANCH  35  37
ENDBRANCH  13  35
BRANCH  17  39
HETATM   39  C   UNL     1      46.627  28.475  48.915  1.00  0.00     0.016 C 
HETATM   40  C   UNL     1      45.614  29.294  48.119  1.00  0.00     0.012 C 
HETATM   41  C   UNL     1      47.037  29.217  50.185  1.00  0.00     0.012 C 
ENDBRANCH  17  39
BRANCH  18  42
HETATM   42  C   UNL     1      53.185  25.468  47.417  1.00  0.00     0.016 C 
HETATM   43  C   UNL     1      53.514  26.229  46.132  1.00  0.00     0.012 C 
HETATM   44  C   UNL     1      53.676  26.244  48.638  1.00  0.00     0.012 C 
ENDBRANCH  18  42
BRANCH  16  45
HETATM   45  C   UNL     1      47.569  23.827  48.435  1.00  0.00     0.010 C 
HETATM   46  C   UNL     1      47.388  22.907  47.228  1.00  0.00     0.012 C 
HETATM   47  C   UNL     1      46.377  24.773  48.569  1.00  0.00     0.012 C 
ENDBRANCH  16  45
TORSDOF 8
ENDMDL
MODEL 9
REMARK VINA RESULT:    -4.630      6.357     12.456
REMARK INTER + INTRA:          -6.320
REMARK INTER:                  -6.739
REMARK INTRA:                   0.419
REMARK UNBOUND:                 0.476
REMARK  8 active torsions:
REMARK  status: ('A' for Active; 'I' for Inactive)
REMARK    1  A    between atoms: C_13  and  C_15 
REMARK    2  A    between atoms: C_14  and  C_16 
REMARK    3  A    between atoms: C_15  and  C_22 
REMARK    4  A    between atoms: C_16  and  C_23 
REMARK    5  A    between atoms: C_17  and  C_21 
REMARK    6  A    between atoms: C_18  and  C_24 
REMARK    7  A    between atoms: C_19  and  C_27 
REMARK    8  A    between atoms: C_20  and  C_30 
ROOT
HETATM    1  O   UNL     1      49.632  27.148  43.580  1.00  0.00    -0.304 OA
HETATM    2  O   UNL     1      50.850  24.016  47.067  1.00  0.00    -0.304 OA
HETATM    3  O   UNL     1      47.821  26.429  48.267  1.00  0.00    -0.304 OA
HETATM    4  O   UNL     1      48.839  24.942  44.783  1.00  0.00    -0.270 OA
HETATM    5  O   UNL     1      51.000  27.837  45.307  1.00  0.00    -0.263 OA
HETATM    6  O   UNL     1      47.080  27.463  46.010  1.00  0.00    -0.270 OA
HETATM    7  O   UNL     1      51.016  21.745  47.408  1.00  0.00    -0.263 OA
HETATM    8  O   UNL     1      51.572  22.901  50.249  1.00  0.00    -0.270 OA
HETATM    9  O   UNL     1      48.755  26.319  50.373  1.00  0.00    -0.263 OA
HETATM   10  N   UNL     1      50.790  23.737  44.431  1.00  0.00    -0.340 N 
HETATM   11  N   UNL     1      48.681  29.130  46.219  1.00  0.00    -0.340 N 
HETATM   12  N   UNL     1      49.408  23.655  49.900  1.00  0.00    -0.340 N 
HETATM   13  C   UNL     1      50.305  22.596  45.243  1.00  0.00     0.190 C 
HETATM   14  C   UNL     1      48.973  29.078  44.773  1.00  0.00     0.190 C 
HETATM   15  C   UNL     1      50.449  25.983  43.349  1.00  0.00     0.227 C 
HETATM   16  C   UNL     1      48.385  24.298  49.048  1.00  0.00     0.190 C 
HETATM   17  C   UNL     1      47.876  27.871  48.224  1.00  0.00     0.227 C 
HETATM   18  C   UNL     1      51.289  24.385  48.378  1.00  0.00     0.227 C 
HETATM   19  C   UNL     1      49.953  24.849  44.254  1.00  0.00     0.250 C 
HETATM   20  C   UNL     1      50.004  27.968  44.609  1.00  0.00     0.283 C 
HETATM   21  C   UNL     1      47.816  28.149  46.728  1.00  0.00     0.250 C 
HETATM   22  C   UNL     1      50.806  22.709  46.683  1.00  0.00     0.283 C 
HETATM   23  C   UNL     1      50.772  23.566  49.581  1.00  0.00     0.250 C 
HETATM   24  C   UNL     1      48.357  25.789  49.347  1.00  0.00     0.283 C 
HETATM   25  C   UNL     1      52.164  23.643  43.927  1.00  0.00     0.153 C 
HETATM   26  C   UNL     1      49.406  30.089  47.056  1.00  0.00     0.153 C 
HETATM   27  C   UNL     1      48.964  23.069  51.165  1.00  0.00     0.153 C 
ENDROOT
BRANCH  15  28
HETATM   28  C   UNL     1      50.274  25.600  41.885  1.00  0.00     0.016 C 
HETATM   29  C   UNL     1      49.171  26.434  41.237  1.00  0.00     0.012 C 
HETATM   30  C   UNL     1      51.588  25.767  41.123  1.00  0.00     0.012 C 
ENDBRANCH  15  28
BRANCH  14  31
HETATM   31  C   UNL     1      49.492  30.360  44.137  1.00  0.00     0.014 C 
HETATM   32  C   UNL     1      50.323  30.023  42.897  1.00  0.00     0.012 C 
BRANCH  31  33
HETATM   33  C   UNL     1      48.355  31.325  43.757  1.00  0.00     0.002 C 
HETATM   34  C   UNL     1      48.478  31.886  42.347  1.00  0.00     0.005 C 
ENDBRANCH  31  33
ENDBRANCH  14  31
BRANCH  13  35
HETATM   35  C   UNL     1      50.642  21.234  44.638  1.00  0.00     0.014 C 
HETATM   36  C   UNL     1      49.582  20.208  45.046  1.00  0.00     0.012 C 
BRANCH  35  37
HETATM   37  C   UNL     1      50.754  21.285  43.103  1.00  0.00     0.002 C 
HETATM   38  C   UNL     1      51.638  20.192  42.521  1.00  0.00     0.005 C 
ENDBRANCH  35  37
ENDBRANCH  13  35
BRANCH  17  39
HETATM   39  C   UNL     1      46.670  28.464  48.930  1.00  0.00     0.016 C 
HETATM   40  C   UNL     1      45.874  29.352  47.977  1.00  0.00     0.012 C 
HETATM   41  C   UNL     1      47.105  29.254  50.163  1.00  0.00     0.012 C 
ENDBRANCH  17  39
BRANCH  18  42
HETATM   42  C   UNL     1      52.817  24.441  48.353  1.00  0.00     0.016 C 
HETATM   43  C   UNL     1      53.317  24.966  47.008  1.00  0.00     0.012 C 
HETATM   44  C   UNL     1      53.344  25.308  49.495  1.00  0.00     0.012 C 
ENDBRANCH  18  42
BRANCH  16  45
HETATM   45  C   UNL     1      46.980  23.713  49.170  1.00  0.00     0.010 C 
HETATM   46  C   UNL     1      46.470  23.241  47.809  1.00  0.00     0.012 C 
HETATM   47  C   UNL     1      46.019  24.736  49.775  1.00  0.00     0.012 C 
ENDBRANCH  16  45
TORSDOF 8
ENDMDL
MODEL 10
REMARK VINA RESULT:    -4.556      4.165      8.197
REMARK INTER + INTRA:          -6.211
REMARK INTER:                  -6.535
REMARK INTRA:                   0.324
REMARK UNBOUND:                 0.476
REMARK  8 active torsions:
REMARK  status: ('A' for Active; 'I' for Inactive)
REMARK    1  A    between atoms: C_13  and  C_15 
REMARK    2  A    between atoms: C_14  and  C_16 
REMARK    3  A    between atoms: C_15  and  C_22 
REMARK    4  A    between atoms: C_16  and  C_23 
REMARK    5  A    between atoms: C_17  and  C_21 
REMARK    6  A    between atoms: C_18  and  C_24 
REMARK    7  A    between atoms: C_19  and  C_27 
REMARK    8  A    between atoms: C_20  and  C_30 
ROOT
HETATM    1  O   UNL     1      50.294  25.432  44.618  1.00  0.00    -0.304 OA
HETATM    2  O   UNL     1      50.218  30.112  45.863  1.00  0.00    -0.304 OA
HETATM    3  O   UNL     1      50.650  29.675  41.855  1.00  0.00    -0.304 OA
HETATM    4  O   UNL     1      48.771  27.582  44.588  1.00  0.00    -0.270 OA
HETATM    5  O   UNL     1      52.278  26.595  44.807  1.00  0.00    -0.263 OA
HETATM    6  O   UNL     1      50.027  27.178  41.552  1.00  0.00    -0.270 OA
HETATM    7  O   UNL     1      48.855  31.620  46.942  1.00  0.00    -0.263 OA
HETATM    8  O   UNL     1      51.153  33.431  45.866  1.00  0.00    -0.270 OA
HETATM    9  O   UNL     1      51.975  31.562  41.934  1.00  0.00    -0.263 OA
HETATM   10  N   UNL     1      48.911  28.032  46.859  1.00  0.00    -0.340 N 
HETATM   11  N   UNL     1      52.216  26.552  42.001  1.00  0.00    -0.340 N 
HETATM   12  N   UNL     1      50.285  32.618  43.875  1.00  0.00    -0.340 N 
HETATM   13  C   UNL     1      48.157  29.300  46.717  1.00  0.00     0.190 C 
HETATM   14  C   UNL     1      51.758  25.375  42.764  1.00  0.00     0.190 C 
HETATM   15  C   UNL     1      49.853  25.902  45.907  1.00  0.00     0.227 C 
HETATM   16  C   UNL     1      49.796  31.501  43.040  1.00  0.00     0.190 C 
HETATM   17  C   UNL     1      51.681  28.873  41.240  1.00  0.00     0.227 C 
HETATM   18  C   UNL     1      51.269  31.044  45.591  1.00  0.00     0.227 C 
HETATM   19  C   UNL     1      49.136  27.245  45.720  1.00  0.00     0.250 C 
HETATM   20  C   UNL     1      51.507  25.883  44.178  1.00  0.00     0.283 C 
HETATM   21  C   UNL     1      51.231  27.458  41.580  1.00  0.00     0.250 C 
HETATM   22  C   UNL     1      49.116  30.482  46.571  1.00  0.00     0.283 C 
HETATM   23  C   UNL     1      50.883  32.470  45.137  1.00  0.00     0.250 C 
HETATM   24  C   UNL     1      50.952  30.957  42.215  1.00  0.00     0.283 C 
HETATM   25  C   UNL     1      49.436  27.730  48.195  1.00  0.00     0.153 C 
HETATM   26  C   UNL     1      53.654  26.785  41.850  1.00  0.00     0.153 C 
HETATM   27  C   UNL     1      50.131  33.975  43.349  1.00  0.00     0.153 C 
ENDROOT
BRANCH  15  28
HETATM   28  C   UNL     1      48.884  24.862  46.453  1.00  0.00     0.016 C 
HETATM   29  C   UNL     1      48.617  23.775  45.413  1.00  0.00     0.012 C 
HETATM   30  C   UNL     1      49.423  24.246  47.743  1.00  0.00     0.012 C 
ENDBRANCH  15  28
BRANCH  14  31
HETATM   31  C   UNL     1      52.702  24.181  42.806  1.00  0.00     0.014 C 
HETATM   32  C   UNL     1      52.425  23.346  44.058  1.00  0.00     0.012 C 
BRANCH  31  33
HETATM   33  C   UNL     1      52.584  23.298  41.552  1.00  0.00     0.002 C 
HETATM   34  C   UNL     1      53.926  22.945  40.926  1.00  0.00     0.005 C 
ENDBRANCH  31  33
ENDBRANCH  14  31
BRANCH  13  35
HETATM   35  C   UNL     1      47.146  29.534  47.840  1.00  0.00     0.014 C 
HETATM   36  C   UNL     1      45.986  30.388  47.323  1.00  0.00     0.012 C 
BRANCH  35  37
HETATM   37  C   UNL     1      46.603  28.218  48.425  1.00  0.00     0.002 C 
HETATM   38  C   UNL     1      45.598  27.519  47.522  1.00  0.00     0.005 C 
ENDBRANCH  35  37
ENDBRANCH  13  35
BRANCH  17  39
HETATM   39  C   UNL     1      51.687  29.087  39.737  1.00  0.00     0.016 C 
HETATM   40  C   UNL     1      51.363  27.786  39.008  1.00  0.00     0.012 C 
HETATM   41  C   UNL     1      53.036  29.638  39.279  1.00  0.00     0.012 C 
ENDBRANCH  17  39
BRANCH  18  42
HETATM   42  C   UNL     1      52.185  31.076  46.815  1.00  0.00     0.016 C 
HETATM   43  C   UNL     1      52.301  29.685  47.439  1.00  0.00     0.012 C 
HETATM   44  C   UNL     1      53.566  31.611  46.442  1.00  0.00     0.012 C 
ENDBRANCH  18  42
BRANCH  16  45
HETATM   45  C   UNL     1      48.618  31.842  42.129  1.00  0.00     0.010 C 
HETATM   46  C   UNL     1      47.460  30.871  42.357  1.00  0.00     0.012 C 
HETATM   47  C   UNL     1      49.046  31.827  40.662  1.00  0.00     0.012 C 
ENDBRANCH  16  45
TORSDOF 8
ENDMDL
MODEL 11
REMARK VINA RESULT:    -4.502      5.561     10.543
REMARK INTER + INTRA:          -6.132
REMARK INTER:                  -6.406
REMARK INTRA:                   0.274
REMARK UNBOUND:                 0.476
REMARK  8 active torsions:
REMARK  status: ('A' for Active; 'I' for Inactive)
REMARK    1  A    between atoms: C_13  and  C_15 
REMARK    2  A    between atoms: C_14  and  C_16 
REMARK    3  A    between atoms: C_15  and  C_22 
REMARK    4  A    between atoms: C_16  and  C_23 
REMARK    5  A    between atoms: C_17  and  C_21 
REMARK    6  A    between atoms: C_18  and  C_24 
REMARK    7  A    between atoms: C_19  and  C_27 
REMARK    8  A    between atoms: C_20  and  C_30 
ROOT
HETATM    1  O   UNL     1      55.213  34.258  39.371  1.00  0.00    -0.304 OA
HETATM    2  O   UNL     1      52.521  35.527  43.191  1.00  0.00    -0.304 OA
HETATM    3  O   UNL     1      54.400  38.747  41.596  1.00  0.00    -0.304 OA
HETATM    4  O   UNL     1      52.959  35.446  40.041  1.00  0.00    -0.270 OA
HETATM    5  O   UNL     1      56.219  34.561  41.426  1.00  0.00    -0.263 OA
HETATM    6  O   UNL     1      55.175  37.795  39.314  1.00  0.00    -0.270 OA
HETATM    7  O   UNL     1      50.337  35.427  43.911  1.00  0.00    -0.263 OA
HETATM    8  O   UNL     1      51.707  37.130  46.133  1.00  0.00    -0.270 OA
HETATM    9  O   UNL     1      54.560  39.545  43.755  1.00  0.00    -0.263 OA
HETATM   10  N   UNL     1      52.112  33.701  41.313  1.00  0.00    -0.340 N 
HETATM   11  N   UNL     1      57.112  36.968  40.289  1.00  0.00    -0.340 N 
HETATM   12  N   UNL     1      52.039  38.493  44.288  1.00  0.00    -0.340 N 
HETATM   13  C   UNL     1      50.942  34.501  41.744  1.00  0.00     0.190 C 
HETATM   14  C   UNL     1      57.045  35.746  39.465  1.00  0.00     0.190 C 
HETATM   15  C   UNL     1      54.205  33.404  39.949  1.00  0.00     0.227 C 
HETATM   16  C   UNL     1      52.446  38.685  42.880  1.00  0.00     0.190 C 
HETATM   17  C   UNL     1      55.824  38.817  41.373  1.00  0.00     0.227 C 
HETATM   18  C   UNL     1      53.025  36.168  44.367  1.00  0.00     0.227 C 
HETATM   19  C   UNL     1      53.045  34.278  40.438  1.00  0.00     0.250 C 
HETATM   20  C   UNL     1      56.135  34.793  40.227  1.00  0.00     0.283 C 
HETATM   21  C   UNL     1      56.016  37.841  40.219  1.00  0.00     0.250 C 
HETATM   22  C   UNL     1      51.212  35.163  43.096  1.00  0.00     0.283 C 
HETATM   23  C   UNL     1      52.183  37.295  45.005  1.00  0.00     0.250 C 
HETATM   24  C   UNL     1      53.919  39.059  42.835  1.00  0.00     0.283 C 
HETATM   25  C   UNL     1      52.245  32.366  41.905  1.00  0.00     0.153 C 
HETATM   26  C   UNL     1      58.225  37.132  41.227  1.00  0.00     0.153 C 
HETATM   27  C   UNL     1      51.443  39.635  44.981  1.00  0.00     0.153 C 
ENDROOT
BRANCH  15  28
HETATM   28  C   UNL     1      53.728  32.468  38.846  1.00  0.00     0.016 C 
HETATM   29  C   UNL     1      54.088  33.027  37.471  1.00  0.00     0.012 C 
HETATM   30  C   UNL     1      54.323  31.072  39.029  1.00  0.00     0.012 C 
ENDBRANCH  15  28
BRANCH  14  31
HETATM   31  C   UNL     1      58.369  35.059  39.159  1.00  0.00     0.014 C 
HETATM   32  C   UNL     1      58.118  33.595  38.787  1.00  0.00     0.012 C 
BRANCH  31  33
HETATM   33  C   UNL     1      59.145  35.759  38.029  1.00  0.00     0.002 C 
HETATM   34  C   UNL     1      59.272  34.919  36.766  1.00  0.00     0.005 C 
ENDBRANCH  31  33
ENDBRANCH  14  31
BRANCH  13  35
HETATM   35  C   UNL     1      49.636  33.707  41.761  1.00  0.00     0.014 C 
HETATM   36  C   UNL     1      48.444  34.667  41.732  1.00  0.00     0.012 C 
BRANCH  35  37
HETATM   37  C   UNL     1      49.536  32.718  40.585  1.00  0.00     0.002 C 
HETATM   38  C   UNL     1      49.593  33.388  39.220  1.00  0.00     0.005 C 
ENDBRANCH  35  37
ENDBRANCH  13  35
BRANCH  17  39
HETATM   39  C   UNL     1      56.222  40.223  40.959  1.00  0.00     0.016 C 
HETATM   40  C   UNL     1      56.898  40.208  39.591  1.00  0.00     0.012 C 
HETATM   41  C   UNL     1      57.141  40.850  42.006  1.00  0.00     0.012 C 
ENDBRANCH  17  39
BRANCH  18  42
HETATM   42  C   UNL     1      53.355  35.073  45.382  1.00  0.00     0.016 C 
HETATM   43  C   UNL     1      53.898  33.829  44.679  1.00  0.00     0.012 C 
HETATM   44  C   UNL     1      54.357  35.581  46.418  1.00  0.00     0.012 C 
ENDBRANCH  18  42
BRANCH  16  45
HETATM   45  C   UNL     1      51.622  39.710  42.102  1.00  0.00     0.010 C 
HETATM   46  C   UNL     1      50.975  39.066  40.877  1.00  0.00     0.012 C 
HETATM   47  C   UNL     1      52.489  40.898  41.686  1.00  0.00     0.012 C 
ENDBRANCH  16  45
TORSDOF 8
ENDMDL
MODEL 12
REMARK VINA RESULT:    -4.456      2.375      8.102
REMARK INTER + INTRA:          -6.065
REMARK INTER:                  -7.014
REMARK INTRA:                   0.949
REMARK UNBOUND:                 0.476
REMARK  8 active torsions:
REMARK  status: ('A' for Active; 'I' for Inactive)
REMARK    1  A    between atoms: C_13  and  C_15 
REMARK    2  A    between atoms: C_14  and  C_16 
REMARK    3  A    between atoms: C_15  and  C_22 
REMARK    4  A    between atoms: C_16  and  C_23 
REMARK    5  A    between atoms: C_17  and  C_21 
REMARK    6  A    between atoms: C_18  and  C_24 
REMARK    7  A    between atoms: C_19  and  C_27 
REMARK    8  A    between atoms: C_20  and  C_30 
ROOT
HETATM    1  O   UNL     1      51.653  29.147  37.203  1.00  0.00    -0.304 OA
HETATM    2  O   UNL     1      53.910  25.337  39.161  1.00  0.00    -0.304 OA
HETATM    3  O   UNL     1      51.292  26.986  41.781  1.00  0.00    -0.304 OA
HETATM    4  O   UNL     1      51.301  26.624  37.876  1.00  0.00    -0.270 OA
HETATM    5  O   UNL     1      53.442  29.485  38.621  1.00  0.00    -0.263 OA
HETATM    6  O   UNL     1      49.903  28.509  40.211  1.00  0.00    -0.270 OA
HETATM    7  O   UNL     1      54.229  23.092  38.767  1.00  0.00    -0.263 OA
HETATM    8  O   UNL     1      55.550  23.484  41.563  1.00  0.00    -0.270 OA
HETATM    9  O   UNL     1      52.797  26.410  43.432  1.00  0.00    -0.263 OA
HETATM   10  N   UNL     1      53.099  25.781  36.677  1.00  0.00    -0.340 N 
HETATM   11  N   UNL     1      51.451  30.219  40.459  1.00  0.00    -0.340 N 
HETATM   12  N   UNL     1      53.358  24.063  42.044  1.00  0.00    -0.340 N 
HETATM   13  C   UNL     1      52.900  24.416  37.219  1.00  0.00     0.190 C 
HETATM   14  C   UNL     1      51.314  30.595  39.038  1.00  0.00     0.190 C 
HETATM   15  C   UNL     1      52.399  28.185  36.431  1.00  0.00     0.227 C 
HETATM   16  C   UNL     1      52.116  24.798  41.724  1.00  0.00     0.190 C 
HETATM   17  C   UNL     1      51.293  28.383  42.148  1.00  0.00     0.227 C 
HETATM   18  C   UNL     1      54.698  25.381  40.355  1.00  0.00     0.227 C 
HETATM   19  C   UNL     1      52.216  26.801  37.064  1.00  0.00     0.250 C 
HETATM   20  C   UNL     1      52.283  29.692  38.287  1.00  0.00     0.283 C 
HETATM   21  C   UNL     1      50.797  29.049  40.872  1.00  0.00     0.250 C 
HETATM   22  C   UNL     1      53.792  24.187  38.439  1.00  0.00     0.283 C 
HETATM   23  C   UNL     1      54.574  24.214  41.358  1.00  0.00     0.250 C 
HETATM   24  C   UNL     1      52.134  26.139  42.442  1.00  0.00     0.283 C 
HETATM   25  C   UNL     1      54.271  25.978  35.818  1.00  0.00     0.153 C 
HETATM   26  C   UNL     1      52.360  30.988  41.312  1.00  0.00     0.153 C 
HETATM   27  C   UNL     1      53.314  23.111  43.153  1.00  0.00     0.153 C 
ENDROOT
BRANCH  15  28
HETATM   28  C   UNL     1      51.820  28.198  35.022  1.00  0.00     0.016 C 
HETATM   29  C   UNL     1      50.654  27.218  34.910  1.00  0.00     0.012 C 
HETATM   30  C   UNL     1      51.373  29.607  34.636  1.00  0.00     0.012 C 
ENDBRANCH  15  28
BRANCH  14  31
HETATM   31  C   UNL     1      51.592  32.051  38.690  1.00  0.00     0.014 C 
HETATM   32  C   UNL     1      51.940  32.169  37.204  1.00  0.00     0.012 C 
BRANCH  31  33
HETATM   33  C   UNL     1      50.402  32.969  39.022  1.00  0.00     0.002 C 
HETATM   34  C   UNL     1      50.454  34.315  38.312  1.00  0.00     0.005 C 
ENDBRANCH  31  33
ENDBRANCH  14  31
BRANCH  13  35
HETATM   35  C   UNL     1      53.085  23.316  36.175  1.00  0.00     0.014 C 
HETATM   36  C   UNL     1      52.682  21.964  36.770  1.00  0.00     0.012 C 
BRANCH  35  37
HETATM   37  C   UNL     1      52.278  23.581  34.892  1.00  0.00     0.002 C 
HETATM   38  C   UNL     1      52.695  22.706  33.719  1.00  0.00     0.005 C 
ENDBRANCH  35  37
ENDBRANCH  13  35
BRANCH  17  39
HETATM   39  C   UNL     1      50.327  28.626  43.293  1.00  0.00     0.016 C 
HETATM   40  C   UNL     1      49.257  29.636  42.887  1.00  0.00     0.012 C 
HETATM   41  C   UNL     1      51.076  29.107  44.534  1.00  0.00     0.012 C 
ENDBRANCH  17  39
BRANCH  18  42
HETATM   42  C   UNL     1      56.152  25.608  39.938  1.00  0.00     0.016 C 
HETATM   43  C   UNL     1      56.229  26.536  38.726  1.00  0.00     0.012 C 
HETATM   44  C   UNL     1      56.964  26.177  41.099  1.00  0.00     0.012 C 
ENDBRANCH  18  42
BRANCH  16  45
HETATM   45  C   UNL     1      50.822  24.052  42.044  1.00  0.00     0.010 C 
HETATM   46  C   UNL     1      50.582  22.929  41.035  1.00  0.00     0.012 C 
HETATM   47  C   UNL     1      49.634  25.013  42.065  1.00  0.00     0.012 C 
ENDBRANCH  16  45
TORSDOF 8
ENDMDL
MODEL 13
REMARK VINA RESULT:    -4.435      5.024      7.851
REMARK INTER + INTRA:          -6.034
REMARK INTER:                  -7.125
REMARK INTRA:                   1.092
REMARK UNBOUND:                 0.476
REMARK  8 active torsions:
REMARK  status: ('A' for Active; 'I' for Inactive)
REMARK    1  A    between atoms: C_13  and  C_15 
REMARK    2  A    between atoms: C_14  and  C_16 
REMARK    3  A    between atoms: C_15  and  C_22 
REMARK    4  A    between atoms: C_16  and  C_23 
REMARK    5  A    between atoms: C_17  and  C_21 
REMARK    6  A    between atoms: C_18  and  C_24 
REMARK    7  A    between atoms: C_19  and  C_27 
REMARK    8  A    between atoms: C_20  and  C_30 
ROOT
HETATM    1  O   UNL     1      47.941  27.871  47.577  1.00  0.00    -0.304 OA
HETATM    2  O   UNL     1      51.174  29.396  44.310  1.00  0.00    -0.304 OA
HETATM    3  O   UNL     1      50.639  25.384  44.070  1.00  0.00    -0.304 OA
HETATM    4  O   UNL     1      48.251  28.351  45.006  1.00  0.00    -0.270 OA
HETATM    5  O   UNL     1      50.197  27.646  48.012  1.00  0.00    -0.263 OA
HETATM    6  O   UNL     1      48.478  25.082  45.468  1.00  0.00    -0.270 OA
HETATM    7  O   UNL     1      51.330  30.870  42.549  1.00  0.00    -0.263 OA
HETATM    8  O   UNL     1      54.068  29.386  42.436  1.00  0.00    -0.270 OA
HETATM    9  O   UNL     1      52.877  25.259  43.525  1.00  0.00    -0.263 OA
HETATM   10  N   UNL     1      48.972  30.545  45.235  1.00  0.00    -0.340 N 
HETATM   11  N   UNL     1      49.729  24.943  47.417  1.00  0.00    -0.340 N 
HETATM   12  N   UNL     1      52.613  27.618  42.073  1.00  0.00    -0.340 N 
HETATM   13  C   UNL     1      49.243  30.673  43.783  1.00  0.00     0.190 C 
HETATM   14  C   UNL     1      48.717  25.717  48.162  1.00  0.00     0.190 C 
HETATM   15  C   UNL     1      48.111  29.257  47.218  1.00  0.00     0.227 C 
HETATM   16  C   UNL     1      51.394  26.856  42.418  1.00  0.00     0.190 C 
HETATM   17  C   UNL     1      50.774  24.486  45.193  1.00  0.00     0.227 C 
HETATM   18  C   UNL     1      52.527  28.937  44.227  1.00  0.00     0.227 C 
HETATM   19  C   UNL     1      48.453  29.337  45.725  1.00  0.00     0.250 C 
HETATM   20  C   UNL     1      49.069  27.179  47.921  1.00  0.00     0.283 C 
HETATM   21  C   UNL     1      49.551  24.834  46.030  1.00  0.00     0.250 C 
HETATM   22  C   UNL     1      50.712  30.374  43.483  1.00  0.00     0.283 C 
HETATM   23  C   UNL     1      53.129  28.684  42.827  1.00  0.00     0.250 C 
HETATM   24  C   UNL     1      51.764  25.742  43.384  1.00  0.00     0.283 C 
HETATM   25  C   UNL     1      49.343  31.690  46.072  1.00  0.00     0.153 C 
HETATM   26  C   UNL     1      50.917  24.462  48.126  1.00  0.00     0.153 C 
HETATM   27  C   UNL     1      53.329  27.234  40.856  1.00  0.00     0.153 C 
ENDROOT
BRANCH  15  28
HETATM   28  C   UNL     1      46.785  29.954  47.490  1.00  0.00     0.016 C 
HETATM   29  C   UNL     1      45.954  30.050  46.212  1.00  0.00     0.012 C 
HETATM   30  C   UNL     1      46.005  29.222  48.582  1.00  0.00     0.012 C 
ENDBRANCH  15  28
BRANCH  14  31
HETATM   31  C   UNL     1      48.621  25.451  49.658  1.00  0.00     0.014 C 
HETATM   32  C   UNL     1      48.042  26.679  50.366  1.00  0.00     0.012 C 
BRANCH  31  33
HETATM   33  C   UNL     1      47.765  24.212  49.978  1.00  0.00     0.002 C 
HETATM   34  C   UNL     1      46.372  24.550  50.492  1.00  0.00     0.005 C 
ENDBRANCH  31  33
ENDBRANCH  14  31
BRANCH  13  35
HETATM   35  C   UNL     1      48.815  32.020  43.203  1.00  0.00     0.014 C 
HETATM   36  C   UNL     1      50.029  32.946  43.092  1.00  0.00     0.012 C 
BRANCH  35  37
HETATM   37  C   UNL     1      48.141  31.878  41.826  1.00  0.00     0.002 C 
HETATM   38  C   UNL     1      48.558  32.952  40.831  1.00  0.00     0.005 C 
ENDBRANCH  35  37
ENDBRANCH  13  35
BRANCH  17  39
HETATM   39  C   UNL     1      50.711  23.044  44.722  1.00  0.00     0.016 C 
HETATM   40  C   UNL     1      49.605  22.289  45.455  1.00  0.00     0.012 C 
HETATM   41  C   UNL     1      52.058  22.354  44.925  1.00  0.00     0.012 C 
ENDBRANCH  17  39
BRANCH  18  42
HETATM   42  C   UNL     1      53.391  29.901  45.041  1.00  0.00     0.016 C 
HETATM   43  C   UNL     1      52.629  30.408  46.265  1.00  0.00     0.012 C 
HETATM   44  C   UNL     1      54.696  29.229  45.465  1.00  0.00     0.012 C 
ENDBRANCH  18  42
BRANCH  16  45
HETATM   45  C   UNL     1      50.629  26.284  41.226  1.00  0.00     0.010 C 
HETATM   46  C   UNL     1      49.184  26.780  41.222  1.00  0.00     0.012 C 
HETATM   47  C   UNL     1      50.669  24.756  41.241  1.00  0.00     0.012 C 
ENDBRANCH  16  45
TORSDOF 8
ENDMDL
MODEL 14
REMARK VINA RESULT:    -4.324      4.630      9.824
REMARK INTER + INTRA:          -5.870
REMARK INTER:                  -6.071
REMARK INTRA:                   0.202
REMARK UNBOUND:                 0.476
REMARK  8 active torsions:
REMARK  status: ('A' for Active; 'I' for Inactive)
REMARK    1  A    between atoms: C_13  and  C_15 
REMARK    2  A    between atoms: C_14  and  C_16 
REMARK    3  A    between atoms: C_15  and  C_22 
REMARK    4  A    between atoms: C_16  and  C_23 
REMARK    5  A    between atoms: C_17  and  C_21 
REMARK    6  A    between atoms: C_18  and  C_24 
REMARK    7  A    between atoms: C_19  and  C_27 
REMARK    8  A    between atoms: C_20  and  C_30 
ROOT
HETATM    1  O   UNL     1      51.039  31.429  43.131  1.00  0.00    -0.304 OA
HETATM    2  O   UNL     1      49.321  29.024  46.967  1.00  0.00    -0.304 OA
HETATM    3  O   UNL     1      50.909  26.478  44.240  1.00  0.00    -0.304 OA
HETATM    4  O   UNL     1      51.790  30.148  45.306  1.00  0.00    -0.270 OA
HETATM    5  O   UNL     1      48.965  30.423  43.012  1.00  0.00    -0.263 OA
HETATM    6  O   UNL     1      52.223  28.120  42.727  1.00  0.00    -0.270 OA
HETATM    7  O   UNL     1      49.593  28.936  49.251  1.00  0.00    -0.263 OA
HETATM    8  O   UNL     1      47.667  26.547  48.705  1.00  0.00    -0.270 OA
HETATM    9  O   UNL     1      49.259  24.995  44.872  1.00  0.00    -0.263 OA
HETATM   10  N   UNL     1      50.511  31.386  46.794  1.00  0.00    -0.340 N 
HETATM   11  N   UNL     1      50.319  28.516  41.460  1.00  0.00    -0.340 N 
HETATM   12  N   UNL     1      49.530  25.876  47.498  1.00  0.00    -0.340 N 
HETATM   13  C   UNL     1      50.889  30.520  47.936  1.00  0.00     0.190 C 
HETATM   14  C   UNL     1      50.662  29.946  41.331  1.00  0.00     0.190 C 
HETATM   15  C   UNL     1      50.699  32.066  44.379  1.00  0.00     0.227 C 
HETATM   16  C   UNL     1      50.618  26.158  46.538  1.00  0.00     0.190 C 
HETATM   17  C   UNL     1      50.524  26.447  42.849  1.00  0.00     0.227 C 
HETATM   18  C   UNL     1      48.312  28.011  46.908  1.00  0.00     0.227 C 
HETATM   19  C   UNL     1      51.047  31.111  45.526  1.00  0.00     0.250 C 
HETATM   20  C   UNL     1      50.093  30.611  42.577  1.00  0.00     0.283 C 
HETATM   21  C   UNL     1      51.115  27.748  42.324  1.00  0.00     0.250 C 
HETATM   22  C   UNL     1      49.836  29.435  48.159  1.00  0.00     0.283 C 
HETATM   23  C   UNL     1      48.480  26.759  47.798  1.00  0.00     0.250 C 
HETATM   24  C   UNL     1      50.156  25.780  45.140  1.00  0.00     0.283 C 
HETATM   25  C   UNL     1      49.529  32.439  47.069  1.00  0.00     0.153 C 
HETATM   26  C   UNL     1      49.106  28.015  40.810  1.00  0.00     0.153 C 
HETATM   27  C   UNL     1      49.552  24.584  48.185  1.00  0.00     0.153 C 
ENDROOT
BRANCH  15  28
HETATM   28  C   UNL     1      51.541  33.332  44.476  1.00  0.00     0.016 C 
HETATM   29  C   UNL     1      52.865  33.157  43.735  1.00  0.00     0.012 C 
HETATM   30  C   UNL     1      50.774  34.533  43.925  1.00  0.00     0.012 C 
ENDBRANCH  15  28
BRANCH  14  31
HETATM   31  C   UNL     1      50.148  30.659  40.087  1.00  0.00     0.014 C 
HETATM   32  C   UNL     1      49.753  32.094  40.441  1.00  0.00     0.012 C 
BRANCH  31  33
HETATM   33  C   UNL     1      51.184  30.667  38.949  1.00  0.00     0.002 C 
HETATM   34  C   UNL     1      52.608  30.405  39.420  1.00  0.00     0.005 C 
ENDBRANCH  31  33
ENDBRANCH  14  31
BRANCH  13  35
HETATM   35  C   UNL     1      51.171  31.299  49.220  1.00  0.00     0.014 C 
HETATM   36  C   UNL     1      51.841  30.382  50.247  1.00  0.00     0.012 C 
BRANCH  35  37
HETATM   37  C   UNL     1      52.054  32.536  48.975  1.00  0.00     0.002 C 
HETATM   38  C   UNL     1      53.452  32.198  48.477  1.00  0.00     0.005 C 
ENDBRANCH  35  37
ENDBRANCH  13  35
BRANCH  17  39
HETATM   39  C   UNL     1      51.154  25.252  42.156  1.00  0.00     0.016 C 
HETATM   40  C   UNL     1      52.058  25.709  41.014  1.00  0.00     0.012 C 
HETATM   41  C   UNL     1      50.076  24.301  41.639  1.00  0.00     0.012 C 
ENDBRANCH  17  39
BRANCH  18  42
HETATM   42  C   UNL     1      46.963  28.690  47.148  1.00  0.00     0.016 C 
HETATM   43  C   UNL     1      46.888  30.021  46.400  1.00  0.00     0.012 C 
HETATM   44  C   UNL     1      45.815  27.774  46.726  1.00  0.00     0.012 C 
ENDBRANCH  18  42
BRANCH  16  45
HETATM   45  C   UNL     1      51.949  25.478  46.851  1.00  0.00     0.010 C 
HETATM   46  C   UNL     1      53.073  26.509  46.951  1.00  0.00     0.012 C 
HETATM   47  C   UNL     1      52.282  24.427  45.792  1.00  0.00     0.012 C 
ENDBRANCH  16  45
TORSDOF 8
ENDMDL
MODEL 15
REMARK VINA RESULT:    -4.273      5.009      8.546
REMARK INTER + INTRA:          -5.796
REMARK INTER:                  -6.763
REMARK INTRA:                   0.967
REMARK UNBOUND:                 0.476
REMARK  8 active torsions:
REMARK  status: ('A' for Active; 'I' for Inactive)
REMARK    1  A    between atoms: C_13  and  C_15 
REMARK    2  A    between atoms: C_14  and  C_16 
REMARK    3  A    between atoms: C_15  and  C_22 
REMARK    4  A    between atoms: C_16  and  C_23 
REMARK    5  A    between atoms: C_17  and  C_21 
REMARK    6  A    between atoms: C_18  and  C_24 
REMARK    7  A    between atoms: C_19  and  C_27 
REMARK    8  A    between atoms: C_20  and  C_30 
ROOT
HETATM    1  O   UNL     1      49.245  24.407  46.120  1.00  0.00    -0.304 OA
HETATM    2  O   UNL     1      50.268  29.140  46.132  1.00  0.00    -0.304 OA
HETATM    3  O   UNL     1      50.619  27.581  42.405  1.00  0.00    -0.304 OA
HETATM    4  O   UNL     1      48.275  26.760  45.440  1.00  0.00    -0.270 OA
HETATM    5  O   UNL     1      51.447  25.098  46.148  1.00  0.00    -0.263 OA
HETATM    6  O   UNL     1      49.425  25.300  42.701  1.00  0.00    -0.270 OA
HETATM    7  O   UNL     1      49.292  31.146  46.696  1.00  0.00    -0.263 OA
HETATM    8  O   UNL     1      51.961  32.043  45.360  1.00  0.00    -0.270 OA
HETATM    9  O   UNL     1      52.352  29.072  42.097  1.00  0.00    -0.263 OA
HETATM   10  N   UNL     1      48.497  27.747  47.528  1.00  0.00    -0.340 N 
HETATM   11  N   UNL     1      51.400  24.335  43.446  1.00  0.00    -0.340 N 
HETATM   12  N   UNL     1      50.943  30.955  43.585  1.00  0.00    -0.340 N 
HETATM   13  C   UNL     1      48.066  29.069  47.017  1.00  0.00     0.190 C 
HETATM   14  C   UNL     1      50.670  23.535  44.449  1.00  0.00     0.190 C 
HETATM   15  C   UNL     1      48.917  25.286  47.214  1.00  0.00     0.227 C 
HETATM   16  C   UNL     1      50.211  29.798  43.026  1.00  0.00     0.190 C 
HETATM   17  C   UNL     1      51.435  26.434  42.087  1.00  0.00     0.227 C 
HETATM   18  C   UNL     1      51.512  29.706  45.707  1.00  0.00     0.227 C 
HETATM   19  C   UNL     1      48.540  26.658  46.644  1.00  0.00     0.250 C 
HETATM   20  C   UNL     1      50.535  24.439  45.667  1.00  0.00     0.283 C 
HETATM   21  C   UNL     1      50.661  25.298  42.742  1.00  0.00     0.250 C 
HETATM   22  C   UNL     1      49.279  29.923  46.644  1.00  0.00     0.283 C 
HETATM   23  C   UNL     1      51.478  31.011  44.881  1.00  0.00     0.250 C 
HETATM   24  C   UNL     1      51.212  28.810  42.450  1.00  0.00     0.283 C 
HETATM   25  C   UNL     1      48.925  27.695  48.930  1.00  0.00     0.153 C 
HETATM   26  C   UNL     1      52.854  24.189  43.343  1.00  0.00     0.153 C 
HETATM   27  C   UNL     1      51.119  32.124  42.723  1.00  0.00     0.153 C 
ENDROOT
BRANCH  15  28
HETATM   28  C   UNL     1      47.725  24.672  47.936  1.00  0.00     0.016 C 
HETATM   29  C   UNL     1      47.303  23.365  47.267  1.00  0.00     0.012 C 
HETATM   30  C   UNL     1      48.049  24.437  49.411  1.00  0.00     0.012 C 
ENDBRANCH  15  28
BRANCH  14  31
HETATM   31  C   UNL     1      51.305  22.213  44.858  1.00  0.00     0.014 C 
HETATM   32  C   UNL     1      50.784  21.793  46.234  1.00  0.00     0.012 C 
BRANCH  31  33
HETATM   33  C   UNL     1      51.038  21.095  43.834  1.00  0.00     0.002 C 
HETATM   34  C   UNL     1      52.306  20.461  43.279  1.00  0.00     0.005 C 
ENDBRANCH  31  33
ENDBRANCH  14  31
BRANCH  13  35
HETATM   35  C   UNL     1      47.130  29.812  47.970  1.00  0.00     0.014 C 
HETATM   36  C   UNL     1      45.972  30.430  47.183  1.00  0.00     0.012 C 
BRANCH  35  37
HETATM   37  C   UNL     1      46.576  28.899  49.079  1.00  0.00     0.002 C 
HETATM   38  C   UNL     1      45.203  28.324  48.764  1.00  0.00     0.005 C 
ENDBRANCH  35  37
ENDBRANCH  13  35
BRANCH  17  39
HETATM   39  C   UNL     1      51.505  26.239  40.583  1.00  0.00     0.016 C 
HETATM   40  C   UNL     1      51.071  24.826  40.204  1.00  0.00     0.012 C 
HETATM   41  C   UNL     1      52.915  26.524  40.070  1.00  0.00     0.012 C 
ENDBRANCH  17  39
BRANCH  18  42
HETATM   42  C   UNL     1      52.399  29.850  46.944  1.00  0.00     0.016 C 
HETATM   43  C   UNL     1      52.172  28.687  47.910  1.00  0.00     0.012 C 
HETATM   44  C   UNL     1      53.871  29.934  46.546  1.00  0.00     0.012 C 
ENDBRANCH  18  42
BRANCH  16  45
HETATM   45  C   UNL     1      49.155  30.145  41.979  1.00  0.00     0.010 C 
HETATM   46  C   UNL     1      47.875  30.646  42.647  1.00  0.00     0.012 C 
HETATM   47  C   UNL     1      48.856  28.937  41.091  1.00  0.00     0.012 C 
ENDBRANCH  16  45
TORSDOF 8
ENDMDL
MODEL 16
REMARK VINA RESULT:    -4.209      2.721      6.175
REMARK INTER + INTRA:          -5.702
REMARK INTER:                  -5.999
REMARK INTRA:                   0.297
REMARK UNBOUND:                 0.476
REMARK  8 active torsions:
REMARK  status: ('A' for Active; 'I' for Inactive)
REMARK    1  A    between atoms: C_13  and  C_15 
REMARK    2  A    between atoms: C_14  and  C_16 
REMARK    3  A    between atoms: C_15  and  C_22 
REMARK    4  A    between atoms: C_16  and  C_23 
REMARK    5  A    between atoms: C_17  and  C_21 
REMARK    6  A    between atoms: C_18  and  C_24 
REMARK    7  A    between atoms: C_19  and  C_27 
REMARK    8  A    between atoms: C_20  and  C_30 
ROOT
HETATM    1  O   UNL     1      53.766  28.482  41.843  1.00  0.00    -0.304 OA
HETATM    2  O   UNL     1      53.250  31.808  38.362  1.00  0.00    -0.304 OA
HETATM    3  O   UNL     1      50.294  32.113  41.120  1.00  0.00    -0.304 OA
HETATM    4  O   UNL     1      54.063  31.051  41.342  1.00  0.00    -0.270 OA
HETATM    5  O   UNL     1      52.266  28.116  40.128  1.00  0.00    -0.263 OA
HETATM    6  O   UNL     1      51.250  30.661  43.042  1.00  0.00    -0.270 OA
HETATM    7  O   UNL     1      54.420  33.543  37.403  1.00  0.00    -0.263 OA
HETATM    8  O   UNL     1      51.632  33.763  36.028  1.00  0.00    -0.270 OA
HETATM    9  O   UNL     1      48.918  32.724  39.372  1.00  0.00    -0.263 OA
HETATM   10  N   UNL     1      55.429  30.799  39.484  1.00  0.00    -0.340 N 
HETATM   11  N   UNL     1      50.350  28.751  42.079  1.00  0.00    -0.340 N 
HETATM   12  N   UNL     1      51.043  34.121  38.241  1.00  0.00    -0.340 N 
HETATM   13  C   UNL     1      55.424  32.254  39.206  1.00  0.00     0.190 C 
HETATM   14  C   UNL     1      51.542  27.963  42.448  1.00  0.00     0.190 C 
HETATM   15  C   UNL     1      54.810  28.819  40.908  1.00  0.00     0.227 C 
HETATM   16  C   UNL     1      51.113  33.756  39.672  1.00  0.00     0.190 C 
HETATM   17  C   UNL     1      49.447  31.013  41.516  1.00  0.00     0.227 C 
HETATM   18  C   UNL     1      52.097  31.939  37.524  1.00  0.00     0.227 C 
HETATM   19  C   UNL     1      54.727  30.319  40.600  1.00  0.00     0.250 C 
HETATM   20  C   UNL     1      52.539  28.184  41.319  1.00  0.00     0.283 C 
HETATM   21  C   UNL     1      50.410  30.135  42.303  1.00  0.00     0.250 C 
HETATM   22  C   UNL     1      54.342  32.602  38.183  1.00  0.00     0.283 C 
HETATM   23  C   UNL     1      51.589  33.360  37.195  1.00  0.00     0.250 C 
HETATM   24  C   UNL     1      49.959  32.824  40.003  1.00  0.00     0.283 C 
HETATM   25  C   UNL     1      56.121  29.949  38.510  1.00  0.00     0.153 C 
HETATM   26  C   UNL     1      49.249  28.086  41.379  1.00  0.00     0.153 C 
HETATM   27  C   UNL     1      50.355  35.365  37.893  1.00  0.00     0.153 C 
ENDROOT
BRANCH  15  28
HETATM   28  C   UNL     1      56.136  28.495  41.584  1.00  0.00     0.016 C 
HETATM   29  C   UNL     1      55.966  28.433  43.101  1.00  0.00     0.012 C 
HETATM   30  C   UNL     1      56.704  27.179  41.055  1.00  0.00     0.012 C 
ENDBRANCH  15  28
BRANCH  14  31
HETATM   31  C   UNL     1      51.331  26.470  42.664  1.00  0.00     0.014 C 
HETATM   32  C   UNL     1      52.665  25.734  42.519  1.00  0.00     0.012 C 
BRANCH  31  33
HETATM   33  C   UNL     1      50.709  26.160  44.036  1.00  0.00     0.002 C 
HETATM   34  C   UNL     1      49.393  25.399  43.950  1.00  0.00     0.005 C 
ENDBRANCH  31  33
ENDBRANCH  14  31
BRANCH  13  35
HETATM   35  C   UNL     1      56.789  32.796  38.783  1.00  0.00     0.014 C 
HETATM   36  C   UNL     1      56.801  34.322  38.900  1.00  0.00     0.012 C 
BRANCH  35  37
HETATM   37  C   UNL     1      57.940  32.202  39.615  1.00  0.00     0.002 C 
HETATM   38  C   UNL     1      57.990  32.722  41.044  1.00  0.00     0.005 C 
ENDBRANCH  35  37
ENDBRANCH  13  35
BRANCH  17  39
HETATM   39  C   UNL     1      48.323  31.510  42.406  1.00  0.00     0.016 C 
HETATM   40  C   UNL     1      48.488  30.978  43.827  1.00  0.00     0.012 C 
HETATM   41  C   UNL     1      46.966  31.103  41.835  1.00  0.00     0.012 C 
ENDBRANCH  17  39
BRANCH  18  42
HETATM   42  C   UNL     1      52.358  31.130  36.252  1.00  0.00     0.016 C 
HETATM   43  C   UNL     1      52.848  29.724  36.597  1.00  0.00     0.012 C 
HETATM   44  C   UNL     1      51.100  31.061  35.389  1.00  0.00     0.012 C 
ENDBRANCH  18  42
BRANCH  16  45
HETATM   45  C   UNL     1      51.127  34.937  40.641  1.00  0.00     0.010 C 
HETATM   46  C   UNL     1      52.343  34.866  41.563  1.00  0.00     0.012 C 
HETATM   47  C   UNL     1      49.837  34.980  41.459  1.00  0.00     0.012 C 
ENDBRANCH  16  45
TORSDOF 8
ENDMDL
MODEL 17
REMARK VINA RESULT:    -4.064      5.875     10.466
REMARK INTER + INTRA:          -5.489
REMARK INTER:                  -7.422
REMARK INTRA:                   1.933
REMARK UNBOUND:                 0.476
REMARK  8 active torsions:
REMARK  status: ('A' for Active; 'I' for Inactive)
REMARK    1  A    between atoms: C_13  and  C_15 
REMARK    2  A    between atoms: C_14  and  C_16 
REMARK    3  A    between atoms: C_15  and  C_22 
REMARK    4  A    between atoms: C_16  and  C_23 
REMARK    5  A    between atoms: C_17  and  C_21 
REMARK    6  A    between atoms: C_18  and  C_24 
REMARK    7  A    between atoms: C_19  and  C_27 
REMARK    8  A    between atoms: C_20  and  C_30 
ROOT
HETATM    1  O   UNL     1      49.183  23.755  45.250  1.00  0.00    -0.304 OA
HETATM    2  O   UNL     1      49.671  27.744  47.952  1.00  0.00    -0.304 OA
HETATM    3  O   UNL     1      49.678  28.650  44.000  1.00  0.00    -0.304 OA
HETATM    4  O   UNL     1      47.875  25.876  46.107  1.00  0.00    -0.270 OA
HETATM    5  O   UNL     1      51.278  24.670  45.567  1.00  0.00    -0.263 OA
HETATM    6  O   UNL     1      48.794  26.439  42.977  1.00  0.00    -0.270 OA
HETATM    7  O   UNL     1      48.565  28.880  49.621  1.00  0.00    -0.263 OA
HETATM    8  O   UNL     1      50.912  30.810  48.925  1.00  0.00    -0.270 OA
HETATM    9  O   UNL     1      51.178  30.321  44.530  1.00  0.00    -0.263 OA
HETATM   10  N   UNL     1      48.272  25.531  48.366  1.00  0.00    -0.340 N 
HETATM   11  N   UNL     1      50.946  25.573  42.929  1.00  0.00    -0.340 N 
HETATM   12  N   UNL     1      49.786  30.763  46.899  1.00  0.00    -0.340 N 
HETATM   13  C   UNL     1      47.632  26.814  48.738  1.00  0.00     0.190 C 
HETATM   14  C   UNL     1      50.453  24.237  43.316  1.00  0.00     0.190 C 
HETATM   15  C   UNL     1      48.913  23.791  46.665  1.00  0.00     0.227 C 
HETATM   16  C   UNL     1      49.117  30.020  45.810  1.00  0.00     0.190 C 
HETATM   17  C   UNL     1      50.564  28.041  43.037  1.00  0.00     0.227 C 
HETATM   18  C   UNL     1      50.775  28.651  47.875  1.00  0.00     0.227 C 
HETATM   19  C   UNL     1      48.312  25.158  47.014  1.00  0.00     0.250 C 
HETATM   20  C   UNL     1      50.387  24.256  44.838  1.00  0.00     0.283 C 
HETATM   21  C   UNL     1      50.016  26.623  42.950  1.00  0.00     0.250 C 
HETATM   22  C   UNL     1      48.680  27.919  48.871  1.00  0.00     0.283 C 
HETATM   23  C   UNL     1      50.485  30.166  47.961  1.00  0.00     0.250 C 
HETATM   24  C   UNL     1      50.132  29.717  44.720  1.00  0.00     0.283 C 
HETATM   25  C   UNL     1      48.890  24.769  49.457  1.00  0.00     0.153 C 
HETATM   26  C   UNL     1      52.379  25.758  42.690  1.00  0.00     0.153 C 
HETATM   27  C   UNL     1      49.713  32.223  46.867  1.00  0.00     0.153 C 
ENDROOT
BRANCH  15  28
HETATM   28  C   UNL     1      47.905  22.686  46.954  1.00  0.00     0.016 C 
HETATM   29  C   UNL     1      48.536  21.593  47.814  1.00  0.00     0.012 C 
HETATM   30  C   UNL     1      46.663  23.255  47.638  1.00  0.00     0.012 C 
ENDBRANCH  15  28
BRANCH  14  31
HETATM   31  C   UNL     1      51.280  23.045  42.852  1.00  0.00     0.014 C 
HETATM   32  C   UNL     1      51.004  21.841  43.756  1.00  0.00     0.012 C 
BRANCH  31  33
HETATM   33  C   UNL     1      50.997  22.673  41.386  1.00  0.00     0.002 C 
HETATM   34  C   UNL     1      50.598  21.216  41.193  1.00  0.00     0.005 C 
ENDBRANCH  31  33
ENDBRANCH  14  31
BRANCH  13  35
HETATM   35  C   UNL     1      46.759  26.718  49.989  1.00  0.00     0.014 C 
HETATM   36  C   UNL     1      47.532  27.240  51.202  1.00  0.00     0.012 C 
BRANCH  35  37
HETATM   37  C   UNL     1      45.435  27.490  49.842  1.00  0.00     0.002 C 
HETATM   38  C   UNL     1      45.228  28.550  50.914  1.00  0.00     0.005 C 
ENDBRANCH  35  37
ENDBRANCH  13  35
BRANCH  17  39
HETATM   39  C   UNL     1      50.449  28.746  41.698  1.00  0.00     0.016 C 
HETATM   40  C   UNL     1      49.266  28.197  40.903  1.00  0.00     0.012 C 
HETATM   41  C   UNL     1      51.744  28.601  40.902  1.00  0.00     0.012 C 
ENDBRANCH  17  39
BRANCH  18  42
HETATM   42  C   UNL     1      51.801  28.217  48.922  1.00  0.00     0.016 C 
HETATM   43  C   UNL     1      51.828  26.695  49.055  1.00  0.00     0.012 C 
HETATM   44  C   UNL     1      53.189  28.748  48.569  1.00  0.00     0.012 C 
ENDBRANCH  18  42
BRANCH  16  45
HETATM   45  C   UNL     1      47.896  30.714  45.210  1.00  0.00     0.010 C 
HETATM   46  C   UNL     1      46.608  30.021  45.653  1.00  0.00     0.012 C 
HETATM   47  C   UNL     1      47.987  30.746  43.685  1.00  0.00     0.012 C 
ENDBRANCH  16  45
TORSDOF 8
ENDMDL
MODEL 18
REMARK VINA RESULT:    -4.003      2.544      8.182
REMARK INTER + INTRA:          -5.400
REMARK INTER:                  -6.261
REMARK INTRA:                   0.861
REMARK UNBOUND:                 0.476
REMARK  8 active torsions:
REMARK  status: ('A' for Active; 'I' for Inactive)
REMARK    1  A    between atoms: C_13  and  C_15 
REMARK    2  A    between atoms: C_14  and  C_16 
REMARK    3  A    between atoms: C_15  and  C_22 
REMARK    4  A    between atoms: C_16  and  C_23 
REMARK    5  A    between atoms: C_17  and  C_21 
REMARK    6  A    between atoms: C_18  and  C_24 
REMARK    7  A    between atoms: C_19  and  C_27 
REMARK    8  A    between atoms: C_20  and  C_30 
ROOT
HETATM    1  O   UNL     1      53.019  29.403  37.676  1.00  0.00    -0.304 OA
HETATM    2  O   UNL     1      52.438  29.924  42.455  1.00  0.00    -0.304 OA
HETATM    3  O   UNL     1      51.413  33.315  40.483  1.00  0.00    -0.304 OA
HETATM    4  O   UNL     1      51.183  29.510  39.562  1.00  0.00    -0.270 OA
HETATM    5  O   UNL     1      54.638  30.490  38.911  1.00  0.00    -0.263 OA
HETATM    6  O   UNL     1      51.260  32.450  38.045  1.00  0.00    -0.270 OA
HETATM    7  O   UNL     1      51.297  28.952  44.202  1.00  0.00    -0.263 OA
HETATM    8  O   UNL     1      52.587  31.453  45.542  1.00  0.00    -0.270 OA
HETATM    9  O   UNL     1      52.243  34.459  42.306  1.00  0.00    -0.263 OA
HETATM   10  N   UNL     1      52.068  27.822  40.884  1.00  0.00    -0.340 N 
HETATM   11  N   UNL     1      53.536  32.798  37.753  1.00  0.00    -0.340 N 
HETATM   12  N   UNL     1      51.225  32.471  43.966  1.00  0.00    -0.340 N 
HETATM   13  C   UNL     1      51.069  28.050  41.954  1.00  0.00     0.190 C 
HETATM   14  C   UNL     1      53.657  31.561  36.956  1.00  0.00     0.190 C 
HETATM   15  C   UNL     1      53.007  28.295  38.598  1.00  0.00     0.227 C 
HETATM   16  C   UNL     1      50.705  32.581  42.587  1.00  0.00     0.190 C 
HETATM   17  C   UNL     1      52.280  33.997  39.552  1.00  0.00     0.227 C 
HETATM   18  C   UNL     1      53.089  30.919  43.252  1.00  0.00     0.227 C 
HETATM   19  C   UNL     1      52.008  28.603  39.720  1.00  0.00     0.250 C 
HETATM   20  C   UNL     1      53.855  30.444  37.972  1.00  0.00     0.283 C 
HETATM   21  C   UNL     1      52.299  33.037  38.369  1.00  0.00     0.250 C 
HETATM   22  C   UNL     1      51.631  28.985  43.024  1.00  0.00     0.283 C 
HETATM   23  C   UNL     1      52.271  31.620  44.359  1.00  0.00     0.250 C 
HETATM   24  C   UNL     1      51.552  33.580  41.815  1.00  0.00     0.283 C 
HETATM   25  C   UNL     1      53.108  26.825  41.163  1.00  0.00     0.153 C 
HETATM   26  C   UNL     1      54.729  33.618  37.975  1.00  0.00     0.153 C 
HETATM   27  C   UNL     1      50.604  33.308  44.992  1.00  0.00     0.153 C 
ENDROOT
BRANCH  15  28
HETATM   28  C   UNL     1      52.556  27.069  37.816  1.00  0.00     0.016 C 
HETATM   29  C   UNL     1      51.855  27.482  36.523  1.00  0.00     0.012 C 
HETATM   30  C   UNL     1      53.743  26.156  37.512  1.00  0.00     0.012 C 
ENDBRANCH  15  28
BRANCH  14  31
HETATM   31  C   UNL     1      54.775  31.523  35.924  1.00  0.00     0.014 C 
HETATM   32  C   UNL     1      55.830  30.496  36.342  1.00  0.00     0.012 C 
BRANCH  31  33
HETATM   33  C   UNL     1      54.257  31.195  34.512  1.00  0.00     0.002 C 
HETATM   34  C   UNL     1      52.758  30.936  34.458  1.00  0.00     0.005 C 
ENDBRANCH  31  33
ENDBRANCH  14  31
BRANCH  13  35
HETATM   35  C   UNL     1      50.529  26.758  42.566  1.00  0.00     0.014 C 
HETATM   36  C   UNL     1      49.599  27.088  43.737  1.00  0.00     0.012 C 
BRANCH  35  37
HETATM   37  C   UNL     1      49.784  25.888  41.539  1.00  0.00     0.002 C 
HETATM   38  C   UNL     1      50.188  24.421  41.576  1.00  0.00     0.005 C 
ENDBRANCH  35  37
ENDBRANCH  13  35
BRANCH  17  39
HETATM   39  C   UNL     1      51.676  35.331  39.152  1.00  0.00     0.016 C 
HETATM   40  C   UNL     1      52.330  36.471  39.929  1.00  0.00     0.012 C 
HETATM   41  C   UNL     1      50.165  35.325  39.377  1.00  0.00     0.012 C 
ENDBRANCH  17  39
BRANCH  18  42
HETATM   42  C   UNL     1      54.369  30.297  43.811  1.00  0.00     0.016 C 
HETATM   43  C   UNL     1      54.995  29.344  42.793  1.00  0.00     0.012 C 
HETATM   44  C   UNL     1      55.366  31.382  44.211  1.00  0.00     0.012 C 
ENDBRANCH  18  42
BRANCH  16  45
HETATM   45  C   UNL     1      49.228  32.955  42.481  1.00  0.00     0.010 C 
HETATM   46  C   UNL     1      48.545  32.153  41.374  1.00  0.00     0.012 C 
HETATM   47  C   UNL     1      49.066  34.454  42.232  1.00  0.00     0.012 C 
ENDBRANCH  16  45
TORSDOF 8
ENDMDL
MODEL 19
REMARK VINA RESULT:    -3.955      5.870     11.021
REMARK INTER + INTRA:          -5.329
REMARK INTER:                  -6.120
REMARK INTRA:                   0.791
REMARK UNBOUND:                 0.476
REMARK  8 active torsions:
REMARK  status: ('A' for Active; 'I' for Inactive)
REMARK    1  A    between atoms: C_13  and  C_15 
REMARK    2  A    between atoms: C_14  and  C_16 
REMARK    3  A    between atoms: C_15  and  C_22 
REMARK    4  A    between atoms: C_16  and  C_23 
REMARK    5  A    between atoms: C_17  and  C_21 
REMARK    6  A    between atoms: C_18  and  C_24 
REMARK    7  A    between atoms: C_19  and  C_27 
REMARK    8  A    between atoms: C_20  and  C_30 
ROOT
HETATM    1  O   UNL     1      50.652  31.820  45.986  1.00  0.00    -0.304 OA
HETATM    2  O   UNL     1      48.745  27.874  48.044  1.00  0.00    -0.304 OA
HETATM    3  O   UNL     1      50.194  27.037  44.351  1.00  0.00    -0.304 OA
HETATM    4  O   UNL     1      51.298  29.549  47.154  1.00  0.00    -0.270 OA
HETATM    5  O   UNL     1      48.519  31.151  45.411  1.00  0.00    -0.263 OA
HETATM    6  O   UNL     1      51.626  29.145  43.885  1.00  0.00    -0.270 OA
HETATM    7  O   UNL     1      48.987  26.590  49.939  1.00  0.00    -0.263 OA
HETATM    8  O   UNL     1      46.918  24.958  48.275  1.00  0.00    -0.270 OA
HETATM    9  O   UNL     1      48.446  25.544  44.157  1.00  0.00    -0.263 OA
HETATM   10  N   UNL     1      50.086  29.902  49.100  1.00  0.00    -0.340 N 
HETATM   11  N   UNL     1      49.765  30.257  43.059  1.00  0.00    -0.340 N 
HETATM   12  N   UNL     1      48.746  24.906  46.849  1.00  0.00    -0.340 N 
HETATM   13  C   UNL     1      50.396  28.546  49.613  1.00  0.00     0.190 C 
HETATM   14  C   UNL     1      50.199  31.521  43.687  1.00  0.00     0.190 C 
HETATM   15  C   UNL     1      50.342  31.731  47.391  1.00  0.00     0.227 C 
HETATM   16  C   UNL     1      49.860  25.582  46.151  1.00  0.00     0.190 C 
HETATM   17  C   UNL     1      49.822  27.760  43.158  1.00  0.00     0.227 C 
HETATM   18  C   UNL     1      47.674  27.103  47.491  1.00  0.00     0.227 C 
HETATM   19  C   UNL     1      50.616  30.298  47.863  1.00  0.00     0.250 C 
HETATM   20  C   UNL     1      49.662  31.470  45.111  1.00  0.00     0.283 C 
HETATM   21  C   UNL     1      50.501  29.106  43.375  1.00  0.00     0.250 C 
HETATM   22  C   UNL     1      49.273  27.570  49.263  1.00  0.00     0.283 C 
HETATM   23  C   UNL     1      47.752  25.563  47.592  1.00  0.00     0.250 C 
HETATM   24  C   UNL     1      49.388  26.018  44.773  1.00  0.00     0.283 C 
HETATM   25  C   UNL     1      49.170  30.713  49.909  1.00  0.00     0.153 C 
HETATM   26  C   UNL     1      48.529  30.244  42.273  1.00  0.00     0.153 C 
HETATM   27  C   UNL     1      48.678  23.447  46.760  1.00  0.00     0.153 C 
ENDROOT
BRANCH  15  28
HETATM   28  C   UNL     1      51.262  32.706  48.114  1.00  0.00     0.016 C 
HETATM   29  C   UNL     1      52.461  33.065  47.238  1.00  0.00     0.012 C 
HETATM   30  C   UNL     1      50.499  33.966  48.520  1.00  0.00     0.012 C 
ENDBRANCH  15  28
BRANCH  14  31
HETATM   31  C   UNL     1      49.745  32.808  43.011  1.00  0.00     0.014 C 
HETATM   32  C   UNL     1      50.336  34.013  43.746  1.00  0.00     0.012 C 
BRANCH  31  33
HETATM   33  C   UNL     1      50.140  32.858  41.524  1.00  0.00     0.002 C 
HETATM   34  C   UNL     1      49.075  33.482  40.632  1.00  0.00     0.005 C 
ENDBRANCH  31  33
ENDBRANCH  14  31
BRANCH  13  35
HETATM   35  C   UNL     1      50.714  28.521  51.107  1.00  0.00     0.014 C 
HETATM   36  C   UNL     1      51.313  27.164  51.487  1.00  0.00     0.012 C 
BRANCH  35  37
HETATM   37  C   UNL     1      51.677  29.649  51.522  1.00  0.00     0.002 C 
HETATM   38  C   UNL     1      51.405  30.200  52.914  1.00  0.00     0.005 C 
ENDBRANCH  35  37
ENDBRANCH  13  35
BRANCH  17  39
HETATM   39  C   UNL     1      50.381  27.068  41.929  1.00  0.00     0.016 C 
HETATM   40  C   UNL     1      49.291  26.265  41.223  1.00  0.00     0.012 C 
HETATM   41  C   UNL     1      51.553  26.165  42.308  1.00  0.00     0.012 C 
ENDBRANCH  17  39
BRANCH  18  42
HETATM   42  C   UNL     1      46.368  27.636  48.083  1.00  0.00     0.016 C 
HETATM   43  C   UNL     1      46.352  29.165  48.066  1.00  0.00     0.012 C 
HETATM   44  C   UNL     1      45.165  27.080  47.325  1.00  0.00     0.012 C 
ENDBRANCH  18  42
BRANCH  16  45
HETATM   45  C   UNL     1      51.141  24.760  46.030  1.00  0.00     0.010 C 
HETATM   46  C   UNL     1      52.372  25.663  46.108  1.00  0.00     0.012 C 
HETATM   47  C   UNL     1      51.149  23.958  44.730  1.00  0.00     0.012 C 
ENDBRANCH  16  45
TORSDOF 8
ENDMDL
MODEL 20
REMARK VINA RESULT:    -3.792      1.694      6.524
REMARK INTER + INTRA:          -5.089
REMARK INTER:                  -5.973
REMARK INTRA:                   0.884
REMARK UNBOUND:                 0.476
REMARK  8 active torsions:
REMARK  status: ('A' for Active; 'I' for Inactive)
REMARK    1  A    between atoms: C_13  and  C_15 
REMARK    2  A    between atoms: C_14  and  C_16 
REMARK    3  A    between atoms: C_15  and  C_22 
REMARK    4  A    between atoms: C_16  and  C_23 
REMARK    5  A    between atoms: C_17  and  C_21 
REMARK    6  A    between atoms: C_18  and  C_24 
REMARK    7  A    between atoms: C_19  and  C_27 
REMARK    8  A    between atoms: C_20  and  C_30 
ROOT
HETATM    1  O   UNL     1      52.549  27.885  41.256  1.00  0.00    -0.304 OA
HETATM    2  O   UNL     1      53.329  27.683  36.481  1.00  0.00    -0.304 OA
HETATM    3  O   UNL     1      53.052  31.523  37.753  1.00  0.00    -0.304 OA
HETATM    4  O   UNL     1      54.406  28.242  39.422  1.00  0.00    -0.270 OA
HETATM    5  O   UNL     1      50.777  28.133  39.799  1.00  0.00    -0.263 OA
HETATM    6  O   UNL     1      53.270  31.219  40.318  1.00  0.00    -0.270 OA
HETATM    7  O   UNL     1      54.862  26.838  34.987  1.00  0.00    -0.263 OA
HETATM    8  O   UNL     1      52.959  28.485  33.148  1.00  0.00    -0.270 OA
HETATM    9  O   UNL     1      52.056  31.976  35.723  1.00  0.00    -0.263 OA
HETATM   10  N   UNL     1      54.218  26.145  38.449  1.00  0.00    -0.340 N 
HETATM   11  N   UNL     1      50.986  30.846  40.492  1.00  0.00    -0.340 N 
HETATM   12  N   UNL     1      53.788  30.165  34.515  1.00  0.00    -0.340 N 
HETATM   13  C   UNL     1      55.178  26.489  37.373  1.00  0.00     0.190 C 
HETATM   14  C   UNL     1      51.200  29.806  41.518  1.00  0.00     0.190 C 
HETATM   15  C   UNL     1      52.990  26.693  40.575  1.00  0.00     0.227 C 
HETATM   16  C   UNL     1      54.130  30.690  35.853  1.00  0.00     0.190 C 
HETATM   17  C   UNL     1      51.939  32.041  38.513  1.00  0.00     0.227 C 
HETATM   18  C   UNL     1      52.464  28.246  35.490  1.00  0.00     0.227 C 
HETATM   19  C   UNL     1      53.928  27.102  39.433  1.00  0.00     0.250 C 
HETATM   20  C   UNL     1      51.453  28.520  40.743  1.00  0.00     0.283 C 
HETATM   21  C   UNL     1      52.129  31.361  39.863  1.00  0.00     0.250 C 
HETATM   22  C   UNL     1      54.437  26.975  36.127  1.00  0.00     0.283 C 
HETATM   23  C   UNL     1      53.105  28.961  34.280  1.00  0.00     0.250 C 
HETATM   24  C   UNL     1      52.948  31.479  36.393  1.00  0.00     0.283 C 
HETATM   25  C   UNL     1      53.577  24.829  38.355  1.00  0.00     0.153 C 
HETATM   26  C   UNL     1      49.616  31.173  40.088  1.00  0.00     0.153 C 
HETATM   27  C   UNL     1      54.193  30.957  33.353  1.00  0.00     0.153 C 
ENDROOT
BRANCH  15  28
HETATM   28  C   UNL     1      53.742  25.849  41.596  1.00  0.00     0.016 C 
HETATM   29  C   UNL     1      54.291  26.725  42.720  1.00  0.00     0.012 C 
HETATM   30  C   UNL     1      52.838  24.756  42.162  1.00  0.00     0.012 C 
ENDBRANCH  15  28
BRANCH  14  31
HETATM   31  C   UNL     1      50.070  29.593  42.516  1.00  0.00     0.014 C 
HETATM   32  C   UNL     1      50.105  28.154  43.036  1.00  0.00     0.012 C 
BRANCH  31  33
HETATM   33  C   UNL     1      50.138  30.577  43.696  1.00  0.00     0.002 C 
HETATM   34  C   UNL     1      49.015  31.605  43.698  1.00  0.00     0.005 C 
ENDBRANCH  31  33
ENDBRANCH  14  31
BRANCH  13  35
HETATM   35  C   UNL     1      56.149  25.358  37.042  1.00  0.00     0.014 C 
HETATM   36  C   UNL     1      57.143  25.173  38.192  1.00  0.00     0.012 C 
BRANCH  35  37
HETATM   37  C   UNL     1      55.428  24.027  36.760  1.00  0.00     0.002 C 
HETATM   38  C   UNL     1      55.683  23.480  35.364  1.00  0.00     0.005 C 
ENDBRANCH  35  37
ENDBRANCH  13  35
BRANCH  17  39
HETATM   39  C   UNL     1      52.051  33.548  38.649  1.00  0.00     0.016 C 
HETATM   40  C   UNL     1      53.443  33.941  39.139  1.00  0.00     0.012 C 
HETATM   41  C   UNL     1      50.978  34.083  39.595  1.00  0.00     0.012 C 
ENDBRANCH  17  39
BRANCH  18  42
HETATM   42  C   UNL     1      51.500  27.146  35.043  1.00  0.00     0.016 C 
HETATM   43  C   UNL     1      51.152  26.225  36.212  1.00  0.00     0.012 C 
HETATM   44  C   UNL     1      50.232  27.751  34.443  1.00  0.00     0.012 C 
ENDBRANCH  18  42
BRANCH  16  45
HETATM   45  C   UNL     1      55.397  31.542  35.909  1.00  0.00     0.010 C 
HETATM   46  C   UNL     1      56.289  31.108  37.072  1.00  0.00     0.012 C 
HETATM   47  C   UNL     1      55.047  33.025  36.030  1.00  0.00     0.012 C 
ENDBRANCH  16  45
TORSDOF 8
ENDMDL
