MODEL 1
REMARK VINA RESULT:    -5.616      0.000      0.000
REMARK INTER + INTRA:          -7.671
REMARK INTER:                  -8.242
REMARK INTRA:                   0.571
REMARK UNBOUND:                 0.571
REMARK  8 active torsions:
REMARK  status: ('A' for Active; 'I' for Inactive)
REMARK    1  A    between atoms: C_13  and  C_15 
REMARK    2  A    between atoms: C_14  and  C_16 
REMARK    3  A    between atoms: C_15  and  C_22 
REMARK    4  A    between atoms: C_16  and  C_23 
REMARK    5  A    between atoms: C_17  and  C_21 
REMARK    6  A    between atoms: C_18  and  C_24 
REMARK    7  A    between atoms: C_19  and  C_27 
REMARK    8  A    between atoms: C_20  and  C_30 
ROOT
HETATM    1  O   UNL     1      21.613  34.322  58.048  1.00  0.00    -0.304 OA
HETATM    2  O   UNL     1      18.830  38.196  58.879  1.00  0.00    -0.304 OA
HETATM    3  O   UNL     1      20.703  38.488  55.294  1.00  0.00    -0.304 OA
HETATM    4  O   UNL     1      19.333  35.447  57.359  1.00  0.00    -0.270 OA
HETATM    5  O   UNL     1      22.574  36.272  58.822  1.00  0.00    -0.263 OA
HETATM    6  O   UNL     1      21.536  36.056  54.965  1.00  0.00    -0.270 OA
HETATM    7  O   UNL     1      16.633  38.716  59.328  1.00  0.00    -0.263 OA
HETATM    8  O   UNL     1      17.938  41.525  58.978  1.00  0.00    -0.270 OA
HETATM    9  O   UNL     1      20.810  40.757  55.693  1.00  0.00    -0.263 OA
HETATM   10  N   UNL     1      18.481  35.645  59.507  1.00  0.00    -0.340 N 
HETATM   11  N   UNL     1      23.462  36.526  56.171  1.00  0.00    -0.340 N 
HETATM   12  N   UNL     1      18.292  40.627  56.870  1.00  0.00    -0.340 N 
HETATM   13  C   UNL     1      17.292  36.393  59.034  1.00  0.00     0.190 C 
HETATM   14  C   UNL     1      23.426  35.196  56.810  1.00  0.00     0.190 C 
HETATM   15  C   UNL     1      20.604  34.366  59.076  1.00  0.00     0.227 C 
HETATM   16  C   UNL     1      18.724  39.518  55.994  1.00  0.00     0.190 C 
HETATM   17  C   UNL     1      22.131  38.363  55.121  1.00  0.00     0.227 C 
HETATM   18  C   UNL     1      19.303  39.546  58.918  1.00  0.00     0.227 C 
HETATM   19  C   UNL     1      19.424  35.202  58.567  1.00  0.00     0.250 C 
HETATM   20  C   UNL     1      22.511  35.352  58.018  1.00  0.00     0.283 C 
HETATM   21  C   UNL     1      22.358  36.880  55.382  1.00  0.00     0.250 C 
HETATM   22  C   UNL     1      17.527  37.899  59.144  1.00  0.00     0.283 C 
HETATM   23  C   UNL     1      18.435  40.645  58.267  1.00  0.00     0.250 C 
HETATM   24  C   UNL     1      20.194  39.703  55.650  1.00  0.00     0.283 C 
HETATM   25  C   UNL     1      18.617  35.485  60.959  1.00  0.00     0.153 C 
HETATM   26  C   UNL     1      24.554  37.444  56.503  1.00  0.00     0.153 C 
HETATM   27  C   UNL     1      17.668  41.788  56.234  1.00  0.00     0.153 C 
ENDROOT
BRANCH  15  28
HETATM   28  C   UNL     1      20.161  32.931  59.328  1.00  0.00     0.016 C 
HETATM   29  C   UNL     1      20.543  32.035  58.152  1.00  0.00     0.012 C 
HETATM   30  C   UNL     1      20.767  32.399  60.625  1.00  0.00     0.012 C 
ENDBRANCH  15  28
BRANCH  14  31
HETATM   31  C   UNL     1      24.764  34.616  57.250  1.00  0.00     0.014 C 
HETATM   32  C   UNL     1      24.536  33.536  58.310  1.00  0.00     0.012 C 
BRANCH  31  33
HETATM   33  C   UNL     1      25.564  34.032  56.072  1.00  0.00     0.002 C 
HETATM   34  C   UNL     1      24.688  33.503  54.944  1.00  0.00     0.005 C 
ENDBRANCH  31  33
ENDBRANCH  14  31
BRANCH  13  35
HETATM   35  C   UNL     1      15.996  35.976  59.728  1.00  0.00     0.014 C 
HETATM   36  C   UNL     1      14.800  36.292  58.826  1.00  0.00     0.012 C 
BRANCH  35  37
HETATM   37  C   UNL     1      15.985  34.482  60.102  1.00  0.00     0.002 C 
HETATM   38  C   UNL     1      14.703  34.037  60.790  1.00  0.00     0.005 C 
ENDBRANCH  35  37
ENDBRANCH  13  35
BRANCH  17  39
HETATM   39  C   UNL     1      22.520  38.725  53.699  1.00  0.00     0.016 C 
HETATM   40  C   UNL     1      23.159  40.111  53.653  1.00  0.00     0.012 C 
HETATM   41  C   UNL     1      21.304  38.663  52.777  1.00  0.00     0.012 C 
ENDBRANCH  17  39
BRANCH  18  42
HETATM   42  C   UNL     1      19.625  39.878  60.376  1.00  0.00     0.016 C 
HETATM   43  C   UNL     1      20.198  38.657  61.095  1.00  0.00     0.012 C 
HETATM   44  C   UNL     1      20.597  41.053  60.460  1.00  0.00     0.012 C 
ENDBRANCH  18  42
BRANCH  16  45
HETATM   45  C   UNL     1      17.905  39.345  54.717  1.00  0.00     0.010 C 
HETATM   46  C   UNL     1      17.685  37.864  54.413  1.00  0.00     0.012 C 
HETATM   47  C   UNL     1      18.589  40.036  53.538  1.00  0.00     0.012 C 
ENDBRANCH  16  45
TORSDOF 8
ENDMDL
MODEL 2
REMARK VINA RESULT:    -5.082      1.789      6.752
REMARK INTER + INTRA:          -6.888
REMARK INTER:                  -7.354
REMARK INTRA:                   0.466
REMARK UNBOUND:                 0.571
REMARK  8 active torsions:
REMARK  status: ('A' for Active; 'I' for Inactive)
REMARK    1  A    between atoms: C_13  and  C_15 
REMARK    2  A    between atoms: C_14  and  C_16 
REMARK    3  A    between atoms: C_15  and  C_22 
REMARK    4  A    between atoms: C_16  and  C_23 
REMARK    5  A    between atoms: C_17  and  C_21 
REMARK    6  A    between atoms: C_18  and  C_24 
REMARK    7  A    between atoms: C_19  and  C_27 
REMARK    8  A    between atoms: C_20  and  C_30 
ROOT
HETATM    1  O   UNL     1      23.041  35.134  57.026  1.00  0.00    -0.304 OA
HETATM    2  O   UNL     1      21.559  39.512  55.582  1.00  0.00    -0.304 OA
HETATM    3  O   UNL     1      20.180  38.658  59.297  1.00  0.00    -0.304 OA
HETATM    4  O   UNL     1      23.467  37.710  57.379  1.00  0.00    -0.270 OA
HETATM    5  O   UNL     1      20.907  35.397  56.184  1.00  0.00    -0.263 OA
HETATM    6  O   UNL     1      21.650  36.618  59.921  1.00  0.00    -0.270 OA
HETATM    7  O   UNL     1      22.438  41.517  54.869  1.00  0.00    -0.263 OA
HETATM    8  O   UNL     1      19.396  42.154  55.101  1.00  0.00    -0.270 OA
HETATM    9  O   UNL     1      18.287  39.842  58.714  1.00  0.00    -0.263 OA
HETATM   10  N   UNL     1      23.833  38.222  55.147  1.00  0.00    -0.340 N 
HETATM   11  N   UNL     1      20.150  35.187  58.879  1.00  0.00    -0.340 N 
HETATM   12  N   UNL     1      19.889  41.628  57.305  1.00  0.00    -0.340 N 
HETATM   13  C   UNL     1      23.924  39.674  55.430  1.00  0.00     0.190 C 
HETATM   14  C   UNL     1      21.252  34.355  58.359  1.00  0.00     0.190 C 
HETATM   15  C   UNL     1      23.610  35.832  55.901  1.00  0.00     0.227 C 
HETATM   16  C   UNL     1      20.520  40.752  58.313  1.00  0.00     0.190 C 
HETATM   17  C   UNL     1      19.437  37.464  59.625  1.00  0.00     0.227 C 
HETATM   18  C   UNL     1      20.190  39.914  55.472  1.00  0.00     0.227 C 
HETATM   19  C   UNL     1      23.625  37.333  56.212  1.00  0.00     0.250 C 
HETATM   20  C   UNL     1      21.679  35.019  57.056  1.00  0.00     0.283 C 
HETATM   21  C   UNL     1      20.505  36.384  59.519  1.00  0.00     0.250 C 
HETATM   22  C   UNL     1      22.569  40.349  55.213  1.00  0.00     0.283 C 
HETATM   23  C   UNL     1      19.806  41.338  55.933  1.00  0.00     0.250 C 
HETATM   24  C   UNL     1      19.502  39.728  58.787  1.00  0.00     0.283 C 
HETATM   25  C   UNL     1      23.898  37.827  53.735  1.00  0.00     0.153 C 
HETATM   26  C   UNL     1      18.768  34.802  58.580  1.00  0.00     0.153 C 
HETATM   27  C   UNL     1      19.311  42.889  57.770  1.00  0.00     0.153 C 
ENDROOT
BRANCH  15  28
HETATM   28  C   UNL     1      25.034  35.318  55.732  1.00  0.00     0.016 C 
HETATM   29  C   UNL     1      25.601  34.851  57.071  1.00  0.00     0.012 C 
HETATM   30  C   UNL     1      25.081  34.186  54.707  1.00  0.00     0.012 C 
ENDBRANCH  15  28
BRANCH  14  31
HETATM   31  C   UNL     1      20.938  32.886  58.109  1.00  0.00     0.014 C 
HETATM   32  C   UNL     1      22.059  32.251  57.284  1.00  0.00     0.012 C 
BRANCH  31  33
HETATM   33  C   UNL     1      20.742  32.100  59.417  1.00  0.00     0.002 C 
HETATM   34  C   UNL     1      21.641  30.877  59.533  1.00  0.00     0.005 C 
ENDBRANCH  31  33
ENDBRANCH  14  31
BRANCH  13  35
HETATM   35  C   UNL     1      25.032  40.377  54.648  1.00  0.00     0.014 C 
HETATM   36  C   UNL     1      25.369  41.714  55.314  1.00  0.00     0.012 C 
BRANCH  35  37
HETATM   37  C   UNL     1      26.304  39.519  54.531  1.00  0.00     0.002 C 
HETATM   38  C   UNL     1      27.545  40.188  55.105  1.00  0.00     0.005 C 
ENDBRANCH  35  37
ENDBRANCH  13  35
BRANCH  17  39
HETATM   39  C   UNL     1      18.899  37.552  61.041  1.00  0.00     0.016 C 
HETATM   40  C   UNL     1      19.503  36.454  61.913  1.00  0.00     0.012 C 
HETATM   41  C   UNL     1      17.375  37.462  61.044  1.00  0.00     0.012 C 
ENDBRANCH  17  39
BRANCH  18  42
HETATM   42  C   UNL     1      19.749  39.656  54.031  1.00  0.00     0.016 C 
HETATM   43  C   UNL     1      20.682  38.654  53.351  1.00  0.00     0.012 C 
HETATM   44  C   UNL     1      18.306  39.155  53.990  1.00  0.00     0.012 C 
ENDBRANCH  18  42
BRANCH  16  45
HETATM   45  C   UNL     1      21.128  41.478  59.512  1.00  0.00     0.010 C 
HETATM   46  C   UNL     1      22.604  41.114  59.672  1.00  0.00     0.012 C 
HETATM   47  C   UNL     1      20.357  41.154  60.790  1.00  0.00     0.012 C 
ENDBRANCH  16  45
TORSDOF 8
ENDMDL
MODEL 3
REMARK VINA RESULT:    -5.069      3.499      7.866
REMARK INTER + INTRA:          -6.869
REMARK INTER:                  -7.354
REMARK INTRA:                   0.485
REMARK UNBOUND:                 0.571
REMARK  8 active torsions:
REMARK  status: ('A' for Active; 'I' for Inactive)
REMARK    1  A    between atoms: C_13  and  C_15 
REMARK    2  A    between atoms: C_14  and  C_16 
REMARK    3  A    between atoms: C_15  and  C_22 
REMARK    4  A    between atoms: C_16  and  C_23 
REMARK    5  A    between atoms: C_17  and  C_21 
REMARK    6  A    between atoms: C_18  and  C_24 
REMARK    7  A    between atoms: C_19  and  C_27 
REMARK    8  A    between atoms: C_20  and  C_30 
ROOT
HETATM    1  O   UNL     1      19.268  40.140  55.644  1.00  0.00    -0.304 OA
HETATM    2  O   UNL     1      23.070  42.618  57.332  1.00  0.00    -0.304 OA
HETATM    3  O   UNL     1      24.225  39.055  55.779  1.00  0.00    -0.304 OA
HETATM    4  O   UNL     1      21.347  41.563  54.875  1.00  0.00    -0.270 OA
HETATM    5  O   UNL     1      20.132  39.629  57.722  1.00  0.00    -0.263 OA
HETATM    6  O   UNL     1      22.095  38.364  54.474  1.00  0.00    -0.270 OA
HETATM    7  O   UNL     1      24.114  44.649  57.038  1.00  0.00    -0.263 OA
HETATM    8  O   UNL     1      26.051  43.164  58.977  1.00  0.00    -0.270 OA
HETATM    9  O   UNL     1      25.838  39.019  57.428  1.00  0.00    -0.263 OA
HETATM   10  N   UNL     1      20.855  43.447  56.136  1.00  0.00    -0.340 N 
HETATM   11  N   UNL     1      21.204  37.403  56.389  1.00  0.00    -0.340 N 
HETATM   12  N   UNL     1      26.148  41.768  57.129  1.00  0.00    -0.340 N 
HETATM   13  C   UNL     1      22.121  44.113  55.750  1.00  0.00     0.190 C 
HETATM   14  C   UNL     1      19.853  37.886  56.044  1.00  0.00     0.190 C 
HETATM   15  C   UNL     1      19.218  41.543  55.969  1.00  0.00     0.227 C 
HETATM   16  C   UNL     1      25.485  41.006  56.049  1.00  0.00     0.190 C 
HETATM   17  C   UNL     1      23.666  37.785  56.178  1.00  0.00     0.227 C 
HETATM   18  C   UNL     1      23.965  42.148  58.345  1.00  0.00     0.227 C 
HETATM   19  C   UNL     1      20.568  42.177  55.613  1.00  0.00     0.250 C 
HETATM   20  C   UNL     1      19.776  39.302  56.598  1.00  0.00     0.283 C 
HETATM   21  C   UNL     1      22.263  37.853  55.588  1.00  0.00     0.250 C 
HETATM   22  C   UNL     1      23.200  43.867  56.804  1.00  0.00     0.283 C 
HETATM   23  C   UNL     1      25.475  42.423  58.173  1.00  0.00     0.250 C 
HETATM   24  C   UNL     1      25.238  39.584  56.526  1.00  0.00     0.283 C 
HETATM   25  C   UNL     1      20.017  44.152  57.112  1.00  0.00     0.153 C 
HETATM   26  C   UNL     1      21.384  36.614  57.610  1.00  0.00     0.153 C 
HETATM   27  C   UNL     1      27.609  41.845  57.104  1.00  0.00     0.153 C 
ENDROOT
BRANCH  15  28
HETATM   28  C   UNL     1      18.111  42.158  55.123  1.00  0.00     0.016 C 
HETATM   29  C   UNL     1      17.764  41.248  53.945  1.00  0.00     0.012 C 
HETATM   30  C   UNL     1      16.870  42.430  55.972  1.00  0.00     0.012 C 
ENDBRANCH  15  28
BRANCH  14  31
HETATM   31  C   UNL     1      18.682  37.065  56.566  1.00  0.00     0.014 C 
HETATM   32  C   UNL     1      17.840  37.915  57.521  1.00  0.00     0.012 C 
BRANCH  31  33
HETATM   33  C   UNL     1      17.796  36.521  55.432  1.00  0.00     0.002 C 
HETATM   34  C   UNL     1      17.424  37.570  54.393  1.00  0.00     0.005 C 
ENDBRANCH  31  33
ENDBRANCH  14  31
BRANCH  13  35
HETATM   35  C   UNL     1      21.957  45.603  55.453  1.00  0.00     0.014 C 
HETATM   36  C   UNL     1      23.169  46.111  54.666  1.00  0.00     0.012 C 
BRANCH  35  37
HETATM   37  C   UNL     1      20.666  45.907  54.672  1.00  0.00     0.002 C 
HETATM   38  C   UNL     1      20.914  46.465  53.278  1.00  0.00     0.005 C 
ENDBRANCH  35  37
ENDBRANCH  13  35
BRANCH  17  39
HETATM   39  C   UNL     1      24.455  36.646  55.559  1.00  0.00     0.016 C 
HETATM   40  C   UNL     1      23.598  35.886  54.550  1.00  0.00     0.012 C 
HETATM   41  C   UNL     1      24.974  35.702  56.641  1.00  0.00     0.012 C 
ENDBRANCH  17  39
BRANCH  18  42
HETATM   42  C   UNL     1      23.452  42.665  59.690  1.00  0.00     0.016 C 
HETATM   43  C   UNL     1      21.924  42.686  59.713  1.00  0.00     0.012 C 
HETATM   44  C   UNL     1      23.993  41.815  60.837  1.00  0.00     0.012 C 
ENDBRANCH  18  42
BRANCH  16  45
HETATM   45  C   UNL     1      26.232  40.989  54.717  1.00  0.00     0.010 C 
HETATM   46  C   UNL     1      25.377  41.604  53.610  1.00  0.00     0.012 C 
HETATM   47  C   UNL     1      26.643  39.565  54.345  1.00  0.00     0.012 C 
ENDBRANCH  16  45
TORSDOF 8
ENDMDL
MODEL 4
REMARK VINA RESULT:    -4.795      3.156      8.310
REMARK INTER + INTRA:          -6.467
REMARK INTER:                  -7.230
REMARK INTRA:                   0.763
REMARK UNBOUND:                 0.571
REMARK  8 active torsions:
REMARK  status: ('A' for Active; 'I' for Inactive)
REMARK    1  A    between atoms: C_13  and  C_15 
REMARK    2  A    between atoms: C_14  and  C_16 
REMARK    3  A    between atoms: C_15  and  C_22 
REMARK    4  A    between atoms: C_16  and  C_23 
REMARK    5  A    between atoms: C_17  and  C_21 
REMARK    6  A    between atoms: C_18  and  C_24 
REMARK    7  A    between atoms: C_19  and  C_27 
REMARK    8  A    between atoms: C_20  and  C_30 
ROOT
HETATM    1  O   UNL     1      19.045  43.291  55.703  1.00  0.00    -0.304 OA
HETATM    2  O   UNL     1      21.345  39.032  55.826  1.00  0.00    -0.304 OA
HETATM    3  O   UNL     1      22.133  41.212  59.153  1.00  0.00    -0.304 OA
HETATM    4  O   UNL     1      18.985  40.912  56.833  1.00  0.00    -0.270 OA
HETATM    5  O   UNL     1      21.276  43.182  55.123  1.00  0.00    -0.263 OA
HETATM    6  O   UNL     1      20.302  43.038  59.001  1.00  0.00    -0.270 OA
HETATM    7  O   UNL     1      20.877  36.780  55.737  1.00  0.00    -0.263 OA
HETATM    8  O   UNL     1      23.933  36.814  56.348  1.00  0.00    -0.270 OA
HETATM    9  O   UNL     1      24.241  40.276  59.095  1.00  0.00    -0.263 OA
HETATM   10  N   UNL     1      18.965  39.688  54.862  1.00  0.00    -0.340 N 
HETATM   11  N   UNL     1      21.673  44.336  57.651  1.00  0.00    -0.340 N 
HETATM   12  N   UNL     1      23.112  37.884  58.234  1.00  0.00    -0.340 N 
HETATM   13  C   UNL     1      19.068  38.400  55.588  1.00  0.00     0.190 C 
HETATM   14  C   UNL     1      20.523  44.753  56.825  1.00  0.00     0.190 C 
HETATM   15  C   UNL     1      18.725  42.192  54.826  1.00  0.00     0.227 C 
HETATM   16  C   UNL     1      22.239  38.893  58.869  1.00  0.00     0.190 C 
HETATM   17  C   UNL     1      22.639  42.564  59.127  1.00  0.00     0.227 C 
HETATM   18  C   UNL     1      22.763  38.874  55.935  1.00  0.00     0.227 C 
HETATM   19  C   UNL     1      18.908  40.881  55.599  1.00  0.00     0.250 C 
HETATM   20  C   UNL     1      20.359  43.659  55.779  1.00  0.00     0.283 C 
HETATM   21  C   UNL     1      21.436  43.346  58.616  1.00  0.00     0.250 C 
HETATM   22  C   UNL     1      20.527  37.952  55.682  1.00  0.00     0.283 C 
HETATM   23  C   UNL     1      23.307  37.754  56.849  1.00  0.00     0.250 C 
HETATM   24  C   UNL     1      23.024  40.182  59.053  1.00  0.00     0.283 C 
HETATM   25  C   UNL     1      19.004  39.617  53.398  1.00  0.00     0.153 C 
HETATM   26  C   UNL     1      23.003  44.859  57.331  1.00  0.00     0.153 C 
HETATM   27  C   UNL     1      23.820  36.952  59.112  1.00  0.00     0.153 C 
ENDROOT
BRANCH  15  28
HETATM   28  C   UNL     1      17.268  42.360  54.415  1.00  0.00     0.016 C 
HETATM   29  C   UNL     1      16.481  43.086  55.504  1.00  0.00     0.012 C 
HETATM   30  C   UNL     1      17.166  43.112  53.089  1.00  0.00     0.012 C 
ENDBRANCH  15  28
BRANCH  14  31
HETATM   31  C   UNL     1      20.633  46.108  56.140  1.00  0.00     0.014 C 
HETATM   32  C   UNL     1      20.054  46.021  54.726  1.00  0.00     0.012 C 
BRANCH  31  33
HETATM   33  C   UNL     1      19.920  47.221  56.928  1.00  0.00     0.002 C 
HETATM   34  C   UNL     1      19.781  48.524  56.152  1.00  0.00     0.005 C 
ENDBRANCH  31  33
ENDBRANCH  14  31
BRANCH  13  35
HETATM   35  C   UNL     1      18.181  37.301  55.004  1.00  0.00     0.014 C 
HETATM   36  C   UNL     1      17.433  36.585  56.132  1.00  0.00     0.012 C 
BRANCH  35  37
HETATM   37  C   UNL     1      17.174  37.845  53.975  1.00  0.00     0.002 C 
HETATM   38  C   UNL     1      16.284  36.770  53.368  1.00  0.00     0.005 C 
ENDBRANCH  35  37
ENDBRANCH  13  35
BRANCH  17  39
HETATM   39  C   UNL     1      23.015  43.011  60.528  1.00  0.00     0.016 C 
HETATM   40  C   UNL     1      22.143  44.183  60.969  1.00  0.00     0.012 C 
HETATM   41  C   UNL     1      24.494  43.387  60.593  1.00  0.00     0.012 C 
ENDBRANCH  17  39
BRANCH  18  42
HETATM   42  C   UNL     1      23.324  38.760  54.517  1.00  0.00     0.016 C 
HETATM   43  C   UNL     1      22.530  39.638  53.549  1.00  0.00     0.012 C 
HETATM   44  C   UNL     1      24.804  39.138  54.489  1.00  0.00     0.012 C 
ENDBRANCH  18  42
BRANCH  16  45
HETATM   45  C   UNL     1      21.615  38.466  60.196  1.00  0.00     0.010 C 
HETATM   46  C   UNL     1      20.091  38.554  60.131  1.00  0.00     0.012 C 
HETATM   47  C   UNL     1      22.150  39.320  61.345  1.00  0.00     0.012 C 
ENDBRANCH  16  45
TORSDOF 8
ENDMDL
MODEL 5
REMARK VINA RESULT:    -4.766     19.758     22.658
REMARK INTER + INTRA:          -6.424
REMARK INTER:                  -7.064
REMARK INTRA:                   0.640
REMARK UNBOUND:                 0.571
REMARK  8 active torsions:
REMARK  status: ('A' for Active; 'I' for Inactive)
REMARK    1  A    between atoms: C_13  and  C_15 
REMARK    2  A    between atoms: C_14  and  C_16 
REMARK    3  A    between atoms: C_15  and  C_22 
REMARK    4  A    between atoms: C_16  and  C_23 
REMARK    5  A    between atoms: C_17  and  C_21 
REMARK    6  A    between atoms: C_18  and  C_24 
REMARK    7  A    between atoms: C_19  and  C_27 
REMARK    8  A    between atoms: C_20  and  C_30 
ROOT
HETATM    1  O   UNL     1      11.286  56.116  53.020  1.00  0.00    -0.304 OA
HETATM    2  O   UNL     1       9.640  57.498  57.360  1.00  0.00    -0.304 OA
HETATM    3  O   UNL     1       7.928  54.012  56.192  1.00  0.00    -0.304 OA
HETATM    4  O   UNL     1      11.470  55.586  55.594  1.00  0.00    -0.270 OA
HETATM    5  O   UNL     1       9.245  57.182  53.180  1.00  0.00    -0.263 OA
HETATM    6  O   UNL     1       9.474  53.328  54.228  1.00  0.00    -0.270 OA
HETATM    7  O   UNL     1      10.435  58.003  59.460  1.00  0.00    -0.263 OA
HETATM    8  O   UNL     1       7.345  58.089  59.864  1.00  0.00    -0.270 OA
HETATM    9  O   UNL     1       6.026  54.749  57.271  1.00  0.00    -0.263 OA
HETATM   10  N   UNL     1      12.041  57.733  56.262  1.00  0.00    -0.340 N 
HETATM   11  N   UNL     1       8.213  54.606  52.758  1.00  0.00    -0.340 N 
HETATM   12  N   UNL     1       7.631  55.873  59.246  1.00  0.00    -0.340 N 
HETATM   13  C   UNL     1      11.987  57.369  57.697  1.00  0.00     0.190 C 
HETATM   14  C   UNL     1       9.427  55.038  52.039  1.00  0.00     0.190 C 
HETATM   15  C   UNL     1      11.921  57.132  53.822  1.00  0.00     0.227 C 
HETATM   16  C   UNL     1       8.212  54.844  58.359  1.00  0.00     0.190 C 
HETATM   17  C   UNL     1       7.248  53.833  54.931  1.00  0.00     0.227 C 
HETATM   18  C   UNL     1       8.265  57.743  57.669  1.00  0.00     0.227 C 
HETATM   19  C   UNL     1      11.785  56.745  55.300  1.00  0.00     0.250 C 
HETATM   20  C   UNL     1       9.942  56.248  52.807  1.00  0.00     0.283 C 
HETATM   21  C   UNL     1       8.401  53.870  53.937  1.00  0.00     0.250 C 
HETATM   22  C   UNL     1      10.617  57.706  58.286  1.00  0.00     0.283 C 
HETATM   23  C   UNL     1       7.723  57.258  59.032  1.00  0.00     0.250 C 
HETATM   24  C   UNL     1       7.230  54.542  57.239  1.00  0.00     0.283 C 
HETATM   25  C   UNL     1      12.292  59.146  55.956  1.00  0.00     0.153 C 
HETATM   26  C   UNL     1       6.907  55.080  52.294  1.00  0.00     0.153 C 
HETATM   27  C   UNL     1       6.909  55.414  60.433  1.00  0.00     0.153 C 
ENDROOT
BRANCH  15  28
HETATM   28  C   UNL     1      13.390  57.162  53.421  1.00  0.00     0.016 C 
HETATM   29  C   UNL     1      13.838  55.793  52.911  1.00  0.00     0.012 C 
HETATM   30  C   UNL     1      13.639  58.235  52.363  1.00  0.00     0.012 C 
ENDBRANCH  15  28
BRANCH  14  31
HETATM   31  C   UNL     1       9.256  55.396  50.569  1.00  0.00     0.014 C 
HETATM   32  C   UNL     1       9.451  56.902  50.378  1.00  0.00     0.012 C 
BRANCH  31  33
HETATM   33  C   UNL     1      10.231  54.623  49.662  1.00  0.00     0.002 C 
HETATM   34  C   UNL     1      10.603  55.373  48.390  1.00  0.00     0.005 C 
ENDBRANCH  31  33
ENDBRANCH  14  31
BRANCH  13  35
HETATM   35  C   UNL     1      13.117  57.982  58.523  1.00  0.00     0.014 C 
HETATM   36  C   UNL     1      13.250  57.238  59.854  1.00  0.00     0.012 C 
BRANCH  35  37
HETATM   37  C   UNL     1      14.465  57.962  57.779  1.00  0.00     0.002 C 
HETATM   38  C   UNL     1      15.643  57.581  58.664  1.00  0.00     0.005 C 
ENDBRANCH  35  37
ENDBRANCH  13  35
BRANCH  17  39
HETATM   39  C   UNL     1       6.552  52.485  54.897  1.00  0.00     0.016 C 
HETATM   40  C   UNL     1       7.101  51.626  53.760  1.00  0.00     0.012 C 
HETATM   41  C   UNL     1       5.042  52.664  54.754  1.00  0.00     0.012 C 
ENDBRANCH  17  39
BRANCH  18  42
HETATM   42  C   UNL     1       8.006  59.237  57.465  1.00  0.00     0.016 C 
HETATM   43  C   UNL     1       8.820  59.770  56.286  1.00  0.00     0.012 C 
HETATM   44  C   UNL     1       6.518  59.503  57.251  1.00  0.00     0.012 C 
ENDBRANCH  18  42
BRANCH  16  45
HETATM   45  C   UNL     1       8.626  53.549  59.055  1.00  0.00     0.010 C 
HETATM   46  C   UNL     1      10.089  53.218  58.757  1.00  0.00     0.012 C 
HETATM   47  C   UNL     1       7.721  52.393  58.631  1.00  0.00     0.012 C 
ENDBRANCH  16  45
TORSDOF 8
ENDMDL
MODEL 6
REMARK VINA RESULT:    -4.765      3.294      9.031
REMARK INTER + INTRA:          -6.423
REMARK INTER:                  -6.852
REMARK INTRA:                   0.429
REMARK UNBOUND:                 0.571
REMARK  8 active torsions:
REMARK  status: ('A' for Active; 'I' for Inactive)
REMARK    1  A    between atoms: C_13  and  C_15 
REMARK    2  A    between atoms: C_14  and  C_16 
REMARK    3  A    between atoms: C_15  and  C_22 
REMARK    4  A    between atoms: C_16  and  C_23 
REMARK    5  A    between atoms: C_17  and  C_21 
REMARK    6  A    between atoms: C_18  and  C_24 
REMARK    7  A    between atoms: C_19  and  C_27 
REMARK    8  A    between atoms: C_20  and  C_30 
ROOT
HETATM    1  O   UNL     1      21.119  43.423  55.664  1.00  0.00    -0.304 OA
HETATM    2  O   UNL     1      24.355  40.287  57.439  1.00  0.00    -0.304 OA
HETATM    3  O   UNL     1      21.203  38.349  55.781  1.00  0.00    -0.304 OA
HETATM    4  O   UNL     1      23.006  41.730  54.945  1.00  0.00    -0.270 OA
HETATM    5  O   UNL     1      20.758  42.456  57.728  1.00  0.00    -0.263 OA
HETATM    6  O   UNL     1      20.079  40.267  54.449  1.00  0.00    -0.270 OA
HETATM    7  O   UNL     1      26.579  39.741  57.210  1.00  0.00    -0.263 OA
HETATM    8  O   UNL     1      25.523  37.506  59.108  1.00  0.00    -0.270 OA
HETATM    9  O   UNL     1      21.489  36.764  57.433  1.00  0.00    -0.263 OA
HETATM   10  N   UNL     1      24.686  42.639  56.261  1.00  0.00    -0.340 N 
HETATM   11  N   UNL     1      18.880  40.905  56.331  1.00  0.00    -0.340 N 
HETATM   12  N   UNL     1      24.243  37.098  57.218  1.00  0.00    -0.340 N 
HETATM   13  C   UNL     1      25.637  41.562  55.899  1.00  0.00     0.190 C 
HETATM   14  C   UNL     1      19.050  42.332  55.996  1.00  0.00     0.190 C 
HETATM   15  C   UNL     1      22.463  43.794  56.031  1.00  0.00     0.227 C 
HETATM   16  C   UNL     1      23.382  37.571  56.114  1.00  0.00     0.190 C 
HETATM   17  C   UNL     1      19.826  38.599  56.139  1.00  0.00     0.227 C 
HETATM   18  C   UNL     1      24.073  39.304  58.439  1.00  0.00     0.227 C 
HETATM   19  C   UNL     1      23.401  42.627  55.699  1.00  0.00     0.250 C 
HETATM   20  C   UNL     1      20.393  42.731  56.593  1.00  0.00     0.283 C 
HETATM   21  C   UNL     1      19.587  39.981  55.547  1.00  0.00     0.250 C 
HETATM   22  C   UNL     1      25.615  40.450  56.949  1.00  0.00     0.283 C 
HETATM   23  C   UNL     1      24.694  37.899  58.280  1.00  0.00     0.250 C 
HETATM   24  C   UNL     1      21.927  37.482  56.547  1.00  0.00     0.283 C 
HETATM   25  C   UNL     1      25.149  43.612  57.256  1.00  0.00     0.153 C 
HETATM   26  C   UNL     1      18.118  40.542  57.528  1.00  0.00     0.153 C 
HETATM   27  C   UNL     1      24.655  35.694  57.201  1.00  0.00     0.153 C 
ENDROOT
BRANCH  15  28
HETATM   28  C   UNL     1      22.831  45.016  55.200  1.00  0.00     0.016 C 
HETATM   29  C   UNL     1      21.653  45.451  54.330  1.00  0.00     0.012 C 
HETATM   30  C   UNL     1      23.283  46.164  56.101  1.00  0.00     0.012 C 
ENDBRANCH  15  28
BRANCH  14  31
HETATM   31  C   UNL     1      17.965  43.281  56.490  1.00  0.00     0.014 C 
HETATM   32  C   UNL     1      18.566  44.665  56.744  1.00  0.00     0.012 C 
BRANCH  31  33
HETATM   33  C   UNL     1      16.792  43.393  55.501  1.00  0.00     0.002 C 
HETATM   34  C   UNL     1      17.162  43.018  54.072  1.00  0.00     0.005 C 
ENDBRANCH  31  33
ENDBRANCH  14  31
BRANCH  13  35
HETATM   35  C   UNL     1      27.058  42.066  55.647  1.00  0.00     0.014 C 
HETATM   36  C   UNL     1      27.959  40.896  55.240  1.00  0.00     0.012 C 
BRANCH  35  37
HETATM   37  C   UNL     1      27.109  43.162  54.567  1.00  0.00     0.002 C 
HETATM   38  C   UNL     1      26.830  42.646  53.163  1.00  0.00     0.005 C 
ENDBRANCH  35  37
ENDBRANCH  13  35
BRANCH  17  39
HETATM   39  C   UNL     1      18.920  37.570  55.488  1.00  0.00     0.016 C 
HETATM   40  C   UNL     1      17.940  38.247  54.533  1.00  0.00     0.012 C 
HETATM   41  C   UNL     1      18.168  36.769  56.549  1.00  0.00     0.012 C 
ENDBRANCH  17  39
BRANCH  18  42
HETATM   42  C   UNL     1      24.417  39.917  59.797  1.00  0.00     0.016 C 
HETATM   43  C   UNL     1      24.077  41.407  59.820  1.00  0.00     0.012 C 
HETATM   44  C   UNL     1      23.686  39.185  60.921  1.00  0.00     0.012 C 
ENDBRANCH  18  42
BRANCH  16  45
HETATM   45  C   UNL     1      23.578  36.845  54.784  1.00  0.00     0.010 C 
HETATM   46  C   UNL     1      23.824  37.845  53.655  1.00  0.00     0.012 C 
HETATM   47  C   UNL     1      22.370  35.965  54.465  1.00  0.00     0.012 C 
ENDBRANCH  16  45
TORSDOF 8
ENDMDL
MODEL 7
REMARK VINA RESULT:    -4.669     20.510     23.725
REMARK INTER + INTRA:          -6.281
REMARK INTER:                  -6.533
REMARK INTRA:                   0.252
REMARK UNBOUND:                 0.571
REMARK  8 active torsions:
REMARK  status: ('A' for Active; 'I' for Inactive)
REMARK    1  A    between atoms: C_13  and  C_15 
REMARK    2  A    between atoms: C_14  and  C_16 
REMARK    3  A    between atoms: C_15  and  C_22 
REMARK    4  A    between atoms: C_16  and  C_23 
REMARK    5  A    between atoms: C_17  and  C_21 
REMARK    6  A    between atoms: C_18  and  C_24 
REMARK    7  A    between atoms: C_19  and  C_27 
REMARK    8  A    between atoms: C_20  and  C_30 
ROOT
HETATM    1  O   UNL     1      10.437  56.619  52.597  1.00  0.00    -0.304 OA
HETATM    2  O   UNL     1       6.178  55.337  54.512  1.00  0.00    -0.304 OA
HETATM    3  O   UNL     1       8.149  57.920  56.937  1.00  0.00    -0.304 OA
HETATM    4  O   UNL     1       7.993  57.496  53.041  1.00  0.00    -0.270 OA
HETATM    5  O   UNL     1      10.363  54.986  54.227  1.00  0.00    -0.263 OA
HETATM    6  O   UNL     1       9.982  58.811  55.337  1.00  0.00    -0.270 OA
HETATM    7  O   UNL     1       3.936  55.378  53.992  1.00  0.00    -0.263 OA
HETATM    8  O   UNL     1       3.932  54.362  56.939  1.00  0.00    -0.270 OA
HETATM    9  O   UNL     1       7.218  56.757  58.698  1.00  0.00    -0.263 OA
HETATM   10  N   UNL     1       6.893  55.744  51.992  1.00  0.00    -0.340 N 
HETATM   11  N   UNL     1      11.360  57.025  55.880  1.00  0.00    -0.340 N 
HETATM   12  N   UNL     1       4.883  56.458  57.214  1.00  0.00    -0.340 N 
HETATM   13  C   UNL     1       5.563  56.249  52.407  1.00  0.00     0.190 C 
HETATM   14  C   UNL     1      11.827  56.916  54.484  1.00  0.00     0.190 C 
HETATM   15  C   UNL     1       9.394  55.967  51.845  1.00  0.00     0.227 C 
HETATM   16  C   UNL     1       5.852  57.500  56.812  1.00  0.00     0.190 C 
HETATM   17  C   UNL     1       9.500  57.714  57.402  1.00  0.00     0.227 C 
HETATM   18  C   UNL     1       6.014  54.706  55.785  1.00  0.00     0.227 C 
HETATM   19  C   UNL     1       8.038  56.471  52.351  1.00  0.00     0.250 C 
HETATM   20  C   UNL     1      10.799  56.040  53.782  1.00  0.00     0.283 C 
HETATM   21  C   UNL     1      10.312  57.923  56.131  1.00  0.00     0.250 C 
HETATM   22  C   UNL     1       5.109  55.569  53.699  1.00  0.00     0.283 C 
HETATM   23  C   UNL     1       4.840  55.160  56.681  1.00  0.00     0.250 C 
HETATM   24  C   UNL     1       7.127  57.330  57.623  1.00  0.00     0.283 C 
HETATM   25  C   UNL     1       6.912  54.459  51.285  1.00  0.00     0.153 C 
HETATM   26  C   UNL     1      11.901  56.105  56.883  1.00  0.00     0.153 C 
HETATM   27  C   UNL     1       3.900  56.808  58.239  1.00  0.00     0.153 C 
ENDROOT
BRANCH  15  28
HETATM   28  C   UNL     1       9.587  56.357  50.385  1.00  0.00     0.016 C 
HETATM   29  C   UNL     1      10.360  57.670  50.276  1.00  0.00     0.012 C 
HETATM   30  C   UNL     1      10.307  55.247  49.621  1.00  0.00     0.012 C 
ENDBRANCH  15  28
BRANCH  14  31
HETATM   31  C   UNL     1      13.222  56.342  54.276  1.00  0.00     0.014 C 
HETATM   32  C   UNL     1      13.426  56.004  52.798  1.00  0.00     0.012 C 
BRANCH  31  33
HETATM   33  C   UNL     1      14.326  57.303  54.749  1.00  0.00     0.002 C 
HETATM   34  C   UNL     1      15.607  56.598  55.175  1.00  0.00     0.005 C 
ENDBRANCH  31  33
ENDBRANCH  14  31
BRANCH  13  35
HETATM   35  C   UNL     1       4.502  56.136  51.313  1.00  0.00     0.014 C 
HETATM   36  C   UNL     1       3.397  57.168  51.553  1.00  0.00     0.012 C 
BRANCH  35  37
HETATM   37  C   UNL     1       5.090  56.322  49.903  1.00  0.00     0.002 C 
HETATM   38  C   UNL     1       5.387  57.773  49.553  1.00  0.00     0.005 C 
ENDBRANCH  35  37
ENDBRANCH  13  35
BRANCH  17  39
HETATM   39  C   UNL     1       9.860  58.755  58.447  1.00  0.00     0.016 C 
HETATM   40  C   UNL     1      11.021  59.620  57.965  1.00  0.00     0.012 C 
HETATM   41  C   UNL     1      10.205  58.085  59.776  1.00  0.00     0.012 C 
ENDBRANCH  17  39
BRANCH  18  42
HETATM   42  C   UNL     1       5.987  53.195  55.551  1.00  0.00     0.016 C 
HETATM   43  C   UNL     1       6.891  52.814  54.379  1.00  0.00     0.012 C 
HETATM   44  C   UNL     1       6.405  52.445  56.814  1.00  0.00     0.012 C 
ENDBRANCH  18  42
BRANCH  16  45
HETATM   45  C   UNL     1       5.344  58.936  56.930  1.00  0.00     0.010 C 
HETATM   46  C   UNL     1       5.456  59.660  55.589  1.00  0.00     0.012 C 
HETATM   47  C   UNL     1       6.111  59.694  58.013  1.00  0.00     0.012 C 
ENDBRANCH  16  45
TORSDOF 8
ENDMDL
MODEL 8
REMARK VINA RESULT:    -4.511     19.849     23.744
REMARK INTER + INTRA:          -6.050
REMARK INTER:                  -7.239
REMARK INTRA:                   1.190
REMARK UNBOUND:                 0.571
REMARK  8 active torsions:
REMARK  status: ('A' for Active; 'I' for Inactive)
REMARK    1  A    between atoms: C_13  and  C_15 
REMARK    2  A    between atoms: C_14  and  C_16 
REMARK    3  A    between atoms: C_15  and  C_22 
REMARK    4  A    between atoms: C_16  and  C_23 
REMARK    5  A    between atoms: C_17  and  C_21 
REMARK    6  A    between atoms: C_18  and  C_24 
REMARK    7  A    between atoms: C_19  and  C_27 
REMARK    8  A    between atoms: C_20  and  C_30 
ROOT
HETATM    1  O   UNL     1       8.512  57.004  51.200  1.00  0.00    -0.304 OA
HETATM    2  O   UNL     1      10.366  56.919  55.673  1.00  0.00    -0.304 OA
HETATM    3  O   UNL     1       7.071  54.571  55.416  1.00  0.00    -0.304 OA
HETATM    4  O   UNL     1       9.899  55.503  52.863  1.00  0.00    -0.270 OA
HETATM    5  O   UNL     1       7.572  58.316  52.851  1.00  0.00    -0.263 OA
HETATM    6  O   UNL     1       6.780  54.394  52.847  1.00  0.00    -0.270 OA
HETATM    7  O   UNL     1      12.337  56.409  56.747  1.00  0.00    -0.263 OA
HETATM    8  O   UNL     1      10.392  56.956  59.121  1.00  0.00    -0.270 OA
HETATM    9  O   UNL     1       6.622  55.206  57.588  1.00  0.00    -0.263 OA
HETATM   10  N   UNL     1      11.553  57.067  53.307  1.00  0.00    -0.340 N 
HETATM   11  N   UNL     1       5.554  56.364  52.825  1.00  0.00    -0.340 N 
HETATM   12  N   UNL     1       9.350  55.138  58.129  1.00  0.00    -0.340 N 
HETATM   13  C   UNL     1      12.186  56.199  54.328  1.00  0.00     0.190 C 
HETATM   14  C   UNL     1       6.187  56.784  51.560  1.00  0.00     0.190 C 
HETATM   15  C   UNL     1       9.833  57.484  51.520  1.00  0.00     0.227 C 
HETATM   16  C   UNL     1       8.846  54.433  56.932  1.00  0.00     0.190 C 
HETATM   17  C   UNL     1       5.792  55.030  54.926  1.00  0.00     0.227 C 
HETATM   18  C   UNL     1       9.658  57.300  56.856  1.00  0.00     0.227 C 
HETATM   19  C   UNL     1      10.423  56.597  52.622  1.00  0.00     0.250 C 
HETATM   20  C   UNL     1       7.481  57.476  51.965  1.00  0.00     0.283 C 
HETATM   21  C   UNL     1       6.066  55.211  53.439  1.00  0.00     0.250 C 
HETATM   22  C   UNL     1      11.678  56.554  55.726  1.00  0.00     0.283 C 
HETATM   23  C   UNL     1       9.852  56.449  58.131  1.00  0.00     0.250 C 
HETATM   24  C   UNL     1       7.382  54.789  56.727  1.00  0.00     0.283 C 
HETATM   25  C   UNL     1      12.128  58.407  53.142  1.00  0.00     0.153 C 
HETATM   26  C   UNL     1       4.546  57.234  53.437  1.00  0.00     0.153 C 
HETATM   27  C   UNL     1       9.326  54.415  59.400  1.00  0.00     0.153 C 
ENDROOT
BRANCH  15  28
HETATM   28  C   UNL     1      10.668  57.368  50.251  1.00  0.00     0.016 C 
HETATM   29  C   UNL     1      10.061  56.339  49.299  1.00  0.00     0.012 C 
HETATM   30  C   UNL     1      10.793  58.725  49.562  1.00  0.00     0.012 C 
ENDBRANCH  15  28
BRANCH  14  31
HETATM   31  C   UNL     1       5.370  57.704  50.663  1.00  0.00     0.014 C 
HETATM   32  C   UNL     1       6.176  58.052  49.409  1.00  0.00     0.012 C 
BRANCH  31  33
HETATM   33  C   UNL     1       4.021  57.083  50.261  1.00  0.00     0.002 C 
HETATM   34  C   UNL     1       2.871  58.081  50.244  1.00  0.00     0.005 C 
ENDBRANCH  31  33
ENDBRANCH  14  31
BRANCH  13  35
HETATM   35  C   UNL     1      13.713  56.207  54.269  1.00  0.00     0.014 C 
HETATM   36  C   UNL     1      14.181  55.805  52.868  1.00  0.00     0.012 C 
BRANCH  35  37
HETATM   37  C   UNL     1      14.308  57.577  54.642  1.00  0.00     0.002 C 
HETATM   38  C   UNL     1      15.765  57.740  54.235  1.00  0.00     0.005 C 
ENDBRANCH  35  37
ENDBRANCH  13  35
BRANCH  17  39
HETATM   39  C   UNL     1       4.732  53.969  55.152  1.00  0.00     0.016 C 
HETATM   40  C   UNL     1       5.260  52.590  54.765  1.00  0.00     0.012 C 
HETATM   41  C   UNL     1       3.465  54.299  54.364  1.00  0.00     0.012 C 
ENDBRANCH  17  39
BRANCH  18  42
HETATM   42  C   UNL     1       9.958  58.776  57.118  1.00  0.00     0.016 C 
HETATM   43  C   UNL     1      10.118  59.537  55.802  1.00  0.00     0.012 C 
HETATM   44  C   UNL     1       8.860  59.408  57.971  1.00  0.00     0.012 C 
ENDBRANCH  18  42
BRANCH  16  45
HETATM   45  C   UNL     1       9.017  52.915  56.954  1.00  0.00     0.010 C 
HETATM   46  C   UNL     1       9.199  52.370  55.538  1.00  0.00     0.012 C 
HETATM   47  C   UNL     1       7.823  52.246  57.634  1.00  0.00     0.012 C 
ENDBRANCH  16  45
TORSDOF 8
ENDMDL
MODEL 9
REMARK VINA RESULT:    -4.502      3.109      8.053
REMARK INTER + INTRA:          -6.036
REMARK INTER:                  -6.388
REMARK INTRA:                   0.352
REMARK UNBOUND:                 0.571
REMARK  8 active torsions:
REMARK  status: ('A' for Active; 'I' for Inactive)
REMARK    1  A    between atoms: C_13  and  C_15 
REMARK    2  A    between atoms: C_14  and  C_16 
REMARK    3  A    between atoms: C_15  and  C_22 
REMARK    4  A    between atoms: C_16  and  C_23 
REMARK    5  A    between atoms: C_17  and  C_21 
REMARK    6  A    between atoms: C_18  and  C_24 
REMARK    7  A    between atoms: C_19  and  C_27 
REMARK    8  A    between atoms: C_20  and  C_30 
ROOT
HETATM    1  O   UNL     1      18.609  40.267  55.663  1.00  0.00    -0.304 OA
HETATM    2  O   UNL     1      23.343  39.886  56.608  1.00  0.00    -0.304 OA
HETATM    3  O   UNL     1      21.603  42.679  58.977  1.00  0.00    -0.304 OA
HETATM    4  O   UNL     1      20.322  39.314  57.422  1.00  0.00    -0.270 OA
HETATM    5  O   UNL     1      20.080  41.801  54.762  1.00  0.00    -0.263 OA
HETATM    6  O   UNL     1      19.093  42.142  58.624  1.00  0.00    -0.270 OA
HETATM    7  O   UNL     1      24.883  38.302  57.254  1.00  0.00    -0.263 OA
HETATM    8  O   UNL     1      26.557  40.931  57.291  1.00  0.00    -0.270 OA
HETATM    9  O   UNL     1      23.591  43.841  58.828  1.00  0.00    -0.263 OA
HETATM   10  N   UNL     1      21.560  38.049  55.923  1.00  0.00    -0.340 N 
HETATM   11  N   UNL     1      19.041  43.499  56.742  1.00  0.00    -0.340 N 
HETATM   12  N   UNL     1      24.963  41.421  58.901  1.00  0.00    -0.340 N 
HETATM   13  C   UNL     1      22.550  37.676  56.960  1.00  0.00     0.190 C 
HETATM   14  C   UNL     1      18.150  42.553  56.043  1.00  0.00     0.190 C 
HETATM   15  C   UNL     1      19.422  39.167  55.209  1.00  0.00     0.227 C 
HETATM   16  C   UNL     1      23.558  41.455  59.360  1.00  0.00     0.190 C 
HETATM   17  C   UNL     1      20.820  43.784  58.476  1.00  0.00     0.227 C 
HETATM   18  C   UNL     1      24.283  40.961  56.511  1.00  0.00     0.227 C 
HETATM   19  C   UNL     1      20.471  38.858  56.283  1.00  0.00     0.250 C 
HETATM   20  C   UNL     1      19.073  41.527  55.401  1.00  0.00     0.283 C 
HETATM   21  C   UNL     1      19.562  43.085  57.977  1.00  0.00     0.250 C 
HETATM   22  C   UNL     1      23.748  38.625  56.925  1.00  0.00     0.283 C 
HETATM   23  C   UNL     1      25.371  41.084  57.601  1.00  0.00     0.250 C 
HETATM   24  C   UNL     1      22.960  42.813  59.026  1.00  0.00     0.283 C 
HETATM   25  C   UNL     1      21.840  37.594  54.557  1.00  0.00     0.153 C 
HETATM   26  C   UNL     1      19.444  44.731  56.060  1.00  0.00     0.153 C 
HETATM   27  C   UNL     1      26.001  41.761  59.875  1.00  0.00     0.153 C 
ENDROOT
BRANCH  15  28
HETATM   28  C   UNL     1      18.493  37.974  55.025  1.00  0.00     0.016 C 
HETATM   29  C   UNL     1      17.750  37.663  56.323  1.00  0.00     0.012 C 
HETATM   30  C   UNL     1      17.503  38.231  53.890  1.00  0.00     0.012 C 
ENDBRANCH  15  28
BRANCH  14  31
HETATM   31  C   UNL     1      17.224  43.144  54.988  1.00  0.00     0.014 C 
HETATM   32  C   UNL     1      17.051  42.150  53.837  1.00  0.00     0.012 C 
BRANCH  31  33
HETATM   33  C   UNL     1      15.848  43.522  55.563  1.00  0.00     0.002 C 
HETATM   34  C   UNL     1      15.603  42.979  56.965  1.00  0.00     0.005 C 
ENDBRANCH  31  33
ENDBRANCH  14  31
BRANCH  13  35
HETATM   35  C   UNL     1      22.991  36.215  56.880  1.00  0.00     0.014 C 
HETATM   36  C   UNL     1      23.766  35.837  58.145  1.00  0.00     0.012 C 
BRANCH  35  37
HETATM   37  C   UNL     1      21.805  35.253  56.690  1.00  0.00     0.002 C 
HETATM   38  C   UNL     1      22.137  34.036  55.840  1.00  0.00     0.005 C 
ENDBRANCH  35  37
ENDBRANCH  13  35
BRANCH  17  39
HETATM   39  C   UNL     1      20.490  44.747  59.601  1.00  0.00     0.016 C 
HETATM   40  C   UNL     1      18.980  44.828  59.813  1.00  0.00     0.012 C 
HETATM   41  C   UNL     1      21.066  46.131  59.310  1.00  0.00     0.012 C 
ENDBRANCH  17  39
BRANCH  18  42
HETATM   42  C   UNL     1      24.897  40.911  55.111  1.00  0.00     0.016 C 
HETATM   43  C   UNL     1      23.857  40.471  54.080  1.00  0.00     0.012 C 
HETATM   44  C   UNL     1      25.485  42.268  54.731  1.00  0.00     0.012 C 
ENDBRANCH  18  42
BRANCH  16  45
HETATM   45  C   UNL     1      23.353  41.143  60.841  1.00  0.00     0.010 C 
HETATM   46  C   UNL     1      22.381  39.976  61.018  1.00  0.00     0.012 C 
HETATM   47  C   UNL     1      22.848  42.376  61.589  1.00  0.00     0.012 C 
ENDBRANCH  16  45
TORSDOF 8
ENDMDL
MODEL 10
REMARK VINA RESULT:    -4.453      3.756      8.610
REMARK INTER + INTRA:          -5.965
REMARK INTER:                  -6.439
REMARK INTRA:                   0.474
REMARK UNBOUND:                 0.571
REMARK  8 active torsions:
REMARK  status: ('A' for Active; 'I' for Inactive)
REMARK    1  A    between atoms: C_13  and  C_15 
REMARK    2  A    between atoms: C_14  and  C_16 
REMARK    3  A    between atoms: C_15  and  C_22 
REMARK    4  A    between atoms: C_16  and  C_23 
REMARK    5  A    between atoms: C_17  and  C_21 
REMARK    6  A    between atoms: C_18  and  C_24 
REMARK    7  A    between atoms: C_19  and  C_27 
REMARK    8  A    between atoms: C_20  and  C_30 
ROOT
HETATM    1  O   UNL     1      19.818  40.816  55.713  1.00  0.00    -0.304 OA
HETATM    2  O   UNL     1      24.576  39.914  55.703  1.00  0.00    -0.304 OA
HETATM    3  O   UNL     1      23.368  41.334  59.303  1.00  0.00    -0.304 OA
HETATM    4  O   UNL     1      21.627  39.110  56.583  1.00  0.00    -0.270 OA
HETATM    5  O   UNL     1      21.308  42.553  55.414  1.00  0.00    -0.263 OA
HETATM    6  O   UNL     1      20.796  41.089  59.102  1.00  0.00    -0.270 OA
HETATM    7  O   UNL     1      26.031  38.170  55.331  1.00  0.00    -0.263 OA
HETATM    8  O   UNL     1      27.926  40.436  56.326  1.00  0.00    -0.270 OA
HETATM    9  O   UNL     1      25.422  42.379  59.422  1.00  0.00    -0.263 OA
HETATM   10  N   UNL     1      22.570  38.652  54.514  1.00  0.00    -0.340 N 
HETATM   11  N   UNL     1      20.654  43.165  58.075  1.00  0.00    -0.340 N 
HETATM   12  N   UNL     1      26.573  40.165  58.189  1.00  0.00    -0.340 N 
HETATM   13  C   UNL     1      23.635  37.814  55.115  1.00  0.00     0.190 C 
HETATM   14  C   UNL     1      19.609  42.676  57.155  1.00  0.00     0.190 C 
HETATM   15  C   UNL     1      20.473  40.030  54.698  1.00  0.00     0.227 C 
HETATM   16  C   UNL     1      25.237  40.021  58.806  1.00  0.00     0.190 C 
HETATM   17  C   UNL     1      22.635  42.566  59.477  1.00  0.00     0.227 C 
HETATM   18  C   UNL     1      25.590  40.886  55.975  1.00  0.00     0.227 C 
HETATM   19  C   UNL     1      21.606  39.230  55.353  1.00  0.00     0.250 C 
HETATM   20  C   UNL     1      20.359  42.040  55.992  1.00  0.00     0.283 C 
HETATM   21  C   UNL     1      21.272  42.212  58.898  1.00  0.00     0.250 C 
HETATM   22  C   UNL     1      24.900  38.639  55.348  1.00  0.00     0.283 C 
HETATM   23  C   UNL     1      26.800  40.459  56.835  1.00  0.00     0.250 C 
HETATM   24  C   UNL     1      24.729  41.393  59.216  1.00  0.00     0.283 C 
HETATM   25  C   UNL     1      22.654  38.875  53.067  1.00  0.00     0.153 C 
HETATM   26  C   UNL     1      21.086  44.562  57.980  1.00  0.00     0.153 C 
HETATM   27  C   UNL     1      27.740  39.988  59.054  1.00  0.00     0.153 C 
ENDROOT
BRANCH  15  28
HETATM   28  C   UNL     1      19.427  39.084  54.123  1.00  0.00     0.016 C 
HETATM   29  C   UNL     1      18.709  38.331  55.241  1.00  0.00     0.012 C 
HETATM   30  C   UNL     1      18.424  39.849  53.261  1.00  0.00     0.012 C 
ENDBRANCH  15  28
BRANCH  14  31
HETATM   31  C   UNL     1      18.627  43.713  56.628  1.00  0.00     0.014 C 
HETATM   32  C   UNL     1      18.097  43.275  55.260  1.00  0.00     0.012 C 
BRANCH  31  33
HETATM   33  C   UNL     1      17.451  43.948  57.592  1.00  0.00     0.002 C 
HETATM   34  C   UNL     1      16.914  42.670  58.222  1.00  0.00     0.005 C 
ENDBRANCH  31  33
ENDBRANCH  14  31
BRANCH  13  35
HETATM   35  C   UNL     1      23.932  36.546  54.317  1.00  0.00     0.014 C 
HETATM   36  C   UNL     1      25.013  35.727  55.027  1.00  0.00     0.012 C 
BRANCH  35  37
HETATM   37  C   UNL     1      22.679  35.679  54.103  1.00  0.00     0.002 C 
HETATM   38  C   UNL     1      22.057  35.178  55.399  1.00  0.00     0.005 C 
ENDBRANCH  35  37
ENDBRANCH  13  35
BRANCH  17  39
HETATM   39  C   UNL     1      22.521  42.905  60.952  1.00  0.00     0.016 C 
HETATM   40  C   UNL     1      22.122  41.671  61.757  1.00  0.00     0.012 C 
HETATM   41  C   UNL     1      21.515  44.034  61.167  1.00  0.00     0.012 C 
ENDBRANCH  17  39
BRANCH  18  42
HETATM   42  C   UNL     1      26.036  41.474  54.636  1.00  0.00     0.016 C 
HETATM   43  C   UNL     1      24.846  41.619  53.687  1.00  0.00     0.012 C 
HETATM   44  C   UNL     1      26.723  42.823  54.841  1.00  0.00     0.012 C 
ENDBRANCH  18  42
BRANCH  16  45
HETATM   45  C   UNL     1      25.174  39.062  59.994  1.00  0.00     0.010 C 
HETATM   46  C   UNL     1      23.939  38.166  59.899  1.00  0.00     0.012 C 
HETATM   47  C   UNL     1      25.173  39.834  61.312  1.00  0.00     0.012 C 
ENDBRANCH  16  45
TORSDOF 8
ENDMDL
MODEL 11
REMARK VINA RESULT:    -4.449     19.619     23.703
REMARK INTER + INTRA:          -5.959
REMARK INTER:                  -6.261
REMARK INTRA:                   0.302
REMARK UNBOUND:                 0.571
REMARK  8 active torsions:
REMARK  status: ('A' for Active; 'I' for Inactive)
REMARK    1  A    between atoms: C_13  and  C_15 
REMARK    2  A    between atoms: C_14  and  C_16 
REMARK    3  A    between atoms: C_15  and  C_22 
REMARK    4  A    between atoms: C_16  and  C_23 
REMARK    5  A    between atoms: C_17  and  C_21 
REMARK    6  A    between atoms: C_18  and  C_24 
REMARK    7  A    between atoms: C_19  and  C_27 
REMARK    8  A    between atoms: C_20  and  C_30 
ROOT
HETATM    1  O   UNL     1       7.941  57.594  51.011  1.00  0.00    -0.304 OA
HETATM    2  O   UNL     1       7.072  55.006  55.011  1.00  0.00    -0.304 OA
HETATM    3  O   UNL     1      10.437  57.232  55.415  1.00  0.00    -0.304 OA
HETATM    4  O   UNL     1       7.069  57.799  53.488  1.00  0.00    -0.270 OA
HETATM    5  O   UNL     1       9.083  55.619  51.363  1.00  0.00    -0.263 OA
HETATM    6  O   UNL     1      10.201  58.865  53.417  1.00  0.00    -0.270 OA
HETATM    7  O   UNL     1       5.421  54.711  56.587  1.00  0.00    -0.263 OA
HETATM    8  O   UNL     1       7.761  52.995  57.725  1.00  0.00    -0.270 OA
HETATM    9  O   UNL     1      11.270  55.488  56.675  1.00  0.00    -0.263 OA
HETATM   10  N   UNL     1       5.411  56.186  53.315  1.00  0.00    -0.340 N 
HETATM   11  N   UNL     1      11.216  57.326  52.008  1.00  0.00    -0.340 N 
HETATM   12  N   UNL     1       8.731  55.101  57.745  1.00  0.00    -0.340 N 
HETATM   13  C   UNL     1       5.083  56.279  54.758  1.00  0.00     0.190 C 
HETATM   14  C   UNL     1      10.299  57.679  50.907  1.00  0.00     0.190 C 
HETATM   15  C   UNL     1       6.677  56.955  51.282  1.00  0.00     0.227 C 
HETATM   16  C   UNL     1       9.036  56.389  57.087  1.00  0.00     0.190 C 
HETATM   17  C   UNL     1      11.540  57.199  54.484  1.00  0.00     0.227 C 
HETATM   18  C   UNL     1       7.975  54.050  55.574  1.00  0.00     0.227 C 
HETATM   19  C   UNL     1       6.411  57.018  52.791  1.00  0.00     0.250 C 
HETATM   20  C   UNL     1       9.062  56.818  51.120  1.00  0.00     0.283 C 
HETATM   21  C   UNL     1      10.948  57.892  53.263  1.00  0.00     0.250 C 
HETATM   22  C   UNL     1       5.838  55.211  55.550  1.00  0.00     0.283 C 
HETATM   23  C   UNL     1       8.127  54.003  57.111  1.00  0.00     0.250 C 
HETATM   24  C   UNL     1      10.388  56.286  56.399  1.00  0.00     0.283 C 
HETATM   25  C   UNL     1       4.698  55.158  52.549  1.00  0.00     0.153 C 
HETATM   26  C   UNL     1      12.248  56.313  51.775  1.00  0.00     0.153 C 
HETATM   27  C   UNL     1       9.083  54.963  59.158  1.00  0.00     0.153 C 
ENDROOT
BRANCH  15  28
HETATM   28  C   UNL     1       5.611  57.737  50.528  1.00  0.00     0.016 C 
HETATM   29  C   UNL     1       5.433  59.128  51.134  1.00  0.00     0.012 C 
HETATM   30  C   UNL     1       5.965  57.841  49.045  1.00  0.00     0.012 C 
ENDBRANCH  15  28
BRANCH  14  31
HETATM   31  C   UNL     1      10.827  57.481  49.492  1.00  0.00     0.014 C 
HETATM   32  C   UNL     1       9.654  57.368  48.515  1.00  0.00     0.012 C 
BRANCH  31  33
HETATM   33  C   UNL     1      11.764  58.620  49.053  1.00  0.00     0.002 C 
HETATM   34  C   UNL     1      13.147  58.142  48.631  1.00  0.00     0.005 C 
ENDBRANCH  31  33
ENDBRANCH  14  31
BRANCH  13  35
HETATM   35  C   UNL     1       3.583  56.232  55.044  1.00  0.00     0.014 C 
HETATM   36  C   UNL     1       3.301  56.819  56.430  1.00  0.00     0.012 C 
BRANCH  35  37
HETATM   37  C   UNL     1       2.759  56.984  53.983  1.00  0.00     0.002 C 
HETATM   38  C   UNL     1       2.750  58.493  54.176  1.00  0.00     0.005 C 
ENDBRANCH  35  37
ENDBRANCH  13  35
BRANCH  17  39
HETATM   39  C   UNL     1      12.714  57.988  55.033  1.00  0.00     0.016 C 
HETATM   40  C   UNL     1      13.079  59.133  54.091  1.00  0.00     0.012 C 
HETATM   41  C   UNL     1      13.917  57.074  55.257  1.00  0.00     0.012 C 
ENDBRANCH  17  39
BRANCH  18  42
HETATM   42  C   UNL     1       7.606  52.678  55.008  1.00  0.00     0.016 C 
HETATM   43  C   UNL     1       6.959  52.819  53.630  1.00  0.00     0.012 C 
HETATM   44  C   UNL     1       8.836  51.776  54.931  1.00  0.00     0.012 C 
ENDBRANCH  18  42
BRANCH  16  45
HETATM   45  C   UNL     1       9.008  57.608  58.007  1.00  0.00     0.010 C 
HETATM   46  C   UNL     1       8.039  58.664  57.476  1.00  0.00     0.012 C 
HETATM   47  C   UNL     1      10.408  58.200  58.163  1.00  0.00     0.012 C 
ENDBRANCH  16  45
TORSDOF 8
ENDMDL
MODEL 12
REMARK VINA RESULT:    -4.341      3.633      6.374
REMARK INTER + INTRA:          -5.800
REMARK INTER:                  -7.539
REMARK INTRA:                   1.739
REMARK UNBOUND:                 0.571
REMARK  8 active torsions:
REMARK  status: ('A' for Active; 'I' for Inactive)
REMARK    1  A    between atoms: C_13  and  C_15 
REMARK    2  A    between atoms: C_14  and  C_16 
REMARK    3  A    between atoms: C_15  and  C_22 
REMARK    4  A    between atoms: C_16  and  C_23 
REMARK    5  A    between atoms: C_17  and  C_21 
REMARK    6  A    between atoms: C_18  and  C_24 
REMARK    7  A    between atoms: C_19  and  C_27 
REMARK    8  A    between atoms: C_20  and  C_30 
ROOT
HETATM    1  O   UNL     1      20.461  39.099  55.479  1.00  0.00    -0.304 OA
HETATM    2  O   UNL     1      19.897  43.691  56.908  1.00  0.00    -0.304 OA
HETATM    3  O   UNL     1      23.518  43.139  55.171  1.00  0.00    -0.304 OA
HETATM    4  O   UNL     1      19.991  41.529  54.577  1.00  0.00    -0.270 OA
HETATM    5  O   UNL     1      21.407  39.801  57.463  1.00  0.00    -0.263 OA
HETATM    6  O   UNL     1      23.181  40.837  54.030  1.00  0.00    -0.270 OA
HETATM    7  O   UNL     1      18.472  45.470  56.582  1.00  0.00    -0.263 OA
HETATM    8  O   UNL     1      20.741  46.725  58.312  1.00  0.00    -0.270 OA
HETATM    9  O   UNL     1      24.321  44.691  56.677  1.00  0.00    -0.263 OA
HETATM   10  N   UNL     1      18.151  41.956  55.923  1.00  0.00    -0.340 N 
HETATM   11  N   UNL     1      23.794  39.750  55.987  1.00  0.00    -0.340 N 
HETATM   12  N   UNL     1      21.938  46.107  56.426  1.00  0.00    -0.340 N 
HETATM   13  C   UNL     1      18.052  43.357  55.451  1.00  0.00     0.190 C 
HETATM   14  C   UNL     1      22.772  38.708  55.768  1.00  0.00     0.190 C 
HETATM   15  C   UNL     1      19.186  39.664  55.844  1.00  0.00     0.227 C 
HETATM   16  C   UNL     1      22.290  45.117  55.386  1.00  0.00     0.190 C 
HETATM   17  C   UNL     1      24.461  42.125  55.581  1.00  0.00     0.227 C 
HETATM   18  C   UNL     1      20.756  44.369  57.830  1.00  0.00     0.227 C 
HETATM   19  C   UNL     1      19.153  41.130  55.393  1.00  0.00     0.250 C 
HETATM   20  C   UNL     1      21.489  39.270  56.364  1.00  0.00     0.283 C 
HETATM   21  C   UNL     1      23.780  40.846  55.112  1.00  0.00     0.250 C 
HETATM   22  C   UNL     1      18.787  44.300  56.404  1.00  0.00     0.283 C 
HETATM   23  C   UNL     1      21.125  45.841  57.540  1.00  0.00     0.250 C 
HETATM   24  C   UNL     1      23.505  44.327  55.844  1.00  0.00     0.283 C 
HETATM   25  C   UNL     1      17.220  41.558  56.984  1.00  0.00     0.153 C 
HETATM   26  C   UNL     1      24.657  39.661  57.167  1.00  0.00     0.153 C 
HETATM   27  C   UNL     1      22.476  47.460  56.282  1.00  0.00     0.153 C 
ENDROOT
BRANCH  15  28
HETATM   28  C   UNL     1      18.117  38.866  55.109  1.00  0.00     0.016 C 
HETATM   29  C   UNL     1      18.388  38.858  53.606  1.00  0.00     0.012 C 
HETATM   30  C   UNL     1      18.047  37.437  55.647  1.00  0.00     0.012 C 
ENDBRANCH  15  28
BRANCH  14  31
HETATM   31  C   UNL     1      23.060  37.337  56.365  1.00  0.00     0.014 C 
HETATM   32  C   UNL     1      21.789  36.485  56.339  1.00  0.00     0.012 C 
BRANCH  31  33
HETATM   33  C   UNL     1      24.195  36.605  55.628  1.00  0.00     0.002 C 
HETATM   34  C   UNL     1      24.166  36.799  54.118  1.00  0.00     0.005 C 
ENDBRANCH  31  33
ENDBRANCH  14  31
BRANCH  13  35
HETATM   35  C   UNL     1      16.615  43.816  55.208  1.00  0.00     0.014 C 
HETATM   36  C   UNL     1      16.065  43.151  53.943  1.00  0.00     0.012 C 
BRANCH  35  37
HETATM   37  C   UNL     1      15.691  43.509  56.400  1.00  0.00     0.002 C 
HETATM   38  C   UNL     1      14.251  43.951  56.184  1.00  0.00     0.005 C 
ENDBRANCH  35  37
ENDBRANCH  13  35
BRANCH  17  39
HETATM   39  C   UNL     1      25.786  42.322  54.868  1.00  0.00     0.016 C 
HETATM   40  C   UNL     1      26.133  41.092  54.032  1.00  0.00     0.012 C 
HETATM   41  C   UNL     1      26.898  42.618  55.873  1.00  0.00     0.012 C 
ENDBRANCH  17  39
BRANCH  18  42
HETATM   42  C   UNL     1      20.152  44.209  59.226  1.00  0.00     0.016 C 
HETATM   43  C   UNL     1      19.484  42.842  59.373  1.00  0.00     0.012 C 
HETATM   44  C   UNL     1      21.220  44.401  60.301  1.00  0.00     0.012 C 
ENDBRANCH  18  42
BRANCH  16  45
HETATM   45  C   UNL     1      22.538  45.700  53.996  1.00  0.00     0.010 C 
HETATM   46  C   UNL     1      23.807  46.551  53.986  1.00  0.00     0.012 C 
HETATM   47  C   UNL     1      21.338  46.524  53.532  1.00  0.00     0.012 C 
ENDBRANCH  16  45
TORSDOF 8
ENDMDL
MODEL 13
REMARK VINA RESULT:    -4.333     20.452     24.997
REMARK INTER + INTRA:          -5.788
REMARK INTER:                  -6.681
REMARK INTRA:                   0.893
REMARK UNBOUND:                 0.571
REMARK  8 active torsions:
REMARK  status: ('A' for Active; 'I' for Inactive)
REMARK    1  A    between atoms: C_13  and  C_15 
REMARK    2  A    between atoms: C_14  and  C_16 
REMARK    3  A    between atoms: C_15  and  C_22 
REMARK    4  A    between atoms: C_16  and  C_23 
REMARK    5  A    between atoms: C_17  and  C_21 
REMARK    6  A    between atoms: C_18  and  C_24 
REMARK    7  A    between atoms: C_19  and  C_27 
REMARK    8  A    between atoms: C_20  and  C_30 
ROOT
HETATM    1  O   UNL     1       4.712  57.420  52.303  1.00  0.00    -0.304 OA
HETATM    2  O   UNL     1       8.341  56.221  55.276  1.00  0.00    -0.304 OA
HETATM    3  O   UNL     1       4.858  54.523  56.468  1.00  0.00    -0.304 OA
HETATM    4  O   UNL     1       6.322  55.437  52.947  1.00  0.00    -0.270 OA
HETATM    5  O   UNL     1       4.967  58.542  54.304  1.00  0.00    -0.263 OA
HETATM    6  O   UNL     1       3.386  54.868  54.364  1.00  0.00    -0.270 OA
HETATM    7  O   UNL     1      10.409  55.211  55.205  1.00  0.00    -0.263 OA
HETATM    8  O   UNL     1       9.958  55.622  58.262  1.00  0.00    -0.270 OA
HETATM    9  O   UNL     1       5.618  54.813  58.627  1.00  0.00    -0.263 OA
HETATM   10  N   UNL     1       8.305  56.605  52.654  1.00  0.00    -0.340 N 
HETATM   11  N   UNL     1       2.776  56.980  55.106  1.00  0.00    -0.340 N 
HETATM   12  N   UNL     1       8.191  54.208  57.759  1.00  0.00    -0.340 N 
HETATM   13  C   UNL     1       9.118  55.474  53.160  1.00  0.00     0.190 C 
HETATM   14  C   UNL     1       2.833  57.516  53.732  1.00  0.00     0.190 C 
HETATM   15  C   UNL     1       6.102  57.614  51.975  1.00  0.00     0.227 C 
HETATM   16  C   UNL     1       7.046  53.825  56.907  1.00  0.00     0.190 C 
HETATM   17  C   UNL     1       3.641  55.264  56.705  1.00  0.00     0.227 C 
HETATM   18  C   UNL     1       8.366  56.488  56.682  1.00  0.00     0.227 C 
HETATM   19  C   UNL     1       6.912  56.457  52.572  1.00  0.00     0.250 C 
HETATM   20  C   UNL     1       4.289  57.905  53.510  1.00  0.00     0.283 C 
HETATM   21  C   UNL     1       3.233  55.667  55.294  1.00  0.00     0.250 C 
HETATM   22  C   UNL     1       9.406  55.645  54.652  1.00  0.00     0.283 C 
HETATM   23  C   UNL     1       8.923  55.399  57.625  1.00  0.00     0.250 C 
HETATM   24  C   UNL     1       5.778  54.444  57.474  1.00  0.00     0.283 C 
HETATM   25  C   UNL     1       9.029  57.841  52.340  1.00  0.00     0.153 C 
HETATM   26  C   UNL     1       2.393  57.874  56.202  1.00  0.00     0.153 C 
HETATM   27  C   UNL     1       8.590  53.278  58.816  1.00  0.00     0.153 C 
ENDROOT
BRANCH  15  28
HETATM   28  C   UNL     1       6.207  57.598  50.456  1.00  0.00     0.016 C 
HETATM   29  C   UNL     1       5.060  56.797  49.844  1.00  0.00     0.012 C 
HETATM   30  C   UNL     1       6.220  59.022  49.901  1.00  0.00     0.012 C 
ENDBRANCH  15  28
BRANCH  14  31
HETATM   31  C   UNL     1       1.931  58.705  53.428  1.00  0.00     0.014 C 
HETATM   32  C   UNL     1       2.449  59.443  52.191  1.00  0.00     0.012 C 
BRANCH  31  33
HETATM   33  C   UNL     1       0.466  58.287  53.211  1.00  0.00     0.002 C 
HETATM   34  C   UNL     1      -0.017  58.478  51.780  1.00  0.00     0.005 C 
ENDBRANCH  31  33
ENDBRANCH  14  31
BRANCH  13  35
HETATM   35  C   UNL     1      10.402  55.246  52.364  1.00  0.00     0.014 C 
HETATM   36  C   UNL     1      10.064  55.005  50.891  1.00  0.00     0.012 C 
BRANCH  35  37
HETATM   37  C   UNL     1      11.386  56.425  52.486  1.00  0.00     0.002 C 
HETATM   38  C   UNL     1      12.829  55.994  52.700  1.00  0.00     0.005 C 
ENDBRANCH  35  37
ENDBRANCH  13  35
BRANCH  17  39
HETATM   39  C   UNL     1       2.592  54.364  57.332  1.00  0.00     0.016 C 
HETATM   40  C   UNL     1       2.619  52.979  56.690  1.00  0.00     0.012 C 
HETATM   41  C   UNL     1       1.204  54.988  57.203  1.00  0.00     0.012 C 
ENDBRANCH  17  39
BRANCH  18  42
HETATM   42  C   UNL     1       9.083  57.823  56.884  1.00  0.00     0.016 C 
HETATM   43  C   UNL     1       8.767  58.785  55.739  1.00  0.00     0.012 C 
HETATM   44  C   UNL     1       8.699  58.444  58.226  1.00  0.00     0.012 C 
ENDBRANCH  18  42
BRANCH  16  45
HETATM   45  C   UNL     1       6.855  52.321  56.718  1.00  0.00     0.010 C 
HETATM   46  C   UNL     1       6.384  52.010  55.298  1.00  0.00     0.012 C 
HETATM   47  C   UNL     1       5.864  51.768  57.742  1.00  0.00     0.012 C 
ENDBRANCH  16  45
TORSDOF 8
ENDMDL
MODEL 14
REMARK VINA RESULT:    -4.045     19.204     22.090
REMARK INTER + INTRA:          -5.367
REMARK INTER:                  -5.720
REMARK INTRA:                   0.353
REMARK UNBOUND:                 0.571
REMARK  8 active torsions:
REMARK  status: ('A' for Active; 'I' for Inactive)
REMARK    1  A    between atoms: C_13  and  C_15 
REMARK    2  A    between atoms: C_14  and  C_16 
REMARK    3  A    between atoms: C_15  and  C_22 
REMARK    4  A    between atoms: C_16  and  C_23 
REMARK    5  A    between atoms: C_17  and  C_21 
REMARK    6  A    between atoms: C_18  and  C_24 
REMARK    7  A    between atoms: C_19  and  C_27 
REMARK    8  A    between atoms: C_20  and  C_30 
ROOT
HETATM    1  O   UNL     1      11.049  55.366  58.443  1.00  0.00    -0.304 OA
HETATM    2  O   UNL     1       6.288  55.405  57.561  1.00  0.00    -0.304 OA
HETATM    3  O   UNL     1       8.412  55.699  54.119  1.00  0.00    -0.304 OA
HETATM    4  O   UNL     1       9.078  53.877  57.528  1.00  0.00    -0.270 OA
HETATM    5  O   UNL     1       9.974  57.374  58.070  1.00  0.00    -0.263 OA
HETATM    6  O   UNL     1      10.779  55.027  54.932  1.00  0.00    -0.270 OA
HETATM    7  O   UNL     1       4.425  54.102  57.920  1.00  0.00    -0.263 OA
HETATM    8  O   UNL     1       3.316  56.391  56.118  1.00  0.00    -0.270 OA
HETATM    9  O   UNL     1       6.711  57.055  53.351  1.00  0.00    -0.263 OA
HETATM   10  N   UNL     1       7.702  54.098  59.383  1.00  0.00    -0.340 N 
HETATM   11  N   UNL     1      11.214  57.219  55.556  1.00  0.00    -0.340 N 
HETATM   12  N   UNL     1       4.878  55.446  54.690  1.00  0.00    -0.340 N 
HETATM   13  C   UNL     1       6.597  53.360  58.728  1.00  0.00     0.190 C 
HETATM   14  C   UNL     1      11.937  56.768  56.761  1.00  0.00     0.190 C 
HETATM   15  C   UNL     1      10.060  54.975  59.416  1.00  0.00     0.227 C 
HETATM   16  C   UNL     1       6.231  54.913  54.425  1.00  0.00     0.190 C 
HETATM   17  C   UNL     1       9.429  56.696  53.885  1.00  0.00     0.227 C 
HETATM   18  C   UNL     1       5.592  56.461  56.891  1.00  0.00     0.227 C 
HETATM   19  C   UNL     1       8.908  54.274  58.687  1.00  0.00     0.250 C 
HETATM   20  C   UNL     1      10.865  56.572  57.825  1.00  0.00     0.283 C 
HETATM   21  C   UNL     1      10.548  56.235  54.810  1.00  0.00     0.250 C 
HETATM   22  C   UNL     1       5.619  54.332  58.067  1.00  0.00     0.283 C 
HETATM   23  C   UNL     1       4.488  56.083  55.879  1.00  0.00     0.250 C 
HETATM   24  C   UNL     1       7.108  56.032  53.888  1.00  0.00     0.283 C 
HETATM   25  C   UNL     1       7.417  54.662  60.707  1.00  0.00     0.153 C 
HETATM   26  C   UNL     1      11.109  58.655  55.287  1.00  0.00     0.153 C 
HETATM   27  C   UNL     1       3.874  55.296  53.636  1.00  0.00     0.153 C 
ENDROOT
BRANCH  15  28
HETATM   28  C   UNL     1      10.739  54.008  60.377  1.00  0.00     0.016 C 
HETATM   29  C   UNL     1      11.353  52.834  59.617  1.00  0.00     0.012 C 
HETATM   30  C   UNL     1      11.804  54.727  61.203  1.00  0.00     0.012 C 
ENDBRANCH  15  28
BRANCH  14  31
HETATM   31  C   UNL     1      13.024  57.695  57.289  1.00  0.00     0.014 C 
HETATM   32  C   UNL     1      13.290  57.390  58.766  1.00  0.00     0.012 C 
BRANCH  31  33
HETATM   33  C   UNL     1      14.332  57.578  56.488  1.00  0.00     0.002 C 
HETATM   34  C   UNL     1      14.821  58.904  55.923  1.00  0.00     0.005 C 
ENDBRANCH  31  33
ENDBRANCH  14  31
BRANCH  13  35
HETATM   35  C   UNL     1       5.876  52.391  59.664  1.00  0.00     0.014 C 
HETATM   36  C   UNL     1       5.120  51.343  58.843  1.00  0.00     0.012 C 
BRANCH  35  37
HETATM   37  C   UNL     1       6.839  51.692  60.640  1.00  0.00     0.002 C 
HETATM   38  C   UNL     1       6.237  51.441  62.015  1.00  0.00     0.005 C 
ENDBRANCH  35  37
ENDBRANCH  13  35
BRANCH  17  39
HETATM   39  C   UNL     1       9.879  56.656  52.436  1.00  0.00     0.016 C 
HETATM   40  C   UNL     1      11.331  56.193  52.337  1.00  0.00     0.012 C 
HETATM   41  C   UNL     1       9.707  58.026  51.783  1.00  0.00     0.012 C 
ENDBRANCH  17  39
BRANCH  18  42
HETATM   42  C   UNL     1       5.065  57.417  57.962  1.00  0.00     0.016 C 
HETATM   43  C   UNL     1       6.055  57.529  59.122  1.00  0.00     0.012 C 
HETATM   44  C   UNL     1       4.784  58.794  57.365  1.00  0.00     0.012 C 
ENDBRANCH  18  42
BRANCH  16  45
HETATM   45  C   UNL     1       6.280  53.711  53.484  1.00  0.00     0.010 C 
HETATM   46  C   UNL     1       6.938  52.514  54.169  1.00  0.00     0.012 C 
HETATM   47  C   UNL     1       7.023  54.063  52.195  1.00  0.00     0.012 C 
ENDBRANCH  16  45
TORSDOF 8
ENDMDL
MODEL 15
REMARK VINA RESULT:    -3.915     20.322     24.639
REMARK INTER + INTRA:          -5.176
REMARK INTER:                  -5.935
REMARK INTRA:                   0.760
REMARK UNBOUND:                 0.571
REMARK  8 active torsions:
REMARK  status: ('A' for Active; 'I' for Inactive)
REMARK    1  A    between atoms: C_13  and  C_15 
REMARK    2  A    between atoms: C_14  and  C_16 
REMARK    3  A    between atoms: C_15  and  C_22 
REMARK    4  A    between atoms: C_16  and  C_23 
REMARK    5  A    between atoms: C_17  and  C_21 
REMARK    6  A    between atoms: C_18  and  C_24 
REMARK    7  A    between atoms: C_19  and  C_27 
REMARK    8  A    between atoms: C_20  and  C_30 
ROOT
HETATM    1  O   UNL     1       6.067  54.014  54.261  1.00  0.00    -0.304 OA
HETATM    2  O   UNL     1       5.210  55.613  58.751  1.00  0.00    -0.304 OA
HETATM    3  O   UNL     1       2.235  56.704  56.221  1.00  0.00    -0.304 OA
HETATM    4  O   UNL     1       4.586  53.570  56.394  1.00  0.00    -0.270 OA
HETATM    5  O   UNL     1       6.547  56.206  54.803  1.00  0.00    -0.263 OA
HETATM    6  O   UNL     1       2.729  55.185  54.181  1.00  0.00    -0.270 OA
HETATM    7  O   UNL     1       4.965  54.796  60.889  1.00  0.00    -0.263 OA
HETATM    8  O   UNL     1       4.264  57.814  61.231  1.00  0.00    -0.270 OA
HETATM    9  O   UNL     1       2.075  58.639  57.468  1.00  0.00    -0.263 OA
HETATM   10  N   UNL     1       6.343  53.375  57.895  1.00  0.00    -0.340 N 
HETATM   11  N   UNL     1       4.215  56.757  53.340  1.00  0.00    -0.340 N 
HETATM   12  N   UNL     1       2.595  57.153  59.763  1.00  0.00    -0.340 N 
HETATM   13  C   UNL     1       5.424  53.267  59.053  1.00  0.00     0.190 C 
HETATM   14  C   UNL     1       5.134  55.694  52.886  1.00  0.00     0.190 C 
HETATM   15  C   UNL     1       6.774  53.533  55.422  1.00  0.00     0.227 C 
HETATM   16  C   UNL     1       2.153  56.445  58.543  1.00  0.00     0.190 C 
HETATM   17  C   UNL     1       2.452  57.417  54.984  1.00  0.00     0.227 C 
HETATM   18  C   UNL     1       5.030  56.987  59.106  1.00  0.00     0.227 C 
HETATM   19  C   UNL     1       5.802  53.500  56.607  1.00  0.00     0.250 C 
HETATM   20  C   UNL     1       6.004  55.370  54.093  1.00  0.00     0.283 C 
HETATM   21  C   UNL     1       3.118  56.357  54.117  1.00  0.00     0.250 C 
HETATM   22  C   UNL     1       5.213  54.636  59.700  1.00  0.00     0.283 C 
HETATM   23  C   UNL     1       3.935  57.339  60.138  1.00  0.00     0.250 C 
HETATM   24  C   UNL     1       2.143  57.422  57.379  1.00  0.00     0.283 C 
HETATM   25  C   UNL     1       7.777  53.416  58.201  1.00  0.00     0.153 C 
HETATM   26  C   UNL     1       4.567  58.156  53.086  1.00  0.00     0.153 C 
HETATM   27  C   UNL     1       1.559  57.698  60.642  1.00  0.00     0.153 C 
ENDROOT
BRANCH  15  28
HETATM   28  C   UNL     1       7.255  52.125  55.098  1.00  0.00     0.016 C 
HETATM   29  C   UNL     1       6.403  51.504  53.993  1.00  0.00     0.012 C 
HETATM   30  C   UNL     1       8.728  52.139  54.693  1.00  0.00     0.012 C 
ENDBRANCH  15  28
BRANCH  14  31
HETATM   31  C   UNL     1       6.017  56.023  51.689  1.00  0.00     0.014 C 
HETATM   32  C   UNL     1       7.127  54.977  51.564  1.00  0.00     0.012 C 
BRANCH  31  33
HETATM   33  C   UNL     1       5.217  56.097  50.376  1.00  0.00     0.002 C 
HETATM   34  C   UNL     1       5.490  57.357  49.567  1.00  0.00     0.005 C 
ENDBRANCH  31  33
ENDBRANCH  14  31
BRANCH  13  35
HETATM   35  C   UNL     1       5.861  52.223  60.080  1.00  0.00     0.014 C 
HETATM   36  C   UNL     1       6.646  52.901  61.206  1.00  0.00     0.012 C 
BRANCH  35  37
HETATM   37  C   UNL     1       4.670  51.446  60.670  1.00  0.00     0.002 C 
HETATM   38  C   UNL     1       3.653  51.006  59.627  1.00  0.00     0.005 C 
ENDBRANCH  35  37
ENDBRANCH  13  35
BRANCH  17  39
HETATM   39  C   UNL     1       1.125  57.846  54.385  1.00  0.00     0.016 C 
HETATM   40  C   UNL     1       0.085  56.738  54.537  1.00  0.00     0.012 C 
HETATM   41  C   UNL     1       1.296  58.224  52.916  1.00  0.00     0.012 C 
ENDBRANCH  17  39
BRANCH  18  42
HETATM   42  C   UNL     1       6.393  57.536  59.528  1.00  0.00     0.016 C 
HETATM   43  C   UNL     1       7.513  56.886  58.715  1.00  0.00     0.012 C 
HETATM   44  C   UNL     1       6.434  59.055  59.375  1.00  0.00     0.012 C 
ENDBRANCH  18  42
BRANCH  16  45
HETATM   45  C   UNL     1       0.797  55.750  58.654  1.00  0.00     0.010 C 
HETATM   46  C   UNL     1       0.833  54.384  57.968  1.00  0.00     0.012 C 
HETATM   47  C   UNL     1      -0.308  56.619  58.056  1.00  0.00     0.012 C 
ENDBRANCH  16  45
TORSDOF 8
ENDMDL
MODEL 16
REMARK VINA RESULT:    -3.860      2.736      7.264
REMARK INTER + INTRA:          -5.094
REMARK INTER:                  -5.474
REMARK INTRA:                   0.381
REMARK UNBOUND:                 0.571
REMARK  8 active torsions:
REMARK  status: ('A' for Active; 'I' for Inactive)
REMARK    1  A    between atoms: C_13  and  C_15 
REMARK    2  A    between atoms: C_14  and  C_16 
REMARK    3  A    between atoms: C_15  and  C_22 
REMARK    4  A    between atoms: C_16  and  C_23 
REMARK    5  A    between atoms: C_17  and  C_21 
REMARK    6  A    between atoms: C_18  and  C_24 
REMARK    7  A    between atoms: C_19  and  C_27 
REMARK    8  A    between atoms: C_20  and  C_30 
ROOT
HETATM    1  O   UNL     1      17.654  40.556  59.998  1.00  0.00    -0.304 OA
HETATM    2  O   UNL     1      19.946  38.442  56.293  1.00  0.00    -0.304 OA
HETATM    3  O   UNL     1      21.776  41.900  57.358  1.00  0.00    -0.304 OA
HETATM    4  O   UNL     1      19.813  39.176  59.386  1.00  0.00    -0.270 OA
HETATM    5  O   UNL     1      17.275  41.301  57.846  1.00  0.00    -0.263 OA
HETATM    6  O   UNL     1      20.680  42.359  59.661  1.00  0.00    -0.270 OA
HETATM    7  O   UNL     1      20.972  36.449  55.770  1.00  0.00    -0.263 OA
HETATM    8  O   UNL     1      21.581  38.203  53.267  1.00  0.00    -0.270 OA
HETATM    9  O   UNL     1      22.256  42.171  55.118  1.00  0.00    -0.263 OA
HETATM   10  N   UNL     1      18.710  37.394  58.391  1.00  0.00    -0.340 N 
HETATM   11  N   UNL     1      18.908  43.446  58.629  1.00  0.00    -0.340 N 
HETATM   12  N   UNL     1      22.661  39.426  54.915  1.00  0.00    -0.340 N 
HETATM   13  C   UNL     1      19.982  36.761  57.970  1.00  0.00     0.190 C 
HETATM   14  C   UNL     1      17.949  42.864  59.588  1.00  0.00     0.190 C 
HETATM   15  C   UNL     1      17.428  39.188  59.604  1.00  0.00     0.227 C 
HETATM   16  C   UNL     1      22.684  40.050  56.255  1.00  0.00     0.190 C 
HETATM   17  C   UNL     1      21.098  43.171  57.455  1.00  0.00     0.227 C 
HETATM   18  C   UNL     1      20.164  39.049  55.016  1.00  0.00     0.227 C 
HETATM   19  C   UNL     1      18.756  38.594  59.117  1.00  0.00     0.250 C 
HETATM   20  C   UNL     1      17.579  41.503  59.015  1.00  0.00     0.283 C 
HETATM   21  C   UNL     1      20.229  42.978  58.691  1.00  0.00     0.250 C 
HETATM   22  C   UNL     1      20.331  37.158  56.536  1.00  0.00     0.283 C 
HETATM   23  C   UNL     1      21.530  38.836  54.327  1.00  0.00     0.250 C 
HETATM   24  C   UNL     1      22.229  41.495  56.136  1.00  0.00     0.283 C 
HETATM   25  C   UNL     1      17.475  36.741  57.943  1.00  0.00     0.153 C 
HETATM   26  C   UNL     1      18.412  44.352  57.591  1.00  0.00     0.153 C 
HETATM   27  C   UNL     1      23.907  39.422  54.149  1.00  0.00     0.153 C 
ENDROOT
BRANCH  15  28
HETATM   28  C   UNL     1      16.942  38.442  60.839  1.00  0.00     0.016 C 
HETATM   29  C   UNL     1      17.492  39.088  62.110  1.00  0.00     0.012 C 
HETATM   30  C   UNL     1      15.416  38.401  60.879  1.00  0.00     0.012 C 
ENDBRANCH  15  28
BRANCH  14  31
HETATM   31  C   UNL     1      16.685  43.669  59.860  1.00  0.00     0.014 C 
HETATM   32  C   UNL     1      15.622  42.766  60.491  1.00  0.00     0.012 C 
BRANCH  31  33
HETATM   33  C   UNL     1      16.948  44.881  60.770  1.00  0.00     0.002 C 
HETATM   34  C   UNL     1      16.098  46.097  60.427  1.00  0.00     0.005 C 
ENDBRANCH  31  33
ENDBRANCH  14  31
BRANCH  13  35
HETATM   35  C   UNL     1      19.993  35.244  58.150  1.00  0.00     0.014 C 
HETATM   36  C   UNL     1      21.389  34.695  57.843  1.00  0.00     0.012 C 
BRANCH  35  37
HETATM   37  C   UNL     1      19.566  34.817  59.566  1.00  0.00     0.002 C 
HETATM   38  C   UNL     1      18.647  33.604  59.586  1.00  0.00     0.005 C 
ENDBRANCH  35  37
ENDBRANCH  13  35
BRANCH  17  39
HETATM   39  C   UNL     1      22.104  44.287  57.675  1.00  0.00     0.016 C 
HETATM   40  C   UNL     1      21.862  44.971  59.018  1.00  0.00     0.012 C 
HETATM   41  C   UNL     1      22.037  45.302  56.535  1.00  0.00     0.012 C 
ENDBRANCH  17  39
BRANCH  18  42
HETATM   42  C   UNL     1      19.007  38.633  54.106  1.00  0.00     0.016 C 
HETATM   43  C   UNL     1      17.787  38.228  54.932  1.00  0.00     0.012 C 
HETATM   44  C   UNL     1      18.648  39.759  53.139  1.00  0.00     0.012 C 
ENDBRANCH  18  42
BRANCH  16  45
HETATM   45  C   UNL     1      24.028  39.982  56.977  1.00  0.00     0.010 C 
HETATM   46  C   UNL     1      23.871  39.330  58.350  1.00  0.00     0.012 C 
HETATM   47  C   UNL     1      24.639  41.375  57.114  1.00  0.00     0.012 C 
ENDBRANCH  16  45
TORSDOF 8
ENDMDL
MODEL 17
REMARK VINA RESULT:    -3.859      2.429      7.160
REMARK INTER + INTRA:          -5.093
REMARK INTER:                  -6.067
REMARK INTRA:                   0.974
REMARK UNBOUND:                 0.571
REMARK  8 active torsions:
REMARK  status: ('A' for Active; 'I' for Inactive)
REMARK    1  A    between atoms: C_13  and  C_15 
REMARK    2  A    between atoms: C_14  and  C_16 
REMARK    3  A    between atoms: C_15  and  C_22 
REMARK    4  A    between atoms: C_16  and  C_23 
REMARK    5  A    between atoms: C_17  and  C_21 
REMARK    6  A    between atoms: C_18  and  C_24 
REMARK    7  A    between atoms: C_19  and  C_27 
REMARK    8  A    between atoms: C_20  and  C_30 
ROOT
HETATM    1  O   UNL     1      18.399  39.196  58.924  1.00  0.00    -0.304 OA
HETATM    2  O   UNL     1      21.651  37.672  55.677  1.00  0.00    -0.304 OA
HETATM    3  O   UNL     1      23.204  40.574  58.045  1.00  0.00    -0.304 OA
HETATM    4  O   UNL     1      20.574  37.732  58.669  1.00  0.00    -0.270 OA
HETATM    5  O   UNL     1      18.760  40.428  57.006  1.00  0.00    -0.263 OA
HETATM    6  O   UNL     1      21.455  40.652  59.954  1.00  0.00    -0.270 OA
HETATM    7  O   UNL     1      22.697  35.730  55.017  1.00  0.00    -0.263 OA
HETATM    8  O   UNL     1      24.152  37.897  53.314  1.00  0.00    -0.270 OA
HETATM    9  O   UNL     1      24.386  41.262  56.186  1.00  0.00    -0.263 OA
HETATM   10  N   UNL     1      19.764  36.352  56.990  1.00  0.00    -0.340 N 
HETATM   11  N   UNL     1      20.156  42.141  58.737  1.00  0.00    -0.340 N 
HETATM   12  N   UNL     1      24.706  38.597  55.454  1.00  0.00    -0.340 N 
HETATM   13  C   UNL     1      21.073  35.677  56.828  1.00  0.00     0.190 C 
HETATM   14  C   UNL     1      18.915  41.486  59.194  1.00  0.00     0.190 C 
HETATM   15  C   UNL     1      18.248  37.983  58.161  1.00  0.00     0.227 C 
HETATM   16  C   UNL     1      24.330  38.909  56.848  1.00  0.00     0.190 C 
HETATM   17  C   UNL     1      22.591  41.866  58.240  1.00  0.00     0.227 C 
HETATM   18  C   UNL     1      22.292  38.510  54.710  1.00  0.00     0.227 C 
HETATM   19  C   UNL     1      19.632  37.353  57.964  1.00  0.00     0.250 C 
HETATM   20  C   UNL     1      18.685  40.335  58.224  1.00  0.00     0.283 C 
HETATM   21  C   UNL     1      21.366  41.516  59.074  1.00  0.00     0.250 C 
HETATM   22  C   UNL     1      21.879  36.329  55.704  1.00  0.00     0.283 C 
HETATM   23  C   UNL     1      23.795  38.288  54.430  1.00  0.00     0.250 C 
HETATM   24  C   UNL     1      24.004  40.391  56.954  1.00  0.00     0.283 C 
HETATM   25  C   UNL     1      18.708  35.964  56.049  1.00  0.00     0.153 C 
HETATM   26  C   UNL     1      20.060  43.303  57.850  1.00  0.00     0.153 C 
HETATM   27  C   UNL     1      26.130  38.608  55.118  1.00  0.00     0.153 C 
ENDROOT
BRANCH  15  28
HETATM   28  C   UNL     1      17.359  37.052  58.976  1.00  0.00     0.016 C 
HETATM   29  C   UNL     1      17.020  37.677  60.328  1.00  0.00     0.012 C 
HETATM   30  C   UNL     1      16.083  36.714  58.207  1.00  0.00     0.012 C 
ENDBRANCH  15  28
BRANCH  14  31
HETATM   31  C   UNL     1      17.670  42.359  59.262  1.00  0.00     0.014 C 
HETATM   32  C   UNL     1      16.713  41.984  58.129  1.00  0.00     0.012 C 
BRANCH  31  33
HETATM   33  C   UNL     1      16.947  42.242  60.616  1.00  0.00     0.002 C 
HETATM   34  C   UNL     1      15.434  42.133  60.491  1.00  0.00     0.005 C 
ENDBRANCH  31  33
ENDBRANCH  14  31
BRANCH  13  35
HETATM   35  C   UNL     1      20.956  34.166  56.629  1.00  0.00     0.014 C 
HETATM   36  C   UNL     1      22.352  33.545  56.537  1.00  0.00     0.012 C 
BRANCH  35  37
HETATM   37  C   UNL     1      20.157  33.486  57.755  1.00  0.00     0.002 C 
HETATM   38  C   UNL     1      20.741  33.718  59.142  1.00  0.00     0.005 C 
ENDBRANCH  35  37
ENDBRANCH  13  35
BRANCH  17  39
HETATM   39  C   UNL     1      23.525  42.779  59.014  1.00  0.00     0.016 C 
HETATM   40  C   UNL     1      22.903  43.175  60.350  1.00  0.00     0.012 C 
HETATM   41  C   UNL     1      23.865  44.020  58.191  1.00  0.00     0.012 C 
ENDBRANCH  17  39
BRANCH  18  42
HETATM   42  C   UNL     1      21.468  38.441  53.423  1.00  0.00     0.016 C 
HETATM   43  C   UNL     1      20.016  38.840  53.689  1.00  0.00     0.012 C 
HETATM   44  C   UNL     1      22.078  39.333  52.343  1.00  0.00     0.012 C 
ENDBRANCH  18  42
BRANCH  16  45
HETATM   45  C   UNL     1      25.369  38.526  57.900  1.00  0.00     0.010 C 
HETATM   46  C   UNL     1      24.765  37.579  58.936  1.00  0.00     0.012 C 
HETATM   47  C   UNL     1      25.935  39.772  58.581  1.00  0.00     0.012 C 
ENDBRANCH  16  45
TORSDOF 8
ENDMDL
MODEL 18
REMARK VINA RESULT:    -3.856     27.939     30.815
REMARK INTER + INTRA:          -5.089
REMARK INTER:                  -5.649
REMARK INTRA:                   0.560
REMARK UNBOUND:                 0.571
REMARK  8 active torsions:
REMARK  status: ('A' for Active; 'I' for Inactive)
REMARK    1  A    between atoms: C_13  and  C_15 
REMARK    2  A    between atoms: C_14  and  C_16 
REMARK    3  A    between atoms: C_15  and  C_22 
REMARK    4  A    between atoms: C_16  and  C_23 
REMARK    5  A    between atoms: C_17  and  C_21 
REMARK    6  A    between atoms: C_18  and  C_24 
REMARK    7  A    between atoms: C_19  and  C_27 
REMARK    8  A    between atoms: C_20  and  C_30 
ROOT
HETATM    1  O   UNL     1       3.979  52.878  38.291  1.00  0.00    -0.304 OA
HETATM    2  O   UNL     1       7.179  56.371  37.288  1.00  0.00    -0.304 OA
HETATM    3  O   UNL     1       5.264  57.108  40.785  1.00  0.00    -0.304 OA
HETATM    4  O   UNL     1       6.349  53.803  38.973  1.00  0.00    -0.270 OA
HETATM    5  O   UNL     1       3.251  54.859  37.358  1.00  0.00    -0.263 OA
HETATM    6  O   UNL     1       4.169  54.806  41.251  1.00  0.00    -0.270 OA
HETATM    7  O   UNL     1       9.428  56.625  36.873  1.00  0.00    -0.263 OA
HETATM    8  O   UNL     1       8.423  59.573  36.992  1.00  0.00    -0.270 OA
HETATM    9  O   UNL     1       5.409  59.343  40.231  1.00  0.00    -0.263 OA
HETATM   10  N   UNL     1       7.269  53.759  36.843  1.00  0.00    -0.340 N 
HETATM   11  N   UNL     1       2.333  55.390  39.957  1.00  0.00    -0.340 N 
HETATM   12  N   UNL     1       7.926  58.868  39.144  1.00  0.00    -0.340 N 
HETATM   13  C   UNL     1       8.518  54.410  37.302  1.00  0.00     0.190 C 
HETATM   14  C   UNL     1       2.241  54.022  39.410  1.00  0.00     0.190 C 
HETATM   15  C   UNL     1       5.011  52.744  37.294  1.00  0.00     0.227 C 
HETATM   16  C   UNL     1       7.357  57.874  40.078  1.00  0.00     0.190 C 
HETATM   17  C   UNL     1       3.827  57.147  40.922  1.00  0.00     0.227 C 
HETATM   18  C   UNL     1       6.854  57.757  37.142  1.00  0.00     0.227 C 
HETATM   19  C   UNL     1       6.262  53.485  37.781  1.00  0.00     0.250 C 
HETATM   20  C   UNL     1       3.196  53.996  38.224  1.00  0.00     0.283 C 
HETATM   21  C   UNL     1       3.450  55.681  40.755  1.00  0.00     0.250 C 
HETATM   22  C   UNL     1       8.448  55.922  37.083  1.00  0.00     0.283 C 
HETATM   23  C   UNL     1       7.818  58.802  37.745  1.00  0.00     0.250 C 
HETATM   24  C   UNL     1       5.908  58.236  40.364  1.00  0.00     0.283 C 
HETATM   25  C   UNL     1       7.151  53.514  35.402  1.00  0.00     0.153 C 
HETATM   26  C   UNL     1       1.353  56.391  39.531  1.00  0.00     0.153 C 
HETATM   27  C   UNL     1       8.654  59.999  39.719  1.00  0.00     0.153 C 
ENDROOT
BRANCH  15  28
HETATM   28  C   UNL     1       5.305  51.256  37.153  1.00  0.00     0.016 C 
HETATM   29  C   UNL     1       6.364  50.818  38.162  1.00  0.00     0.012 C 
HETATM   30  C   UNL     1       4.028  50.436  37.327  1.00  0.00     0.012 C 
ENDBRANCH  15  28
BRANCH  14  31
HETATM   31  C   UNL     1       0.860  53.556  38.970  1.00  0.00     0.014 C 
HETATM   32  C   UNL     1       0.989  52.293  38.115  1.00  0.00     0.012 C 
BRANCH  31  33
HETATM   33  C   UNL     1      -0.074  53.286  40.163  1.00  0.00     0.002 C 
HETATM   34  C   UNL     1       0.663  52.913  41.442  1.00  0.00     0.005 C 
ENDBRANCH  31  33
ENDBRANCH  14  31
BRANCH  13  35
HETATM   35  C   UNL     1       9.778  53.812  36.678  1.00  0.00     0.014 C 
HETATM   36  C   UNL     1      11.018  54.338  37.406  1.00  0.00     0.012 C 
BRANCH  35  37
HETATM   37  C   UNL     1       9.773  52.273  36.704  1.00  0.00     0.002 C 
HETATM   38  C   UNL     1      10.593  51.642  35.589  1.00  0.00     0.005 C 
ENDBRANCH  35  37
ENDBRANCH  13  35
BRANCH  17  39
HETATM   39  C   UNL     1       3.445  57.646  42.304  1.00  0.00     0.016 C 
HETATM   40  C   UNL     1       2.567  56.623  43.020  1.00  0.00     0.012 C 
HETATM   41  C   UNL     1       2.731  58.993  42.209  1.00  0.00     0.012 C 
ENDBRANCH  17  39
BRANCH  18  42
HETATM   42  C   UNL     1       6.603  58.018  35.657  1.00  0.00     0.016 C 
HETATM   43  C   UNL     1       5.916  56.818  35.005  1.00  0.00     0.012 C 
HETATM   44  C   UNL     1       5.768  59.282  35.464  1.00  0.00     0.012 C 
ENDBRANCH  18  42
BRANCH  16  45
HETATM   45  C   UNL     1       8.123  57.706  41.389  1.00  0.00     0.010 C 
HETATM   46  C   UNL     1       8.520  56.246  41.599  1.00  0.00     0.012 C 
HETATM   47  C   UNL     1       7.292  58.209  42.569  1.00  0.00     0.012 C 
ENDBRANCH  16  45
TORSDOF 8
ENDMDL
MODEL 19
REMARK VINA RESULT:    -3.824     20.187     24.936
REMARK INTER + INTRA:          -5.041
REMARK INTER:                  -5.629
REMARK INTRA:                   0.588
REMARK UNBOUND:                 0.571
REMARK  8 active torsions:
REMARK  status: ('A' for Active; 'I' for Inactive)
REMARK    1  A    between atoms: C_13  and  C_15 
REMARK    2  A    between atoms: C_14  and  C_16 
REMARK    3  A    between atoms: C_15  and  C_22 
REMARK    4  A    between atoms: C_16  and  C_23 
REMARK    5  A    between atoms: C_17  and  C_21 
REMARK    6  A    between atoms: C_18  and  C_24 
REMARK    7  A    between atoms: C_19  and  C_27 
REMARK    8  A    between atoms: C_20  and  C_30 
ROOT
HETATM    1  O   UNL     1       3.637  58.058  53.202  1.00  0.00    -0.304 OA
HETATM    2  O   UNL     1       5.679  54.796  56.141  1.00  0.00    -0.304 OA
HETATM    3  O   UNL     1       8.494  56.927  54.147  1.00  0.00    -0.304 OA
HETATM    4  O   UNL     1       4.918  57.816  55.491  1.00  0.00    -0.270 OA
HETATM    5  O   UNL     1       4.394  56.057  52.336  1.00  0.00    -0.263 OA
HETATM    6  O   UNL     1       7.077  58.889  53.223  1.00  0.00    -0.270 OA
HETATM    7  O   UNL     1       5.713  54.219  58.369  1.00  0.00    -0.263 OA
HETATM    8  O   UNL     1       7.876  52.337  57.146  1.00  0.00    -0.270 OA
HETATM    9  O   UNL     1       9.746  54.989  54.131  1.00  0.00    -0.263 OA
HETATM   10  N   UNL     1       3.483  56.253  56.428  1.00  0.00    -0.340 N 
HETATM   11  N   UNL     1       6.504  57.630  51.359  1.00  0.00    -0.340 N 
HETATM   12  N   UNL     1       8.808  54.409  56.685  1.00  0.00    -0.340 N 
HETATM   13  C   UNL     1       4.344  56.086  57.622  1.00  0.00     0.190 C 
HETATM   14  C   UNL     1       5.131  58.170  51.374  1.00  0.00     0.190 C 
HETATM   15  C   UNL     1       2.919  57.377  54.249  1.00  0.00     0.227 C 
HETATM   16  C   UNL     1       8.692  55.794  56.184  1.00  0.00     0.190 C 
HETATM   17  C   UNL     1       8.531  57.065  52.711  1.00  0.00     0.227 C 
HETATM   18  C   UNL     1       6.566  53.758  55.715  1.00  0.00     0.227 C 
HETATM   19  C   UNL     1       3.866  57.169  55.437  1.00  0.00     0.250 C 
HETATM   20  C   UNL     1       4.357  57.280  52.338  1.00  0.00     0.283 C 
HETATM   21  C   UNL     1       7.329  57.962  52.445  1.00  0.00     0.250 C 
HETATM   22  C   UNL     1       5.288  54.897  57.442  1.00  0.00     0.283 C 
HETATM   23  C   UNL     1       7.796  53.439  56.594  1.00  0.00     0.250 C 
HETATM   24  C   UNL     1       9.064  55.821  54.710  1.00  0.00     0.283 C 
HETATM   25  C   UNL     1       2.310  55.376  56.341  1.00  0.00     0.153 C 
HETATM   26  C   UNL     1       6.881  56.678  50.311  1.00  0.00     0.153 C 
HETATM   27  C   UNL     1      10.066  54.023  57.323  1.00  0.00     0.153 C 
ENDROOT
BRANCH  15  28
HETATM   28  C   UNL     1       1.760  58.277  54.653  1.00  0.00     0.016 C 
HETATM   29  C   UNL     1       1.987  59.705  54.158  1.00  0.00     0.012 C 
HETATM   30  C   UNL     1       0.438  57.730  54.117  1.00  0.00     0.012 C 
ENDBRANCH  15  28
BRANCH  14  31
HETATM   31  C   UNL     1       4.408  58.229  50.035  1.00  0.00     0.014 C 
HETATM   32  C   UNL     1       2.896  58.167  50.261  1.00  0.00     0.012 C 
BRANCH  31  33
HETATM   33  C   UNL     1       4.766  59.493  49.233  1.00  0.00     0.002 C 
HETATM   34  C   UNL     1       5.469  59.200  47.915  1.00  0.00     0.005 C 
ENDBRANCH  31  33
ENDBRANCH  14  31
BRANCH  13  35
HETATM   35  C   UNL     1       3.558  55.984  58.929  1.00  0.00     0.014 C 
HETATM   36  C   UNL     1       4.487  56.252  60.116  1.00  0.00     0.012 C 
BRANCH  35  37
HETATM   37  C   UNL     1       2.364  56.955  58.973  1.00  0.00     0.002 C 
HETATM   38  C   UNL     1       2.115  57.551  60.351  1.00  0.00     0.005 C 
ENDBRANCH  35  37
ENDBRANCH  13  35
BRANCH  17  39
HETATM   39  C   UNL     1       9.816  57.748  52.281  1.00  0.00     0.016 C 
HETATM   40  C   UNL     1      10.793  56.732  51.695  1.00  0.00     0.012 C 
HETATM   41  C   UNL     1      10.451  58.485  53.458  1.00  0.00     0.012 C 
ENDBRANCH  17  39
BRANCH  18  42
HETATM   42  C   UNL     1       5.723  52.508  55.458  1.00  0.00     0.016 C 
HETATM   43  C   UNL     1       4.296  52.890  55.068  1.00  0.00     0.012 C 
HETATM   44  C   UNL     1       6.360  51.641  54.374  1.00  0.00     0.012 C 
ENDBRANCH  18  42
BRANCH  16  45
HETATM   45  C   UNL     1       9.514  56.830  56.949  1.00  0.00     0.010 C 
HETATM   46  C   UNL     1       8.814  58.189  56.941  1.00  0.00     0.012 C 
HETATM   47  C   UNL     1      10.918  56.950  56.360  1.00  0.00     0.012 C 
ENDBRANCH  16  45
TORSDOF 8
ENDMDL
MODEL 20
REMARK VINA RESULT:    -3.789      4.838      9.463
REMARK INTER + INTRA:          -4.990
REMARK INTER:                  -5.185
REMARK INTRA:                   0.194
REMARK UNBOUND:                 0.571
REMARK  8 active torsions:
REMARK  status: ('A' for Active; 'I' for Inactive)
REMARK    1  A    between atoms: C_13  and  C_15 
REMARK    2  A    between atoms: C_14  and  C_16 
REMARK    3  A    between atoms: C_15  and  C_22 
REMARK    4  A    between atoms: C_16  and  C_23 
REMARK    5  A    between atoms: C_17  and  C_21 
REMARK    6  A    between atoms: C_18  and  C_24 
REMARK    7  A    between atoms: C_19  and  C_27 
REMARK    8  A    between atoms: C_20  and  C_30 
ROOT
HETATM    1  O   UNL     1      19.739  47.221  57.257  1.00  0.00    -0.304 OA
HETATM    2  O   UNL     1      18.546  42.534  57.025  1.00  0.00    -0.304 OA
HETATM    3  O   UNL     1      22.537  43.048  56.531  1.00  0.00    -0.304 OA
HETATM    4  O   UNL     1      19.829  44.969  58.620  1.00  0.00    -0.270 OA
HETATM    5  O   UNL     1      19.514  46.201  55.198  1.00  0.00    -0.263 OA
HETATM    6  O   UNL     1      22.829  45.498  57.325  1.00  0.00    -0.270 OA
HETATM    7  O   UNL     1      17.516  40.919  58.301  1.00  0.00    -0.263 OA
HETATM    8  O   UNL     1      18.554  39.290  55.855  1.00  0.00    -0.270 OA
HETATM    9  O   UNL     1      22.445  41.261  55.076  1.00  0.00    -0.263 OA
HETATM   10  N   UNL     1      17.560  44.502  58.502  1.00  0.00    -0.340 N 
HETATM   11  N   UNL     1      22.321  46.274  55.198  1.00  0.00    -0.340 N 
HETATM   12  N   UNL     1      20.557  40.063  56.732  1.00  0.00    -0.340 N 
HETATM   13  C   UNL     1      17.733  43.185  59.159  1.00  0.00     0.190 C 
HETATM   14  C   UNL     1      21.556  47.406  55.757  1.00  0.00     0.190 C 
HETATM   15  C   UNL     1      18.466  46.705  57.693  1.00  0.00     0.227 C 
HETATM   16  C   UNL     1      21.392  41.152  57.280  1.00  0.00     0.190 C 
HETATM   17  C   UNL     1      23.119  43.930  55.547  1.00  0.00     0.227 C 
HETATM   18  C   UNL     1      18.802  41.682  55.904  1.00  0.00     0.227 C 
HETATM   19  C   UNL     1      18.685  45.318  58.307  1.00  0.00     0.250 C 
HETATM   20  C   UNL     1      20.154  46.864  56.004  1.00  0.00     0.283 C 
HETATM   21  C   UNL     1      22.774  45.305  56.105  1.00  0.00     0.250 C 
HETATM   22  C   UNL     1      17.868  42.077  58.115  1.00  0.00     0.283 C 
HETATM   23  C   UNL     1      19.279  40.238  56.175  1.00  0.00     0.250 C 
HETATM   24  C   UNL     1      22.183  41.787  56.147  1.00  0.00     0.283 C 
HETATM   25  C   UNL     1      16.208  44.824  58.031  1.00  0.00     0.153 C 
HETATM   26  C   UNL     1      22.438  46.147  53.744  1.00  0.00     0.153 C 
HETATM   27  C   UNL     1      21.100  38.705  56.775  1.00  0.00     0.153 C 
ENDROOT
BRANCH  15  28
HETATM   28  C   UNL     1      17.933  47.667  58.747  1.00  0.00     0.016 C 
HETATM   29  C   UNL     1      19.084  48.360  59.476  1.00  0.00     0.012 C 
HETATM   30  C   UNL     1      17.003  48.700  58.114  1.00  0.00     0.012 C 
ENDBRANCH  15  28
BRANCH  14  31
HETATM   31  C   UNL     1      21.479  48.663  54.902  1.00  0.00     0.014 C 
HETATM   32  C   UNL     1      20.358  49.570  55.416  1.00  0.00     0.012 C 
BRANCH  31  33
HETATM   33  C   UNL     1      22.808  49.438  54.880  1.00  0.00     0.002 C 
HETATM   34  C   UNL     1      23.264  49.826  53.480  1.00  0.00     0.005 C 
ENDBRANCH  31  33
ENDBRANCH  14  31
BRANCH  13  35
HETATM   35  C   UNL     1      16.638  42.866  60.176  1.00  0.00     0.014 C 
HETATM   36  C   UNL     1      17.062  41.673  61.037  1.00  0.00     0.012 C 
BRANCH  35  37
HETATM   37  C   UNL     1      16.308  44.067  61.080  1.00  0.00     0.002 C 
HETATM   38  C   UNL     1      17.447  44.463  62.008  1.00  0.00     0.005 C 
ENDBRANCH  35  37
ENDBRANCH  13  35
BRANCH  17  39
HETATM   39  C   UNL     1      24.623  43.735  55.490  1.00  0.00     0.016 C 
HETATM   40  C   UNL     1      25.346  45.035  55.831  1.00  0.00     0.012 C 
HETATM   41  C   UNL     1      25.047  43.230  54.112  1.00  0.00     0.012 C 
ENDBRANCH  17  39
BRANCH  18  42
HETATM   42  C   UNL     1      17.556  41.701  55.017  1.00  0.00     0.016 C 
HETATM   43  C   UNL     1      16.991  43.118  54.909  1.00  0.00     0.012 C 
HETATM   44  C   UNL     1      17.872  41.145  53.630  1.00  0.00     0.012 C 
ENDBRANCH  18  42
BRANCH  16  45
HETATM   45  C   UNL     1      22.335  40.739  58.408  1.00  0.00     0.010 C 
HETATM   46  C   UNL     1      22.104  41.602  59.648  1.00  0.00     0.012 C 
HETATM   47  C   UNL     1      23.792  40.832  57.958  1.00  0.00     0.012 C 
ENDBRANCH  16  45
TORSDOF 8
ENDMDL
