MODEL 1
REMARK VINA RESULT:    -6.843      0.000      0.000
REMARK INTER + INTRA:          -8.950
REMARK INTER:                 -10.043
REMARK INTRA:                   1.093
REMARK UNBOUND:                 1.093
REMARK  8 active torsions:
REMARK  status: ('A' for Active; 'I' for Inactive)
REMARK    1  A    between atoms: C_13  and  C_15 
REMARK    2  A    between atoms: C_14  and  C_16 
REMARK    3  A    between atoms: C_15  and  C_22 
REMARK    4  A    between atoms: C_16  and  C_23 
REMARK    5  A    between atoms: C_17  and  C_21 
REMARK    6  A    between atoms: C_18  and  C_24 
REMARK    7  A    between atoms: C_19  and  C_27 
REMARK    8  A    between atoms: C_20  and  C_30 
ROOT
HETATM    1  O   UNL     1      33.837  29.229  10.130  1.00  0.00    -0.304 OA
HETATM    2  O   UNL     1      31.557  28.646   5.898  1.00  0.00    -0.304 OA
HETATM    3  O   UNL     1      29.985  26.227   8.748  1.00  0.00    -0.304 OA
HETATM    4  O   UNL     1      31.599  29.799   8.862  1.00  0.00    -0.270 OA
HETATM    5  O   UNL     1      34.386  27.444   8.774  1.00  0.00    -0.263 OA
HETATM    6  O   UNL     1      31.000  27.258  10.897  1.00  0.00    -0.270 OA
HETATM    7  O   UNL     1      30.389  29.883   4.348  1.00  0.00    -0.263 OA
HETATM    8  O   UNL     1      30.060  26.972   3.281  1.00  0.00    -0.270 OA
HETATM    9  O   UNL     1      29.642  24.694   7.058  1.00  0.00    -0.263 OA
HETATM   10  N   UNL     1      32.591  30.810   7.025  1.00  0.00    -0.340 N 
HETATM   11  N   UNL     1      32.909  25.963  10.647  1.00  0.00    -0.340 N 
HETATM   12  N   UNL     1      29.010  26.791   5.340  1.00  0.00    -0.340 N 
HETATM   13  C   UNL     1      31.291  30.965   6.331  1.00  0.00     0.190 C 
HETATM   14  C   UNL     1      33.765  27.076  11.101  1.00  0.00     0.190 C 
HETATM   15  C   UNL     1      33.962  30.151   9.029  1.00  0.00     0.227 C 
HETATM   16  C   UNL     1      28.975  27.032   6.798  1.00  0.00     0.190 C 
HETATM   17  C   UNL     1      30.765  25.307   9.541  1.00  0.00     0.227 C 
HETATM   18  C   UNL     1      31.457  27.406   5.190  1.00  0.00     0.227 C 
HETATM   19  C   UNL     1      32.614  30.231   8.303  1.00  0.00     0.250 C 
HETATM   20  C   UNL     1      34.043  27.906   9.855  1.00  0.00     0.283 C 
HETATM   21  C   UNL     1      31.551  26.249  10.444  1.00  0.00     0.250 C 
HETATM   22  C   UNL     1      31.050  29.797   5.375  1.00  0.00     0.283 C 
HETATM   23  C   UNL     1      30.114  27.056   4.513  1.00  0.00     0.250 C 
HETATM   24  C   UNL     1      29.560  25.825   7.514  1.00  0.00     0.283 C 
HETATM   25  C   UNL     1      33.785  31.217   6.276  1.00  0.00     0.153 C 
HETATM   26  C   UNL     1      33.533  24.684  10.299  1.00  0.00     0.153 C 
HETATM   27  C   UNL     1      27.808  26.238   4.717  1.00  0.00     0.153 C 
ENDROOT
BRANCH  15  28
HETATM   28  C   UNL     1      34.319  31.507   9.623  1.00  0.00     0.016 C 
HETATM   29  C   UNL     1      33.380  31.856  10.776  1.00  0.00     0.012 C 
HETATM   30  C   UNL     1      35.773  31.525  10.092  1.00  0.00     0.012 C 
ENDBRANCH  15  28
BRANCH  14  31
HETATM   31  C   UNL     1      35.079  26.695  11.769  1.00  0.00     0.014 C 
HETATM   32  C   UNL     1      35.784  27.954  12.279  1.00  0.00     0.012 C 
BRANCH  31  33
HETATM   33  C   UNL     1      34.879  25.703  12.929  1.00  0.00     0.002 C 
HETATM   34  C   UNL     1      35.950  24.623  12.998  1.00  0.00     0.005 C 
ENDBRANCH  31  33
ENDBRANCH  14  31
BRANCH  13  35
HETATM   35  C   UNL     1      31.139  32.310   5.621  1.00  0.00     0.014 C 
HETATM   36  C   UNL     1      31.605  32.185   4.167  1.00  0.00     0.012 C 
BRANCH  35  37
HETATM   37  C   UNL     1      29.692  32.834   5.660  1.00  0.00     0.002 C 
HETATM   38  C   UNL     1      28.857  32.233   6.780  1.00  0.00     0.005 C 
ENDBRANCH  35  37
ENDBRANCH  13  35
BRANCH  17  39
HETATM   39  C   UNL     1      29.850  24.415  10.361  1.00  0.00     0.016 C 
HETATM   40  C   UNL     1      28.713  25.230  10.972  1.00  0.00     0.012 C 
HETATM   41  C   UNL     1      30.640  23.695  11.452  1.00  0.00     0.012 C 
ENDBRANCH  17  39
BRANCH  18  42
HETATM   42  C   UNL     1      32.617  27.350   4.195  1.00  0.00     0.016 C 
HETATM   43  C   UNL     1      33.866  28.006   4.782  1.00  0.00     0.012 C 
HETATM   44  C   UNL     1      32.911  25.907   3.789  1.00  0.00     0.012 C 
ENDBRANCH  18  42
BRANCH  16  45
HETATM   45  C   UNL     1      27.596  27.360   7.366  1.00  0.00     0.010 C 
HETATM   46  C   UNL     1      27.697  28.449   8.434  1.00  0.00     0.012 C 
HETATM   47  C   UNL     1      26.935  26.108   7.941  1.00  0.00     0.012 C 
ENDBRANCH  16  45
TORSDOF 8
ENDMDL
MODEL 2
REMARK VINA RESULT:    -6.657      3.011      7.281
REMARK INTER + INTRA:          -8.677
REMARK INTER:                  -9.424
REMARK INTRA:                   0.746
REMARK UNBOUND:                 1.093
REMARK  8 active torsions:
REMARK  status: ('A' for Active; 'I' for Inactive)
REMARK    1  A    between atoms: C_13  and  C_15 
REMARK    2  A    between atoms: C_14  and  C_16 
REMARK    3  A    between atoms: C_15  and  C_22 
REMARK    4  A    between atoms: C_16  and  C_23 
REMARK    5  A    between atoms: C_17  and  C_21 
REMARK    6  A    between atoms: C_18  and  C_24 
REMARK    7  A    between atoms: C_19  and  C_27 
REMARK    8  A    between atoms: C_20  and  C_30 
ROOT
HETATM    1  O   UNL     1      28.501  25.631   5.841  1.00  0.00    -0.304 OA
HETATM    2  O   UNL     1      31.485  29.344   6.711  1.00  0.00    -0.304 OA
HETATM    3  O   UNL     1      31.851  28.044   2.888  1.00  0.00    -0.304 OA
HETATM    4  O   UNL     1      28.829  28.204   5.383  1.00  0.00    -0.270 OA
HETATM    5  O   UNL     1      30.726  25.223   6.299  1.00  0.00    -0.263 OA
HETATM    6  O   UNL     1      29.739  26.559   2.659  1.00  0.00    -0.270 OA
HETATM    7  O   UNL     1      31.405  31.533   7.417  1.00  0.00    -0.263 OA
HETATM    8  O   UNL     1      34.403  31.179   6.643  1.00  0.00    -0.270 OA
HETATM    9  O   UNL     1      34.087  28.581   3.068  1.00  0.00    -0.263 OA
HETATM   10  N   UNL     1      29.041  28.839   7.604  1.00  0.00    -0.340 N 
HETATM   11  N   UNL     1      30.890  24.745   3.537  1.00  0.00    -0.340 N 
HETATM   12  N   UNL     1      33.389  30.802   4.593  1.00  0.00    -0.340 N 
HETATM   13  C   UNL     1      29.351  30.241   7.238  1.00  0.00     0.190 C 
HETATM   14  C   UNL     1      29.696  24.310   4.290  1.00  0.00     0.190 C 
HETATM   15  C   UNL     1      28.382  26.489   6.993  1.00  0.00     0.227 C 
HETATM   16  C   UNL     1      32.350  30.153   3.766  1.00  0.00     0.190 C 
HETATM   17  C   UNL     1      32.121  26.672   2.528  1.00  0.00     0.227 C 
HETATM   18  C   UNL     1      32.908  29.297   6.566  1.00  0.00     0.227 C 
HETATM   19  C   UNL     1      28.774  27.914   6.584  1.00  0.00     0.250 C 
HETATM   20  C   UNL     1      29.733  25.093   5.595  1.00  0.00     0.283 C 
HETATM   21  C   UNL     1      30.810  25.983   2.883  1.00  0.00     0.250 C 
HETATM   22  C   UNL     1      30.863  30.460   7.182  1.00  0.00     0.283 C 
HETATM   23  C   UNL     1      33.621  30.520   5.949  1.00  0.00     0.250 C 
HETATM   24  C   UNL     1      32.904  28.853   3.203  1.00  0.00     0.283 C 
HETATM   25  C   UNL     1      29.110  28.506   9.031  1.00  0.00     0.153 C 
HETATM   26  C   UNL     1      32.116  23.950   3.631  1.00  0.00     0.153 C 
HETATM   27  C   UNL     1      34.232  31.810   3.951  1.00  0.00     0.153 C 
ENDROOT
BRANCH  15  28
HETATM   28  C   UNL     1      26.924  26.451   7.429  1.00  0.00     0.016 C 
HETATM   29  C   UNL     1      26.020  26.072   6.257  1.00  0.00     0.012 C 
HETATM   30  C   UNL     1      26.733  25.475   8.589  1.00  0.00     0.012 C 
ENDBRANCH  15  28
BRANCH  14  31
HETATM   31  C   UNL     1      29.585  22.820   4.586  1.00  0.00     0.014 C 
HETATM   32  C   UNL     1      29.586  22.593   6.100  1.00  0.00     0.012 C 
BRANCH  31  33
HETATM   33  C   UNL     1      28.324  22.193   3.965  1.00  0.00     0.002 C 
HETATM   34  C   UNL     1      27.271  23.216   3.560  1.00  0.00     0.005 C 
ENDBRANCH  31  33
ENDBRANCH  14  31
BRANCH  13  35
HETATM   35  C   UNL     1      28.670  31.269   8.141  1.00  0.00     0.014 C 
HETATM   36  C   UNL     1      28.161  32.443   7.300  1.00  0.00     0.012 C 
BRANCH  35  37
HETATM   37  C   UNL     1      27.506  30.664   8.946  1.00  0.00     0.002 C 
HETATM   38  C   UNL     1      27.004  31.566  10.064  1.00  0.00     0.005 C 
ENDBRANCH  35  37
ENDBRANCH  13  35
BRANCH  17  39
HETATM   39  C   UNL     1      32.398  26.565   1.039  1.00  0.00     0.016 C 
HETATM   40  C   UNL     1      31.353  25.684   0.361  1.00  0.00     0.012 C 
HETATM   41  C   UNL     1      33.803  26.019   0.792  1.00  0.00     0.012 C 
ENDBRANCH  17  39
BRANCH  18  42
HETATM   42  C   UNL     1      33.499  28.934   7.929  1.00  0.00     0.016 C 
HETATM   43  C   UNL     1      32.776  27.727   8.527  1.00  0.00     0.012 C 
HETATM   44  C   UNL     1      34.996  28.657   7.813  1.00  0.00     0.012 C 
ENDBRANCH  18  42
BRANCH  16  45
HETATM   45  C   UNL     1      31.790  31.015   2.636  1.00  0.00     0.010 C 
HETATM   46  C   UNL     1      30.270  31.131   2.747  1.00  0.00     0.012 C 
HETATM   47  C   UNL     1      32.184  30.446   1.274  1.00  0.00     0.012 C 
ENDBRANCH  16  45
TORSDOF 8
ENDMDL
MODEL 3
REMARK VINA RESULT:    -6.640      1.873      4.581
REMARK INTER + INTRA:          -8.652
REMARK INTER:                 -10.729
REMARK INTRA:                   2.077
REMARK UNBOUND:                 1.093
REMARK  8 active torsions:
REMARK  status: ('A' for Active; 'I' for Inactive)
REMARK    1  A    between atoms: C_13  and  C_15 
REMARK    2  A    between atoms: C_14  and  C_16 
REMARK    3  A    between atoms: C_15  and  C_22 
REMARK    4  A    between atoms: C_16  and  C_23 
REMARK    5  A    between atoms: C_17  and  C_21 
REMARK    6  A    between atoms: C_18  and  C_24 
REMARK    7  A    between atoms: C_19  and  C_27 
REMARK    8  A    between atoms: C_20  and  C_30 
ROOT
HETATM    1  O   UNL     1      32.103  25.848  10.529  1.00  0.00    -0.304 OA
HETATM    2  O   UNL     1      32.284  29.474   7.326  1.00  0.00    -0.304 OA
HETATM    3  O   UNL     1      28.505  28.055   7.709  1.00  0.00    -0.304 OA
HETATM    4  O   UNL     1      31.504  28.394  10.214  1.00  0.00    -0.270 OA
HETATM    5  O   UNL     1      32.160  25.374   8.271  1.00  0.00    -0.263 OA
HETATM    6  O   UNL     1      28.718  26.641   9.870  1.00  0.00    -0.270 OA
HETATM    7  O   UNL     1      32.917  31.684   7.209  1.00  0.00    -0.263 OA
HETATM    8  O   UNL     1      31.620  31.202   4.417  1.00  0.00    -0.270 OA
HETATM    9  O   UNL     1      28.254  28.517   5.463  1.00  0.00    -0.263 OA
HETATM   10  N   UNL     1      33.626  29.083   9.578  1.00  0.00    -0.340 N 
HETATM   11  N   UNL     1      29.433  24.812   8.633  1.00  0.00    -0.340 N 
HETATM   12  N   UNL     1      29.804  30.803   5.802  1.00  0.00    -0.340 N 
HETATM   13  C   UNL     1      33.161  30.463   9.299  1.00  0.00     0.190 C 
HETATM   14  C   UNL     1      30.405  24.441   9.680  1.00  0.00     0.190 C 
HETATM   15  C   UNL     1      33.227  26.742  10.408  1.00  0.00     0.227 C 
HETATM   16  C   UNL     1      29.204  30.169   6.995  1.00  0.00     0.190 C 
HETATM   17  C   UNL     1      28.149  26.665   7.551  1.00  0.00     0.227 C 
HETATM   18  C   UNL     1      31.882  29.373   5.956  1.00  0.00     0.227 C 
HETATM   19  C   UNL     1      32.704  28.140  10.056  1.00  0.00     0.250 C 
HETATM   20  C   UNL     1      31.654  25.259   9.380  1.00  0.00     0.283 C 
HETATM   21  C   UNL     1      28.762  26.033   8.794  1.00  0.00     0.250 C 
HETATM   22  C   UNL     1      32.822  30.625   7.817  1.00  0.00     0.283 C 
HETATM   23  C   UNL     1      31.103  30.552   5.332  1.00  0.00     0.250 C 
HETATM   24  C   UNL     1      28.595  28.835   6.593  1.00  0.00     0.283 C 
HETATM   25  C   UNL     1      35.026  28.788   9.257  1.00  0.00     0.153 C 
HETATM   26  C   UNL     1      29.328  23.977   7.434  1.00  0.00     0.153 C 
HETATM   27  C   UNL     1      28.985  31.762   5.061  1.00  0.00     0.153 C 
ENDROOT
BRANCH  15  28
HETATM   28  C   UNL     1      33.924  26.768  11.762  1.00  0.00     0.016 C 
HETATM   29  C   UNL     1      33.006  26.217  12.851  1.00  0.00     0.012 C 
HETATM   30  C   UNL     1      35.230  25.976  11.711  1.00  0.00     0.012 C 
ENDBRANCH  15  28
BRANCH  14  31
HETATM   31  C   UNL     1      30.768  22.966   9.779  1.00  0.00     0.014 C 
HETATM   32  C   UNL     1      32.273  22.788   9.566  1.00  0.00     0.012 C 
BRANCH  31  33
HETATM   33  C   UNL     1      30.356  22.352  11.129  1.00  0.00     0.002 C 
HETATM   34  C   UNL     1      29.192  23.072  11.796  1.00  0.00     0.005 C 
ENDBRANCH  31  33
ENDBRANCH  14  31
BRANCH  13  35
HETATM   35  C   UNL     1      34.138  31.539   9.771  1.00  0.00     0.014 C 
HETATM   36  C   UNL     1      34.152  31.591  11.301  1.00  0.00     0.012 C 
BRANCH  35  37
HETATM   37  C   UNL     1      35.566  31.308   9.245  1.00  0.00     0.002 C 
HETATM   38  C   UNL     1      36.643  31.957  10.102  1.00  0.00     0.005 C 
ENDBRANCH  35  37
ENDBRANCH  13  35
BRANCH  17  39
HETATM   39  C   UNL     1      26.639  26.506   7.556  1.00  0.00     0.016 C 
HETATM   40  C   UNL     1      26.200  25.586   8.693  1.00  0.00     0.012 C 
HETATM   41  C   UNL     1      26.151  25.969   6.212  1.00  0.00     0.012 C 
ENDBRANCH  17  39
BRANCH  18  42
HETATM   42  C   UNL     1      33.126  29.028   5.136  1.00  0.00     0.016 C 
HETATM   43  C   UNL     1      34.202  28.402   6.023  1.00  0.00     0.012 C 
HETATM   44  C   UNL     1      32.770  28.090   3.984  1.00  0.00     0.012 C 
ENDBRANCH  18  42
BRANCH  16  45
HETATM   45  C   UNL     1      28.167  31.018   7.727  1.00  0.00     0.010 C 
HETATM   46  C   UNL     1      28.410  32.506   7.473  1.00  0.00     0.012 C 
HETATM   47  C   UNL     1      28.185  30.722   9.226  1.00  0.00     0.012 C 
ENDBRANCH  16  45
TORSDOF 8
ENDMDL
MODEL 4
REMARK VINA RESULT:    -6.460      3.168      6.872
REMARK INTER + INTRA:          -8.389
REMARK INTER:                  -9.056
REMARK INTRA:                   0.668
REMARK UNBOUND:                 1.093
REMARK  8 active torsions:
REMARK  status: ('A' for Active; 'I' for Inactive)
REMARK    1  A    between atoms: C_13  and  C_15 
REMARK    2  A    between atoms: C_14  and  C_16 
REMARK    3  A    between atoms: C_15  and  C_22 
REMARK    4  A    between atoms: C_16  and  C_23 
REMARK    5  A    between atoms: C_17  and  C_21 
REMARK    6  A    between atoms: C_18  and  C_24 
REMARK    7  A    between atoms: C_19  and  C_27 
REMARK    8  A    between atoms: C_20  and  C_30 
ROOT
HETATM    1  O   UNL     1      33.254  28.394   5.449  1.00  0.00    -0.304 OA
HETATM    2  O   UNL     1      28.847  26.387   5.415  1.00  0.00    -0.304 OA
HETATM    3  O   UNL     1      31.465  24.194   3.229  1.00  0.00    -0.304 OA
HETATM    4  O   UNL     1      31.855  26.399   6.450  1.00  0.00    -0.270 OA
HETATM    5  O   UNL     1      31.863  28.725   3.637  1.00  0.00    -0.263 OA
HETATM    6  O   UNL     1      33.726  25.203   3.995  1.00  0.00    -0.270 OA
HETATM    7  O   UNL     1      27.273  25.581   6.888  1.00  0.00    -0.263 OA
HETATM    8  O   UNL     1      26.057  24.830   4.118  1.00  0.00    -0.270 OA
HETATM    9  O   UNL     1      29.688  23.721   1.835  1.00  0.00    -0.263 OA
HETATM   10  N   UNL     1      30.141  27.694   7.323  1.00  0.00    -0.340 N 
HETATM   11  N   UNL     1      33.556  26.868   2.387  1.00  0.00    -0.340 N 
HETATM   12  N   UNL     1      28.025  23.606   4.063  1.00  0.00    -0.340 N 
HETATM   13  C   UNL     1      29.362  26.501   7.730  1.00  0.00     0.190 C 
HETATM   14  C   UNL     1      34.119  27.868   3.314  1.00  0.00     0.190 C 
HETATM   15  C   UNL     1      32.207  28.765   6.368  1.00  0.00     0.227 C 
HETATM   16  C   UNL     1      29.486  23.499   4.261  1.00  0.00     0.190 C 
HETATM   17  C   UNL     1      32.271  24.735   2.160  1.00  0.00     0.227 C 
HETATM   18  C   UNL     1      28.079  26.127   4.236  1.00  0.00     0.227 C 
HETATM   19  C   UNL     1      31.389  27.514   6.710  1.00  0.00     0.250 C 
HETATM   20  C   UNL     1      32.935  28.385   4.119  1.00  0.00     0.283 C 
HETATM   21  C   UNL     1      33.269  25.601   2.917  1.00  0.00     0.250 C 
HETATM   22  C   UNL     1      28.340  26.133   6.654  1.00  0.00     0.283 C 
HETATM   23  C   UNL     1      27.292  24.800   4.152  1.00  0.00     0.250 C 
HETATM   24  C   UNL     1      30.188  23.804   2.948  1.00  0.00     0.283 C 
HETATM   25  C   UNL     1      29.498  28.996   7.533  1.00  0.00     0.153 C 
HETATM   26  C   UNL     1      33.198  27.282   1.028  1.00  0.00     0.153 C 
HETATM   27  C   UNL     1      27.292  22.378   3.754  1.00  0.00     0.153 C 
ENDROOT
BRANCH  15  28
HETATM   28  C   UNL     1      32.884  29.308   7.619  1.00  0.00     0.016 C 
HETATM   29  C   UNL     1      34.351  28.885   7.665  1.00  0.00     0.012 C 
HETATM   30  C   UNL     1      32.764  30.830   7.681  1.00  0.00     0.012 C 
ENDBRANCH  15  28
BRANCH  14  31
HETATM   31  C   UNL     1      34.863  29.038   2.684  1.00  0.00     0.014 C 
HETATM   32  C   UNL     1      34.723  30.277   3.570  1.00  0.00     0.012 C 
BRANCH  31  33
HETATM   33  C   UNL     1      36.353  28.727   2.452  1.00  0.00     0.002 C 
HETATM   34  C   UNL     1      36.768  28.790   0.989  1.00  0.00     0.005 C 
ENDBRANCH  31  33
ENDBRANCH  14  31
BRANCH  13  35
HETATM   35  C   UNL     1      28.703  26.644   9.101  1.00  0.00     0.014 C 
HETATM   36  C   UNL     1      27.296  27.225   8.943  1.00  0.00     0.012 C 
BRANCH  35  37
HETATM   37  C   UNL     1      28.632  25.307   9.861  1.00  0.00     0.002 C 
HETATM   38  C   UNL     1      27.247  24.991  10.408  1.00  0.00     0.005 C 
ENDBRANCH  35  37
ENDBRANCH  13  35
BRANCH  17  39
HETATM   39  C   UNL     1      32.983  23.616   1.421  1.00  0.00     0.016 C 
HETATM   40  C   UNL     1      34.495  23.746   1.580  1.00  0.00     0.012 C 
HETATM   41  C   UNL     1      32.596  23.618  -0.057  1.00  0.00     0.012 C 
ENDBRANCH  17  39
BRANCH  18  42
HETATM   42  C   UNL     1      27.168  27.333   4.004  1.00  0.00     0.016 C 
HETATM   43  C   UNL     1      27.918  28.637   4.276  1.00  0.00     0.012 C 
HETATM   44  C   UNL     1      26.610  27.323   2.582  1.00  0.00     0.012 C 
ENDBRANCH  18  42
BRANCH  16  45
HETATM   45  C   UNL     1      29.967  22.159   4.813  1.00  0.00     0.010 C 
HETATM   46  C   UNL     1      30.769  22.360   6.099  1.00  0.00     0.012 C 
HETATM   47  C   UNL     1      30.804  21.414   3.774  1.00  0.00     0.012 C 
ENDBRANCH  16  45
TORSDOF 8
ENDMDL
MODEL 5
REMARK VINA RESULT:    -6.330      2.803      7.295
REMARK INTER + INTRA:          -8.198
REMARK INTER:                  -8.653
REMARK INTRA:                   0.455
REMARK UNBOUND:                 1.093
REMARK  8 active torsions:
REMARK  status: ('A' for Active; 'I' for Inactive)
REMARK    1  A    between atoms: C_13  and  C_15 
REMARK    2  A    between atoms: C_14  and  C_16 
REMARK    3  A    between atoms: C_15  and  C_22 
REMARK    4  A    between atoms: C_16  and  C_23 
REMARK    5  A    between atoms: C_17  and  C_21 
REMARK    6  A    between atoms: C_18  and  C_24 
REMARK    7  A    between atoms: C_19  and  C_27 
REMARK    8  A    between atoms: C_20  and  C_30 
ROOT
HETATM    1  O   UNL     1      28.203  25.808   5.346  1.00  0.00    -0.304 OA
HETATM    2  O   UNL     1      30.570  29.392   3.110  1.00  0.00    -0.304 OA
HETATM    3  O   UNL     1      31.772  29.033   6.966  1.00  0.00    -0.304 OA
HETATM    4  O   UNL     1      30.534  26.441   4.296  1.00  0.00    -0.270 OA
HETATM    5  O   UNL     1      27.523  27.992   5.655  1.00  0.00    -0.263 OA
HETATM    6  O   UNL     1      30.788  26.717   7.584  1.00  0.00    -0.270 OA
HETATM    7  O   UNL     1      31.919  29.729   1.276  1.00  0.00    -0.263 OA
HETATM    8  O   UNL     1      31.984  32.508   2.685  1.00  0.00    -0.270 OA
HETATM    9  O   UNL     1      32.019  31.327   6.955  1.00  0.00    -0.263 OA
HETATM   10  N   UNL     1      29.724  27.047   2.209  1.00  0.00    -0.340 N 
HETATM   11  N   UNL     1      28.766  27.702   8.156  1.00  0.00    -0.340 N 
HETATM   12  N   UNL     1      32.929  31.176   4.330  1.00  0.00    -0.340 N 
HETATM   13  C   UNL     1      31.059  27.505   1.755  1.00  0.00     0.190 C 
HETATM   14  C   UNL     1      28.013  26.574   7.574  1.00  0.00     0.190 C 
HETATM   15  C   UNL     1      28.217  25.976   3.915  1.00  0.00     0.227 C 
HETATM   16  C   UNL     1      32.934  29.950   5.155  1.00  0.00     0.190 C 
HETATM   17  C   UNL     1      30.871  29.049   8.094  1.00  0.00     0.227 C 
HETATM   18  C   UNL     1      30.568  30.759   3.533  1.00  0.00     0.227 C 
HETATM   19  C   UNL     1      29.593  26.510   3.498  1.00  0.00     0.250 C 
HETATM   20  C   UNL     1      27.871  26.904   6.094  1.00  0.00     0.283 C 
HETATM   21  C   UNL     1      30.153  27.714   7.949  1.00  0.00     0.250 C 
HETATM   22  C   UNL     1      31.214  29.010   1.972  1.00  0.00     0.283 C 
HETATM   23  C   UNL     1      31.892  31.551   3.461  1.00  0.00     0.250 C 
HETATM   24  C   UNL     1      32.200  30.226   6.458  1.00  0.00     0.283 C 
HETATM   25  C   UNL     1      28.609  27.264   1.281  1.00  0.00     0.153 C 
HETATM   26  C   UNL     1      28.026  28.801   8.780  1.00  0.00     0.153 C 
HETATM   27  C   UNL     1      34.091  32.061   4.427  1.00  0.00     0.153 C 
ENDROOT
BRANCH  15  28
HETATM   28  C   UNL     1      27.980  24.602   3.302  1.00  0.00     0.016 C 
HETATM   29  C   UNL     1      28.545  23.506   4.204  1.00  0.00     0.012 C 
HETATM   30  C   UNL     1      26.491  24.373   3.050  1.00  0.00     0.012 C 
ENDBRANCH  15  28
BRANCH  14  31
HETATM   31  C   UNL     1      26.642  26.289   8.172  1.00  0.00     0.014 C 
HETATM   32  C   UNL     1      25.606  26.162   7.053  1.00  0.00     0.012 C 
BRANCH  31  33
HETATM   33  C   UNL     1      26.635  25.016   9.037  1.00  0.00     0.002 C 
HETATM   34  C   UNL     1      27.117  25.246  10.463  1.00  0.00     0.005 C 
ENDBRANCH  31  33
ENDBRANCH  14  31
BRANCH  13  35
HETATM   35  C   UNL     1      31.377  27.111   0.313  1.00  0.00     0.014 C 
HETATM   36  C   UNL     1      32.885  27.210   0.069  1.00  0.00     0.012 C 
BRANCH  35  37
HETATM   37  C   UNL     1      30.887  25.693  -0.031  1.00  0.00     0.002 C 
HETATM   38  C   UNL     1      31.743  24.590   0.574  1.00  0.00     0.005 C 
ENDBRANCH  35  37
ENDBRANCH  13  35
BRANCH  17  39
HETATM   39  C   UNL     1      31.656  29.099   9.392  1.00  0.00     0.016 C 
HETATM   40  C   UNL     1      31.424  27.830  10.208  1.00  0.00     0.012 C 
HETATM   41  C   UNL     1      31.274  30.336  10.203  1.00  0.00     0.012 C 
ENDBRANCH  17  39
BRANCH  18  42
HETATM   42  C   UNL     1      29.448  31.473   2.775  1.00  0.00     0.016 C 
HETATM   43  C   UNL     1      28.260  30.536   2.557  1.00  0.00     0.012 C 
HETATM   44  C   UNL     1      29.006  32.730   3.522  1.00  0.00     0.012 C 
ENDBRANCH  18  42
BRANCH  16  45
HETATM   45  C   UNL     1      34.317  29.371   5.446  1.00  0.00     0.010 C 
HETATM   46  C   UNL     1      34.553  28.099   4.633  1.00  0.00     0.012 C 
HETATM   47  C   UNL     1      34.482  29.088   6.939  1.00  0.00     0.012 C 
ENDBRANCH  16  45
TORSDOF 8
ENDMDL
MODEL 6
REMARK VINA RESULT:    -6.321      2.146      6.058
REMARK INTER + INTRA:          -8.184
REMARK INTER:                  -9.990
REMARK INTRA:                   1.807
REMARK UNBOUND:                 1.093
REMARK  8 active torsions:
REMARK  status: ('A' for Active; 'I' for Inactive)
REMARK    1  A    between atoms: C_13  and  C_15 
REMARK    2  A    between atoms: C_14  and  C_16 
REMARK    3  A    between atoms: C_15  and  C_22 
REMARK    4  A    between atoms: C_16  and  C_23 
REMARK    5  A    between atoms: C_17  and  C_21 
REMARK    6  A    between atoms: C_18  and  C_24 
REMARK    7  A    between atoms: C_19  and  C_27 
REMARK    8  A    between atoms: C_20  and  C_30 
ROOT
HETATM    1  O   UNL     1      31.186  24.901   8.469  1.00  0.00    -0.304 OA
HETATM    2  O   UNL     1      32.165  29.567   7.621  1.00  0.00    -0.304 OA
HETATM    3  O   UNL     1      28.526  28.550   6.150  1.00  0.00    -0.304 OA
HETATM    4  O   UNL     1      30.589  27.342   9.260  1.00  0.00    -0.270 OA
HETATM    5  O   UNL     1      31.958  25.546   6.391  1.00  0.00    -0.263 OA
HETATM    6  O   UNL     1      28.133  26.269   7.317  1.00  0.00    -0.270 OA
HETATM    7  O   UNL     1      32.693  31.488   8.774  1.00  0.00    -0.263 OA
HETATM    8  O   UNL     1      32.343  32.523   5.854  1.00  0.00    -0.270 OA
HETATM    9  O   UNL     1      28.955  30.041   4.444  1.00  0.00    -0.263 OA
HETATM   10  N   UNL     1      32.767  28.018   9.686  1.00  0.00    -0.340 N 
HETATM   11  N   UNL     1      29.283  25.177   5.623  1.00  0.00    -0.340 N 
HETATM   12  N   UNL     1      30.211  31.715   6.277  1.00  0.00    -0.340 N 
HETATM   13  C   UNL     1      32.344  29.407   9.983  1.00  0.00     0.190 C 
HETATM   14  C   UNL     1      29.903  24.254   6.594  1.00  0.00     0.190 C 
HETATM   15  C   UNL     1      32.248  25.620   9.127  1.00  0.00     0.227 C 
HETATM   16  C   UNL     1      29.305  30.662   6.782  1.00  0.00     0.190 C 
HETATM   17  C   UNL     1      28.304  27.446   5.246  1.00  0.00     0.227 C 
HETATM   18  C   UNL     1      32.209  30.168   6.323  1.00  0.00     0.227 C 
HETATM   19  C   UNL     1      31.790  27.066   9.357  1.00  0.00     0.250 C 
HETATM   20  C   UNL     1      31.142  24.977   7.104  1.00  0.00     0.283 C 
HETATM   21  C   UNL     1      28.535  26.241   6.149  1.00  0.00     0.250 C 
HETATM   22  C   UNL     1      32.469  30.285   8.738  1.00  0.00     0.283 C 
HETATM   23  C   UNL     1      31.603  31.578   6.147  1.00  0.00     0.250 C 
HETATM   24  C   UNL     1      28.915  29.750   5.629  1.00  0.00     0.283 C 
HETATM   25  C   UNL     1      34.211  27.761   9.687  1.00  0.00     0.153 C 
HETATM   26  C   UNL     1      29.592  25.023   4.200  1.00  0.00     0.153 C 
HETATM   27  C   UNL     1      29.613  32.992   5.887  1.00  0.00     0.153 C 
ENDROOT
BRANCH  15  28
HETATM   28  C   UNL     1      32.493  24.929  10.462  1.00  0.00     0.016 C 
HETATM   29  C   UNL     1      31.266  24.123  10.885  1.00  0.00     0.012 C 
HETATM   30  C   UNL     1      33.725  24.029  10.386  1.00  0.00     0.012 C 
ENDBRANCH  15  28
BRANCH  14  31
HETATM   31  C   UNL     1      30.290  22.877   6.071  1.00  0.00     0.014 C 
HETATM   32  C   UNL     1      31.111  22.135   7.129  1.00  0.00     0.012 C 
BRANCH  31  33
HETATM   33  C   UNL     1      29.063  22.035   5.677  1.00  0.00     0.002 C 
HETATM   34  C   UNL     1      29.179  21.398   4.299  1.00  0.00     0.005 C 
ENDBRANCH  31  33
ENDBRANCH  14  31
BRANCH  13  35
HETATM   35  C   UNL     1      33.074  30.021  11.177  1.00  0.00     0.014 C 
HETATM   36  C   UNL     1      32.333  31.275  11.649  1.00  0.00     0.012 C 
BRANCH  35  37
HETATM   37  C   UNL     1      33.220  29.032  12.348  1.00  0.00     0.002 C 
HETATM   38  C   UNL     1      31.893  28.636  12.980  1.00  0.00     0.005 C 
ENDBRANCH  35  37
ENDBRANCH  13  35
BRANCH  17  39
HETATM   39  C   UNL     1      26.876  27.467   4.733  1.00  0.00     0.016 C 
HETATM   40  C   UNL     1      26.087  26.286   5.293  1.00  0.00     0.012 C 
HETATM   41  C   UNL     1      26.853  27.451   3.206  1.00  0.00     0.012 C 
ENDBRANCH  17  39
BRANCH  18  42
HETATM   42  C   UNL     1      33.660  30.120   5.842  1.00  0.00     0.016 C 
HETATM   43  C   UNL     1      34.356  28.857   6.350  1.00  0.00     0.012 C 
HETATM   44  C   UNL     1      33.727  30.191   4.318  1.00  0.00     0.012 C 
ENDBRANCH  18  42
BRANCH  16  45
HETATM   45  C   UNL     1      28.053  31.171   7.493  1.00  0.00     0.010 C 
HETATM   46  C   UNL     1      28.007  32.699   7.478  1.00  0.00     0.012 C 
HETATM   47  C   UNL     1      27.996  30.649   8.928  1.00  0.00     0.012 C 
ENDBRANCH  16  45
TORSDOF 8
ENDMDL
MODEL 7
REMARK VINA RESULT:    -6.317      2.451      7.317
REMARK INTER + INTRA:          -8.178
REMARK INTER:                  -8.957
REMARK INTRA:                   0.780
REMARK UNBOUND:                 1.093
REMARK  8 active torsions:
REMARK  status: ('A' for Active; 'I' for Inactive)
REMARK    1  A    between atoms: C_13  and  C_15 
REMARK    2  A    between atoms: C_14  and  C_16 
REMARK    3  A    between atoms: C_15  and  C_22 
REMARK    4  A    between atoms: C_16  and  C_23 
REMARK    5  A    between atoms: C_17  and  C_21 
REMARK    6  A    between atoms: C_18  and  C_24 
REMARK    7  A    between atoms: C_19  and  C_27 
REMARK    8  A    between atoms: C_20  and  C_30 
ROOT
HETATM    1  O   UNL     1      29.191  25.729   6.554  1.00  0.00    -0.304 OA
HETATM    2  O   UNL     1      32.081  29.614   6.634  1.00  0.00    -0.304 OA
HETATM    3  O   UNL     1      28.937  30.186   4.138  1.00  0.00    -0.304 OA
HETATM    4  O   UNL     1      29.369  28.187   7.485  1.00  0.00    -0.270 OA
HETATM    5  O   UNL     1      30.725  26.046   4.859  1.00  0.00    -0.263 OA
HETATM    6  O   UNL     1      27.378  28.238   4.841  1.00  0.00    -0.270 OA
HETATM    7  O   UNL     1      32.939  31.134   8.134  1.00  0.00    -0.263 OA
HETATM    8  O   UNL     1      33.886  32.277   5.393  1.00  0.00    -0.270 OA
HETATM    9  O   UNL     1      30.384  31.408   2.822  1.00  0.00    -0.263 OA
HETATM   10  N   UNL     1      31.409  27.915   8.554  1.00  0.00    -0.340 N 
HETATM   11  N   UNL     1      28.466  26.806   3.375  1.00  0.00    -0.340 N 
HETATM   12  N   UNL     1      31.586  32.394   5.130  1.00  0.00    -0.340 N 
HETATM   13  C   UNL     1      31.482  29.350   8.916  1.00  0.00     0.190 C 
HETATM   14  C   UNL     1      28.371  25.693   4.339  1.00  0.00     0.190 C 
HETATM   15  C   UNL     1      30.203  25.944   7.559  1.00  0.00     0.227 C 
HETATM   16  C   UNL     1      30.241  31.789   5.232  1.00  0.00     0.190 C 
HETATM   17  C   UNL     1      28.587  29.284   3.066  1.00  0.00     0.227 C 
HETATM   18  C   UNL     1      32.731  30.170   5.486  1.00  0.00     0.227 C 
HETATM   19  C   UNL     1      30.287  27.446   7.855  1.00  0.00     0.250 C 
HETATM   20  C   UNL     1      29.583  25.842   5.249  1.00  0.00     0.283 C 
HETATM   21  C   UNL     1      28.064  28.072   3.826  1.00  0.00     0.250 C 
HETATM   22  C   UNL     1      32.293  30.126   7.878  1.00  0.00     0.283 C 
HETATM   23  C   UNL     1      32.790  31.707   5.352  1.00  0.00     0.250 C 
HETATM   24  C   UNL     1      29.890  31.135   3.905  1.00  0.00     0.283 C 
HETATM   25  C   UNL     1      32.576  27.094   8.898  1.00  0.00     0.153 C 
HETATM   26  C   UNL     1      29.097  26.567   2.075  1.00  0.00     0.153 C 
HETATM   27  C   UNL     1      31.664  33.811   4.775  1.00  0.00     0.153 C 
ENDROOT
BRANCH  15  28
HETATM   28  C   UNL     1      29.761  25.188   8.805  1.00  0.00     0.016 C 
HETATM   29  C   UNL     1      28.247  24.983   8.803  1.00  0.00     0.012 C 
HETATM   30  C   UNL     1      30.482  23.845   8.905  1.00  0.00     0.012 C 
ENDBRANCH  15  28
BRANCH  14  31
HETATM   31  C   UNL     1      28.338  24.287   3.754  1.00  0.00     0.014 C 
HETATM   32  C   UNL     1      29.132  23.335   4.651  1.00  0.00     0.012 C 
BRANCH  31  33
HETATM   33  C   UNL     1      26.902  23.762   3.577  1.00  0.00     0.002 C 
HETATM   34  C   UNL     1      26.138  24.445   2.450  1.00  0.00     0.005 C 
ENDBRANCH  31  33
ENDBRANCH  14  31
BRANCH  13  35
HETATM   35  C   UNL     1      32.005  29.593  10.331  1.00  0.00     0.014 C 
HETATM   36  C   UNL     1      33.517  29.830  10.292  1.00  0.00     0.012 C 
BRANCH  35  37
HETATM   37  C   UNL     1      31.309  30.782  11.018  1.00  0.00     0.002 C 
HETATM   38  C   UNL     1      32.268  31.701  11.762  1.00  0.00     0.005 C 
ENDBRANCH  35  37
ENDBRANCH  13  35
BRANCH  17  39
HETATM   39  C   UNL     1      27.494  29.892   2.205  1.00  0.00     0.016 C 
HETATM   40  C   UNL     1      26.310  28.935   2.087  1.00  0.00     0.012 C 
HETATM   41  C   UNL     1      28.036  30.249   0.823  1.00  0.00     0.012 C 
ENDBRANCH  17  39
BRANCH  18  42
HETATM   42  C   UNL     1      34.125  29.547   5.400  1.00  0.00     0.016 C 
HETATM   43  C   UNL     1      34.123  28.134   5.985  1.00  0.00     0.012 C 
HETATM   44  C   UNL     1      34.619  29.527   3.955  1.00  0.00     0.012 C 
ENDBRANCH  18  42
BRANCH  16  45
HETATM   45  C   UNL     1      29.130  32.748   5.653  1.00  0.00     0.010 C 
HETATM   46  C   UNL     1      28.447  32.257   6.929  1.00  0.00     0.012 C 
HETATM   47  C   UNL     1      28.106  32.916   4.531  1.00  0.00     0.012 C 
ENDBRANCH  16  45
TORSDOF 8
ENDMDL
MODEL 8
REMARK VINA RESULT:    -5.961      3.199      7.821
REMARK INTER + INTRA:          -7.656
REMARK INTER:                  -8.263
REMARK INTRA:                   0.607
REMARK UNBOUND:                 1.093
REMARK  8 active torsions:
REMARK  status: ('A' for Active; 'I' for Inactive)
REMARK    1  A    between atoms: C_13  and  C_15 
REMARK    2  A    between atoms: C_14  and  C_16 
REMARK    3  A    between atoms: C_15  and  C_22 
REMARK    4  A    between atoms: C_16  and  C_23 
REMARK    5  A    between atoms: C_17  and  C_21 
REMARK    6  A    between atoms: C_18  and  C_24 
REMARK    7  A    between atoms: C_19  and  C_27 
REMARK    8  A    between atoms: C_20  and  C_30 
ROOT
HETATM    1  O   UNL     1      31.987  25.632   3.425  1.00  0.00    -0.304 OA
HETATM    2  O   UNL     1      29.490  28.182   6.698  1.00  0.00    -0.304 OA
HETATM    3  O   UNL     1      31.272  30.625   3.997  1.00  0.00    -0.304 OA
HETATM    4  O   UNL     1      29.767  27.011   3.753  1.00  0.00    -0.270 OA
HETATM    5  O   UNL     1      33.096  26.614   5.196  1.00  0.00    -0.263 OA
HETATM    6  O   UNL     1      31.933  28.932   2.150  1.00  0.00    -0.270 OA
HETATM    7  O   UNL     1      27.346  28.368   7.516  1.00  0.00    -0.263 OA
HETATM    8  O   UNL     1      28.822  30.715   8.940  1.00  0.00    -0.270 OA
HETATM    9  O   UNL     1      31.540  32.118   5.735  1.00  0.00    -0.263 OA
HETATM   10  N   UNL     1      28.992  25.826   5.591  1.00  0.00    -0.340 N 
HETATM   11  N   UNL     1      33.920  28.466   3.254  1.00  0.00    -0.340 N 
HETATM   12  N   UNL     1      29.054  31.352   6.723  1.00  0.00    -0.340 N 
HETATM   13  C   UNL     1      27.842  26.742   5.776  1.00  0.00     0.190 C 
HETATM   14  C   UNL     1      33.816  27.035   2.907  1.00  0.00     0.190 C 
HETATM   15  C   UNL     1      31.014  25.046   4.312  1.00  0.00     0.227 C 
HETATM   16  C   UNL     1      29.387  31.039   5.317  1.00  0.00     0.190 C 
HETATM   17  C   UNL     1      32.683  30.594   3.693  1.00  0.00     0.227 C 
HETATM   18  C   UNL     1      30.052  29.183   7.553  1.00  0.00     0.227 C 
HETATM   19  C   UNL     1      29.876  26.052   4.525  1.00  0.00     0.250 C 
HETATM   20  C   UNL     1      32.950  26.418   3.996  1.00  0.00     0.283 C 
HETATM   21  C   UNL     1      32.819  29.276   2.940  1.00  0.00     0.250 C 
HETATM   22  C   UNL     1      28.179  27.827   6.799  1.00  0.00     0.283 C 
HETATM   23  C   UNL     1      29.239  30.473   7.803  1.00  0.00     0.250 C 
HETATM   24  C   UNL     1      30.855  31.353   5.074  1.00  0.00     0.283 C 
HETATM   25  C   UNL     1      29.160  24.776   6.601  1.00  0.00     0.153 C 
HETATM   26  C   UNL     1      35.080  28.928   4.021  1.00  0.00     0.153 C 
HETATM   27  C   UNL     1      28.490  32.671   7.007  1.00  0.00     0.153 C 
ENDROOT
BRANCH  15  28
HETATM   28  C   UNL     1      30.484  23.793   3.626  1.00  0.00     0.016 C 
HETATM   29  C   UNL     1      30.785  23.830   2.129  1.00  0.00     0.012 C 
HETATM   30  C   UNL     1      31.081  22.538   4.261  1.00  0.00     0.012 C 
ENDBRANCH  15  28
BRANCH  14  31
HETATM   31  C   UNL     1      35.125  26.266   2.793  1.00  0.00     0.014 C 
HETATM   32  C   UNL     1      34.844  24.761   2.814  1.00  0.00     0.012 C 
BRANCH  31  33
HETATM   33  C   UNL     1      35.910  26.632   1.521  1.00  0.00     0.002 C 
HETATM   34  C   UNL     1      37.415  26.714   1.737  1.00  0.00     0.005 C 
ENDBRANCH  31  33
ENDBRANCH  14  31
BRANCH  13  35
HETATM   35  C   UNL     1      26.543  26.021   6.131  1.00  0.00     0.014 C 
HETATM   36  C   UNL     1      26.283  26.130   7.635  1.00  0.00     0.012 C 
BRANCH  35  37
HETATM   37  C   UNL     1      25.334  26.573   5.353  1.00  0.00     0.002 C 
HETATM   38  C   UNL     1      25.705  27.210   4.022  1.00  0.00     0.005 C 
ENDBRANCH  35  37
ENDBRANCH  13  35
BRANCH  17  39
HETATM   39  C   UNL     1      33.054  31.764   2.800  1.00  0.00     0.016 C 
HETATM   40  C   UNL     1      33.539  31.268   1.440  1.00  0.00     0.012 C 
HETATM   41  C   UNL     1      34.119  32.631   3.466  1.00  0.00     0.012 C 
ENDBRANCH  17  39
BRANCH  18  42
HETATM   42  C   UNL     1      30.438  28.502   8.867  1.00  0.00     0.016 C 
HETATM   43  C   UNL     1      30.956  27.087   8.611  1.00  0.00     0.012 C 
HETATM   44  C   UNL     1      31.482  29.327   9.616  1.00  0.00     0.012 C 
ENDBRANCH  18  42
BRANCH  16  45
HETATM   45  C   UNL     1      28.521  31.744   4.275  1.00  0.00     0.010 C 
HETATM   46  C   UNL     1      28.130  30.779   3.156  1.00  0.00     0.012 C 
HETATM   47  C   UNL     1      29.246  32.960   3.702  1.00  0.00     0.012 C 
ENDBRANCH  16  45
TORSDOF 8
ENDMDL
MODEL 9
REMARK VINA RESULT:    -5.890      2.975      7.072
REMARK INTER + INTRA:          -7.552
REMARK INTER:                  -8.465
REMARK INTRA:                   0.914
REMARK UNBOUND:                 1.093
REMARK  8 active torsions:
REMARK  status: ('A' for Active; 'I' for Inactive)
REMARK    1  A    between atoms: C_13  and  C_15 
REMARK    2  A    between atoms: C_14  and  C_16 
REMARK    3  A    between atoms: C_15  and  C_22 
REMARK    4  A    between atoms: C_16  and  C_23 
REMARK    5  A    between atoms: C_17  and  C_21 
REMARK    6  A    between atoms: C_18  and  C_24 
REMARK    7  A    between atoms: C_19  and  C_27 
REMARK    8  A    between atoms: C_20  and  C_30 
ROOT
HETATM    1  O   UNL     1      29.886  24.599   7.079  1.00  0.00    -0.304 OA
HETATM    2  O   UNL     1      30.470  27.213   3.044  1.00  0.00    -0.304 OA
HETATM    3  O   UNL     1      31.535  29.341   6.327  1.00  0.00    -0.304 OA
HETATM    4  O   UNL     1      31.722  25.526   5.433  1.00  0.00    -0.270 OA
HETATM    5  O   UNL     1      28.279  26.142   6.476  1.00  0.00    -0.263 OA
HETATM    6  O   UNL     1      31.680  27.468   8.113  1.00  0.00    -0.270 OA
HETATM    7  O   UNL     1      31.598  27.121   1.040  1.00  0.00    -0.263 OA
HETATM    8  O   UNL     1      30.336  29.970   0.978  1.00  0.00    -0.270 OA
HETATM    9  O   UNL     1      30.716  31.192   5.220  1.00  0.00    -0.263 OA
HETATM   10  N   UNL     1      30.817  24.624   3.497  1.00  0.00    -0.340 N 
HETATM   11  N   UNL     1      29.409  27.669   8.543  1.00  0.00    -0.340 N 
HETATM   12  N   UNL     1      31.710  30.155   2.837  1.00  0.00    -0.340 N 
HETATM   13  C   UNL     1      31.818  25.301   2.639  1.00  0.00     0.190 C 
HETATM   14  C   UNL     1      29.275  26.207   8.698  1.00  0.00     0.190 C 
HETATM   15  C   UNL     1      29.885  24.026   5.756  1.00  0.00     0.227 C 
HETATM   16  C   UNL     1      32.233  29.626   4.114  1.00  0.00     0.190 C 
HETATM   17  C   UNL     1      30.677  29.538   7.471  1.00  0.00     0.227 C 
HETATM   18  C   UNL     1      29.830  28.466   2.786  1.00  0.00     0.227 C 
HETATM   19  C   UNL     1      30.887  24.796   4.888  1.00  0.00     0.250 C 
HETATM   20  C   UNL     1      29.062  25.670   7.289  1.00  0.00     0.283 C 
HETATM   21  C   UNL     1      30.648  28.148   8.094  1.00  0.00     0.250 C 
HETATM   22  C   UNL     1      31.265  26.623   2.108  1.00  0.00     0.283 C 
HETATM   23  C   UNL     1      30.655  29.583   2.108  1.00  0.00     0.250 C 
HETATM   24  C   UNL     1      31.398  30.178   5.258  1.00  0.00     0.283 C 
HETATM   25  C   UNL     1      29.766  23.871   2.805  1.00  0.00     0.153 C 
HETATM   26  C   UNL     1      28.225  28.513   8.722  1.00  0.00     0.153 C 
HETATM   27  C   UNL     1      32.340  31.359   2.294  1.00  0.00     0.153 C 
ENDROOT
BRANCH  15  28
HETATM   28  C   UNL     1      30.323  22.574   5.899  1.00  0.00     0.016 C 
HETATM   29  C   UNL     1      30.818  22.298   7.318  1.00  0.00     0.012 C 
HETATM   30  C   UNL     1      29.180  21.628   5.538  1.00  0.00     0.012 C 
ENDBRANCH  15  28
BRANCH  14  31
HETATM   31  C   UNL     1      28.156  25.719   9.609  1.00  0.00     0.014 C 
HETATM   32  C   UNL     1      27.032  25.111   8.767  1.00  0.00     0.012 C 
BRANCH  31  33
HETATM   33  C   UNL     1      28.650  24.690  10.641  1.00  0.00     0.002 C 
HETATM   34  C   UNL     1      28.561  25.180  12.080  1.00  0.00     0.005 C 
ENDBRANCH  31  33
ENDBRANCH  14  31
BRANCH  13  35
HETATM   35  C   UNL     1      32.342  24.418   1.507  1.00  0.00     0.014 C 
HETATM   36  C   UNL     1      33.534  25.099   0.828  1.00  0.00     0.012 C 
BRANCH  35  37
HETATM   37  C   UNL     1      32.752  23.017   1.996  1.00  0.00     0.002 C 
HETATM   38  C   UNL     1      32.332  21.897   1.055  1.00  0.00     0.005 C 
ENDBRANCH  35  37
ENDBRANCH  13  35
BRANCH  17  39
HETATM   39  C   UNL     1      31.296  30.542   8.426  1.00  0.00     0.016 C 
HETATM   40  C   UNL     1      32.819  30.443   8.394  1.00  0.00     0.012 C 
HETATM   41  C   UNL     1      30.773  30.327   9.844  1.00  0.00     0.012 C 
ENDBRANCH  17  39
BRANCH  18  42
HETATM   42  C   UNL     1      28.542  28.176   2.014  1.00  0.00     0.016 C 
HETATM   43  C   UNL     1      27.917  26.862   2.482  1.00  0.00     0.012 C 
HETATM   44  C   UNL     1      27.549  29.326   2.168  1.00  0.00     0.012 C 
ENDBRANCH  18  42
BRANCH  16  45
HETATM   45  C   UNL     1      33.715  29.898   4.368  1.00  0.00     0.010 C 
HETATM   46  C   UNL     1      34.373  28.704   5.059  1.00  0.00     0.012 C 
HETATM   47  C   UNL     1      33.896  31.165   5.204  1.00  0.00     0.012 C 
ENDBRANCH  16  45
TORSDOF 8
ENDMDL
MODEL 10
REMARK VINA RESULT:    -5.869      2.576      7.104
REMARK INTER + INTRA:          -7.520
REMARK INTER:                  -8.018
REMARK INTRA:                   0.498
REMARK UNBOUND:                 1.093
REMARK  8 active torsions:
REMARK  status: ('A' for Active; 'I' for Inactive)
REMARK    1  A    between atoms: C_13  and  C_15 
REMARK    2  A    between atoms: C_14  and  C_16 
REMARK    3  A    between atoms: C_15  and  C_22 
REMARK    4  A    between atoms: C_16  and  C_23 
REMARK    5  A    between atoms: C_17  and  C_21 
REMARK    6  A    between atoms: C_18  and  C_24 
REMARK    7  A    between atoms: C_19  and  C_27 
REMARK    8  A    between atoms: C_20  and  C_30 
ROOT
HETATM    1  O   UNL     1      31.438  27.586   8.076  1.00  0.00    -0.304 OA
HETATM    2  O   UNL     1      29.420  26.194   3.900  1.00  0.00    -0.304 OA
HETATM    3  O   UNL     1      32.743  28.424   3.243  1.00  0.00    -0.304 OA
HETATM    4  O   UNL     1      31.727  25.902   6.071  1.00  0.00    -0.270 OA
HETATM    5  O   UNL     1      30.097  29.058   6.911  1.00  0.00    -0.263 OA
HETATM    6  O   UNL     1      33.822  28.421   5.599  1.00  0.00    -0.270 OA
HETATM    7  O   UNL     1      28.819  24.266   2.797  1.00  0.00    -0.263 OA
HETATM    8  O   UNL     1      28.278  26.468   0.658  1.00  0.00    -0.270 OA
HETATM    9  O   UNL     1      31.654  29.244   1.382  1.00  0.00    -0.263 OA
HETATM   10  N   UNL     1      29.621  24.944   6.229  1.00  0.00    -0.340 N 
HETATM   11  N   UNL     1      32.540  30.254   6.216  1.00  0.00    -0.340 N 
HETATM   12  N   UNL     1      30.563  26.720   0.958  1.00  0.00    -0.340 N 
HETATM   13  C   UNL     1      29.830  24.133   5.006  1.00  0.00     0.190 C 
HETATM   14  C   UNL     1      32.349  29.707   7.573  1.00  0.00     0.190 C 
HETATM   15  C   UNL     1      30.442  26.548   7.985  1.00  0.00     0.227 C 
HETATM   16  C   UNL     1      31.745  26.844   1.837  1.00  0.00     0.190 C 
HETATM   17  C   UNL     1      32.954  29.737   3.805  1.00  0.00     0.227 C 
HETATM   18  C   UNL     1      28.962  27.086   2.879  1.00  0.00     0.227 C 
HETATM   19  C   UNL     1      30.657  25.777   6.676  1.00  0.00     0.250 C 
HETATM   20  C   UNL     1      31.149  28.776   7.468  1.00  0.00     0.283 C 
HETATM   21  C   UNL     1      33.172  29.423   5.279  1.00  0.00     0.250 C 
HETATM   22  C   UNL     1      29.254  24.847   3.783  1.00  0.00     0.283 C 
HETATM   23  C   UNL     1      29.232  26.712   1.405  1.00  0.00     0.250 C 
HETATM   24  C   UNL     1      32.022  28.318   2.089  1.00  0.00     0.283 C 
HETATM   25  C   UNL     1      28.293  24.865   6.846  1.00  0.00     0.153 C 
HETATM   26  C   UNL     1      31.943  31.550   5.883  1.00  0.00     0.153 C 
HETATM   27  C   UNL     1      30.800  26.593  -0.480  1.00  0.00     0.153 C 
ENDROOT
BRANCH  15  28
HETATM   28  C   UNL     1      30.650  25.624   9.178  1.00  0.00     0.016 C 
HETATM   29  C   UNL     1      32.048  25.809   9.765  1.00  0.00     0.012 C 
HETATM   30  C   UNL     1      29.584  25.872  10.244  1.00  0.00     0.012 C 
ENDBRANCH  15  28
BRANCH  14  31
HETATM   31  C   UNL     1      32.121  30.718   8.688  1.00  0.00     0.014 C 
HETATM   32  C   UNL     1      31.083  30.174   9.674  1.00  0.00     0.012 C 
BRANCH  31  33
HETATM   33  C   UNL     1      33.419  31.066   9.437  1.00  0.00     0.002 C 
HETATM   34  C   UNL     1      33.911  29.955  10.354  1.00  0.00     0.005 C 
ENDBRANCH  31  33
ENDBRANCH  14  31
BRANCH  13  35
HETATM   35  C   UNL     1      29.294  22.707   5.125  1.00  0.00     0.014 C 
HETATM   36  C   UNL     1      29.756  21.878   3.924  1.00  0.00     0.012 C 
BRANCH  35  37
HETATM   37  C   UNL     1      29.735  22.021   6.431  1.00  0.00     0.002 C 
HETATM   38  C   UNL     1      31.238  22.066   6.665  1.00  0.00     0.005 C 
ENDBRANCH  35  37
ENDBRANCH  13  35
BRANCH  17  39
HETATM   39  C   UNL     1      34.193  30.373   3.202  1.00  0.00     0.016 C 
HETATM   40  C   UNL     1      35.371  29.402   3.246  1.00  0.00     0.012 C 
HETATM   41  C   UNL     1      34.540  31.670   3.930  1.00  0.00     0.012 C 
ENDBRANCH  17  39
BRANCH  18  42
HETATM   42  C   UNL     1      27.476  27.346   3.127  1.00  0.00     0.016 C 
HETATM   43  C   UNL     1      27.176  27.379   4.626  1.00  0.00     0.012 C 
HETATM   44  C   UNL     1      27.037  28.650   2.465  1.00  0.00     0.012 C 
ENDBRANCH  18  42
BRANCH  16  45
HETATM   45  C   UNL     1      33.008  26.154   1.326  1.00  0.00     0.010 C 
HETATM   46  C   UNL     1      33.673  25.348   2.441  1.00  0.00     0.012 C 
HETATM   47  C   UNL     1      33.987  27.175   0.748  1.00  0.00     0.012 C 
ENDBRANCH  16  45
TORSDOF 8
ENDMDL
MODEL 11
REMARK VINA RESULT:    -5.845      3.062      8.242
REMARK INTER + INTRA:          -7.485
REMARK INTER:                  -8.406
REMARK INTRA:                   0.921
REMARK UNBOUND:                 1.093
REMARK  8 active torsions:
REMARK  status: ('A' for Active; 'I' for Inactive)
REMARK    1  A    between atoms: C_13  and  C_15 
REMARK    2  A    between atoms: C_14  and  C_16 
REMARK    3  A    between atoms: C_15  and  C_22 
REMARK    4  A    between atoms: C_16  and  C_23 
REMARK    5  A    between atoms: C_17  and  C_21 
REMARK    6  A    between atoms: C_18  and  C_24 
REMARK    7  A    between atoms: C_19  and  C_27 
REMARK    8  A    between atoms: C_20  and  C_30 
ROOT
HETATM    1  O   UNL     1      30.494  24.167   3.555  1.00  0.00    -0.304 OA
HETATM    2  O   UNL     1      30.348  28.085   6.397  1.00  0.00    -0.304 OA
HETATM    3  O   UNL     1      31.282  29.086   2.581  1.00  0.00    -0.304 OA
HETATM    4  O   UNL     1      29.029  26.278   4.136  1.00  0.00    -0.270 OA
HETATM    5  O   UNL     1      32.460  25.055   4.376  1.00  0.00    -0.263 OA
HETATM    6  O   UNL     1      30.656  26.908   1.323  1.00  0.00    -0.270 OA
HETATM    7  O   UNL     1      28.886  29.190   7.789  1.00  0.00    -0.263 OA
HETATM    8  O   UNL     1      31.337  31.115   7.711  1.00  0.00    -0.270 OA
HETATM    9  O   UNL     1      32.622  30.730   3.489  1.00  0.00    -0.263 OA
HETATM   10  N   UNL     1      28.884  25.875   6.416  1.00  0.00    -0.340 N 
HETATM   11  N   UNL     1      32.757  26.024   1.758  1.00  0.00    -0.340 N 
HETATM   12  N   UNL     1      30.716  31.127   5.477  1.00  0.00    -0.340 N 
HETATM   13  C   UNL     1      28.179  27.155   6.660  1.00  0.00     0.190 C 
HETATM   14  C   UNL     1      32.183  24.683   1.985  1.00  0.00     0.190 C 
HETATM   15  C   UNL     1      29.900  24.171   4.868  1.00  0.00     0.227 C 
HETATM   16  C   UNL     1      30.318  30.417   4.243  1.00  0.00     0.190 C 
HETATM   17  C   UNL     1      32.368  28.492   1.836  1.00  0.00     0.227 C 
HETATM   18  C   UNL     1      31.442  28.983   6.603  1.00  0.00     0.227 C 
HETATM   19  C   UNL     1      29.239  25.535   5.102  1.00  0.00     0.250 C 
HETATM   20  C   UNL     1      31.762  24.666   3.448  1.00  0.00     0.283 C 
HETATM   21  C   UNL     1      31.851  27.081   1.587  1.00  0.00     0.250 C 
HETATM   22  C   UNL     1      29.171  28.247   7.063  1.00  0.00     0.283 C 
HETATM   23  C   UNL     1      31.145  30.498   6.657  1.00  0.00     0.250 C 
HETATM   24  C   UNL     1      31.559  30.131   3.413  1.00  0.00     0.283 C 
HETATM   25  C   UNL     1      29.228  25.082   7.601  1.00  0.00     0.153 C 
HETATM   26  C   UNL     1      34.207  26.202   1.865  1.00  0.00     0.153 C 
HETATM   27  C   UNL     1      30.657  32.589   5.466  1.00  0.00     0.153 C 
ENDROOT
BRANCH  15  28
HETATM   28  C   UNL     1      28.849  23.069   4.886  1.00  0.00     0.016 C 
HETATM   29  C   UNL     1      27.992  23.121   3.622  1.00  0.00     0.012 C 
HETATM   30  C   UNL     1      29.508  21.698   5.029  1.00  0.00     0.012 C 
ENDBRANCH  15  28
BRANCH  14  31
HETATM   31  C   UNL     1      33.091  23.496   1.696  1.00  0.00     0.014 C 
HETATM   32  C   UNL     1      32.495  22.227   2.312  1.00  0.00     0.012 C 
BRANCH  31  33
HETATM   33  C   UNL     1      33.320  23.287   0.189  1.00  0.00     0.002 C 
HETATM   34  C   UNL     1      34.711  22.769  -0.150  1.00  0.00     0.005 C 
ENDBRANCH  31  33
ENDBRANCH  14  31
BRANCH  13  35
HETATM   35  C   UNL     1      27.038  27.036   7.669  1.00  0.00     0.014 C 
HETATM   36  C   UNL     1      25.886  26.234   7.057  1.00  0.00     0.012 C 
BRANCH  35  37
HETATM   37  C   UNL     1      27.485  26.379   8.988  1.00  0.00     0.002 C 
HETATM   38  C   UNL     1      26.407  25.525   9.639  1.00  0.00     0.005 C 
ENDBRANCH  35  37
ENDBRANCH  13  35
BRANCH  17  39
HETATM   39  C   UNL     1      32.571  29.230   0.525  1.00  0.00     0.016 C 
HETATM   40  C   UNL     1      32.319  28.299  -0.659  1.00  0.00     0.012 C 
HETATM   41  C   UNL     1      33.978  29.820   0.454  1.00  0.00     0.012 C 
ENDBRANCH  17  39
BRANCH  18  42
HETATM   42  C   UNL     1      32.194  28.516   7.850  1.00  0.00     0.016 C 
HETATM   43  C   UNL     1      32.120  26.995   7.987  1.00  0.00     0.012 C 
HETATM   44  C   UNL     1      33.649  28.978   7.808  1.00  0.00     0.012 C 
ENDBRANCH  18  42
BRANCH  16  45
HETATM   45  C   UNL     1      29.273  31.136   3.392  1.00  0.00     0.010 C 
HETATM   46  C   UNL     1      28.147  30.181   2.999  1.00  0.00     0.012 C 
HETATM   47  C   UNL     1      29.916  31.745   2.146  1.00  0.00     0.012 C 
ENDBRANCH  16  45
TORSDOF 8
ENDMDL
MODEL 12
REMARK VINA RESULT:    -5.603      2.481      6.694
REMARK INTER + INTRA:          -7.131
REMARK INTER:                  -8.034
REMARK INTRA:                   0.903
REMARK UNBOUND:                 1.093
REMARK  8 active torsions:
REMARK  status: ('A' for Active; 'I' for Inactive)
REMARK    1  A    between atoms: C_13  and  C_15 
REMARK    2  A    between atoms: C_14  and  C_16 
REMARK    3  A    between atoms: C_15  and  C_22 
REMARK    4  A    between atoms: C_16  and  C_23 
REMARK    5  A    between atoms: C_17  and  C_21 
REMARK    6  A    between atoms: C_18  and  C_24 
REMARK    7  A    between atoms: C_19  and  C_27 
REMARK    8  A    between atoms: C_20  and  C_30 
ROOT
HETATM    1  O   UNL     1      29.840  31.206   3.971  1.00  0.00    -0.304 OA
HETATM    2  O   UNL     1      29.472  26.400   4.439  1.00  0.00    -0.304 OA
HETATM    3  O   UNL     1      30.864  28.096   7.849  1.00  0.00    -0.304 OA
HETATM    4  O   UNL     1      28.374  29.317   5.076  1.00  0.00    -0.270 OA
HETATM    5  O   UNL     1      31.722  29.889   3.738  1.00  0.00    -0.263 OA
HETATM    6  O   UNL     1      30.329  30.595   7.421  1.00  0.00    -0.270 OA
HETATM    7  O   UNL     1      27.890  24.737   4.278  1.00  0.00    -0.263 OA
HETATM    8  O   UNL     1      30.383  23.201   5.348  1.00  0.00    -0.270 OA
HETATM    9  O   UNL     1      32.133  26.188   8.113  1.00  0.00    -0.263 OA
HETATM   10  N   UNL     1      27.959  28.134   3.124  1.00  0.00    -0.340 N 
HETATM   11  N   UNL     1      32.342  30.859   6.298  1.00  0.00    -0.340 N 
HETATM   12  N   UNL     1      30.023  24.692   7.087  1.00  0.00    -0.340 N 
HETATM   13  C   UNL     1      27.264  27.049   3.856  1.00  0.00     0.190 C 
HETATM   14  C   UNL     1      31.711  31.752   5.307  1.00  0.00     0.190 C 
HETATM   15  C   UNL     1      29.100  30.375   3.054  1.00  0.00     0.227 C 
HETATM   16  C   UNL     1      29.750  26.057   7.583  1.00  0.00     0.190 C 
HETATM   17  C   UNL     1      32.011  28.970   7.902  1.00  0.00     0.227 C 
HETATM   18  C   UNL     1      30.559  25.528   4.763  1.00  0.00     0.227 C 
HETATM   19  C   UNL     1      28.452  29.232   3.845  1.00  0.00     0.250 C 
HETATM   20  C   UNL     1      31.125  30.829   4.247  1.00  0.00     0.283 C 
HETATM   21  C   UNL     1      31.490  30.225   7.214  1.00  0.00     0.250 C 
HETATM   22  C   UNL     1      28.231  25.908   4.170  1.00  0.00     0.283 C 
HETATM   23  C   UNL     1      30.297  24.367   5.749  1.00  0.00     0.250 C 
HETATM   24  C   UNL     1      31.071  26.747   7.886  1.00  0.00     0.283 C 
HETATM   25  C   UNL     1      28.143  27.935   1.682  1.00  0.00     0.153 C 
HETATM   26  C   UNL     1      33.774  30.574   6.185  1.00  0.00     0.153 C 
HETATM   27  C   UNL     1      30.004  23.601   8.063  1.00  0.00     0.153 C 
ENDROOT
BRANCH  15  28
HETATM   28  C   UNL     1      28.026  31.253   2.425  1.00  0.00     0.016 C 
HETATM   29  C   UNL     1      27.888  32.568   3.190  1.00  0.00     0.012 C 
HETATM   30  C   UNL     1      28.341  31.520   0.955  1.00  0.00     0.012 C 
ENDBRANCH  15  28
BRANCH  14  31
HETATM   31  C   UNL     1      32.615  32.785   4.648  1.00  0.00     0.014 C 
HETATM   32  C   UNL     1      32.529  32.651   3.126  1.00  0.00     0.012 C 
BRANCH  31  33
HETATM   33  C   UNL     1      32.262  34.223   5.066  1.00  0.00     0.002 C 
HETATM   34  C   UNL     1      30.826  34.616   4.746  1.00  0.00     0.005 C 
ENDBRANCH  31  33
ENDBRANCH  14  31
BRANCH  13  35
HETATM   35  C   UNL     1      26.011  26.541   3.143  1.00  0.00     0.014 C 
HETATM   36  C   UNL     1      25.070  27.712   2.849  1.00  0.00     0.012 C 
BRANCH  35  37
HETATM   37  C   UNL     1      26.341  25.799   1.835  1.00  0.00     0.002 C 
HETATM   38  C   UNL     1      25.272  25.952   0.762  1.00  0.00     0.005 C 
ENDBRANCH  35  37
ENDBRANCH  13  35
BRANCH  17  39
HETATM   39  C   UNL     1      32.382  29.263   9.345  1.00  0.00     0.016 C 
HETATM   40  C   UNL     1      32.255  30.755   9.640  1.00  0.00     0.012 C 
HETATM   41  C   UNL     1      33.799  28.776   9.644  1.00  0.00     0.012 C 
ENDBRANCH  17  39
BRANCH  18  42
HETATM   42  C   UNL     1      31.150  25.021   3.447  1.00  0.00     0.016 C 
HETATM   43  C   UNL     1      31.063  26.097   2.365  1.00  0.00     0.012 C 
HETATM   44  C   UNL     1      32.598  24.575   3.642  1.00  0.00     0.012 C 
ENDBRANCH  18  42
BRANCH  16  45
HETATM   45  C   UNL     1      28.829  26.132   8.799  1.00  0.00     0.010 C 
HETATM   46  C   UNL     1      27.788  27.236   8.621  1.00  0.00     0.012 C 
HETATM   47  C   UNL     1      29.637  26.360  10.076  1.00  0.00     0.012 C 
ENDBRANCH  16  45
TORSDOF 8
ENDMDL
MODEL 13
REMARK VINA RESULT:    -5.565      3.384      5.518
REMARK INTER + INTRA:          -7.074
REMARK INTER:                  -7.993
REMARK INTRA:                   0.920
REMARK UNBOUND:                 1.093
REMARK  8 active torsions:
REMARK  status: ('A' for Active; 'I' for Inactive)
REMARK    1  A    between atoms: C_13  and  C_15 
REMARK    2  A    between atoms: C_14  and  C_16 
REMARK    3  A    between atoms: C_15  and  C_22 
REMARK    4  A    between atoms: C_16  and  C_23 
REMARK    5  A    between atoms: C_17  and  C_21 
REMARK    6  A    between atoms: C_18  and  C_24 
REMARK    7  A    between atoms: C_19  and  C_27 
REMARK    8  A    between atoms: C_20  and  C_30 
ROOT
HETATM    1  O   UNL     1      29.279  28.243   7.329  1.00  0.00    -0.304 OA
HETATM    2  O   UNL     1      31.965  28.579   3.314  1.00  0.00    -0.304 OA
HETATM    3  O   UNL     1      29.110  25.727   2.924  1.00  0.00    -0.304 OA
HETATM    4  O   UNL     1      29.238  29.140   4.852  1.00  0.00    -0.270 OA
HETATM    5  O   UNL     1      30.984  26.729   6.966  1.00  0.00    -0.263 OA
HETATM    6  O   UNL     1      27.568  26.283   4.931  1.00  0.00    -0.270 OA
HETATM    7  O   UNL     1      32.574  30.139   1.734  1.00  0.00    -0.263 OA
HETATM    8  O   UNL     1      33.782  27.504   0.588  1.00  0.00    -0.270 OA
HETATM    9  O   UNL     1      30.645  24.563   1.654  1.00  0.00    -0.263 OA
HETATM   10  N   UNL     1      31.150  30.442   5.015  1.00  0.00    -0.340 N 
HETATM   11  N   UNL     1      28.881  24.980   6.332  1.00  0.00    -0.340 N 
HETATM   12  N   UNL     1      31.525  26.975   0.581  1.00  0.00    -0.340 N 
HETATM   13  C   UNL     1      31.116  30.782   3.573  1.00  0.00     0.190 C 
HETATM   14  C   UNL     1      28.725  25.948   7.435  1.00  0.00     0.190 C 
HETATM   15  C   UNL     1      30.156  29.353   7.053  1.00  0.00     0.227 C 
HETATM   16  C   UNL     1      30.206  26.933   1.247  1.00  0.00     0.190 C 
HETATM   17  C   UNL     1      28.927  24.639   3.856  1.00  0.00     0.227 C 
HETATM   18  C   UNL     1      32.719  27.504   2.745  1.00  0.00     0.227 C 
HETATM   19  C   UNL     1      30.138  29.627   5.545  1.00  0.00     0.250 C 
HETATM   20  C   UNL     1      29.814  26.990   7.216  1.00  0.00     0.283 C 
HETATM   21  C   UNL     1      28.374  25.357   5.080  1.00  0.00     0.250 C 
HETATM   22  C   UNL     1      32.007  29.830   2.775  1.00  0.00     0.283 C 
HETATM   23  C   UNL     1      32.725  27.347   1.208  1.00  0.00     0.250 C 
HETATM   24  C   UNL     1      30.040  25.587   1.935  1.00  0.00     0.283 C 
HETATM   25  C   UNL     1      32.304  30.935   5.775  1.00  0.00     0.153 C 
HETATM   26  C   UNL     1      29.669  23.766   6.560  1.00  0.00     0.153 C 
HETATM   27  C   UNL     1      31.581  26.603  -0.833  1.00  0.00     0.153 C 
ENDROOT
BRANCH  15  28
HETATM   28  C   UNL     1      29.606  30.554   7.811  1.00  0.00     0.016 C 
HETATM   29  C   UNL     1      28.911  31.523   6.856  1.00  0.00     0.012 C 
HETATM   30  C   UNL     1      28.645  30.104   8.910  1.00  0.00     0.012 C 
ENDBRANCH  15  28
BRANCH  14  31
HETATM   31  C   UNL     1      28.822  25.391   8.849  1.00  0.00     0.014 C 
HETATM   32  C   UNL     1      29.500  26.415   9.762  1.00  0.00     0.012 C 
BRANCH  31  33
HETATM   33  C   UNL     1      27.446  25.009   9.422  1.00  0.00     0.002 C 
HETATM   34  C   UNL     1      26.328  25.955   9.005  1.00  0.00     0.005 C 
ENDBRANCH  31  33
ENDBRANCH  14  31
BRANCH  13  35
HETATM   35  C   UNL     1      31.460  32.243   3.286  1.00  0.00     0.014 C 
HETATM   36  C   UNL     1      30.992  32.619   1.877  1.00  0.00     0.012 C 
BRANCH  35  37
HETATM   37  C   UNL     1      30.839  33.206   4.314  1.00  0.00     0.002 C 
HETATM   38  C   UNL     1      31.682  34.445   4.574  1.00  0.00     0.005 C 
ENDBRANCH  35  37
ENDBRANCH  13  35
BRANCH  17  39
HETATM   39  C   UNL     1      27.916  23.646   3.312  1.00  0.00     0.016 C 
HETATM   40  C   UNL     1      26.493  24.147   3.545  1.00  0.00     0.012 C 
HETATM   41  C   UNL     1      28.114  22.274   3.952  1.00  0.00     0.012 C 
ENDBRANCH  17  39
BRANCH  18  42
HETATM   42  C   UNL     1      34.139  27.592   3.303  1.00  0.00     0.016 C 
HETATM   43  C   UNL     1      34.116  27.980   4.782  1.00  0.00     0.012 C 
HETATM   44  C   UNL     1      34.878  26.269   3.109  1.00  0.00     0.012 C 
ENDBRANCH  18  42
BRANCH  16  45
HETATM   45  C   UNL     1      29.011  27.204   0.334  1.00  0.00     0.010 C 
HETATM   46  C   UNL     1      28.154  28.340   0.889  1.00  0.00     0.012 C 
HETATM   47  C   UNL     1      28.171  25.940   0.153  1.00  0.00     0.012 C 
ENDBRANCH  16  45
TORSDOF 8
ENDMDL
MODEL 14
REMARK VINA RESULT:    -5.511      3.452      7.997
REMARK INTER + INTRA:          -6.995
REMARK INTER:                  -7.308
REMARK INTRA:                   0.314
REMARK UNBOUND:                 1.093
REMARK  8 active torsions:
REMARK  status: ('A' for Active; 'I' for Inactive)
REMARK    1  A    between atoms: C_13  and  C_15 
REMARK    2  A    between atoms: C_14  and  C_16 
REMARK    3  A    between atoms: C_15  and  C_22 
REMARK    4  A    between atoms: C_16  and  C_23 
REMARK    5  A    between atoms: C_17  and  C_21 
REMARK    6  A    between atoms: C_18  and  C_24 
REMARK    7  A    between atoms: C_19  and  C_27 
REMARK    8  A    between atoms: C_20  and  C_30 
ROOT
HETATM    1  O   UNL     1      29.724  30.718   6.504  1.00  0.00    -0.304 OA
HETATM    2  O   UNL     1      28.815  26.640   4.057  1.00  0.00    -0.304 OA
HETATM    3  O   UNL     1      31.920  28.665   2.414  1.00  0.00    -0.304 OA
HETATM    4  O   UNL     1      30.626  28.277   6.096  1.00  0.00    -0.270 OA
HETATM    5  O   UNL     1      28.499  30.809   4.549  1.00  0.00    -0.263 OA
HETATM    6  O   UNL     1      32.466  30.358   4.298  1.00  0.00    -0.270 OA
HETATM    7  O   UNL     1      28.690  24.369   4.414  1.00  0.00    -0.263 OA
HETATM    8  O   UNL     1      28.364  24.590   1.322  1.00  0.00    -0.270 OA
HETATM    9  O   UNL     1      31.163  27.891   0.377  1.00  0.00    -0.263 OA
HETATM   10  N   UNL     1      28.659  27.177   6.648  1.00  0.00    -0.340 N 
HETATM   11  N   UNL     1      30.879  31.833   3.467  1.00  0.00    -0.340 N 
HETATM   12  N   UNL     1      30.488  25.479   1.589  1.00  0.00    -0.340 N 
HETATM   13  C   UNL     1      29.216  25.859   6.264  1.00  0.00     0.190 C 
HETATM   14  C   UNL     1      30.469  32.214   4.833  1.00  0.00     0.190 C 
HETATM   15  C   UNL     1      28.897  29.655   7.016  1.00  0.00     0.227 C 
HETATM   16  C   UNL     1      31.433  26.382   2.280  1.00  0.00     0.190 C 
HETATM   17  C   UNL     1      31.853  30.049   2.011  1.00  0.00     0.227 C 
HETATM   18  C   UNL     1      28.484  26.580   2.666  1.00  0.00     0.227 C 
HETATM   19  C   UNL     1      29.473  28.315   6.541  1.00  0.00     0.250 C 
HETATM   20  C   UNL     1      29.434  31.176   5.248  1.00  0.00     0.283 C 
HETATM   21  C   UNL     1      31.788  30.771   3.350  1.00  0.00     0.250 C 
HETATM   22  C   UNL     1      28.835  25.514   4.824  1.00  0.00     0.283 C 
HETATM   23  C   UNL     1      29.102  25.449   1.814  1.00  0.00     0.250 C 
HETATM   24  C   UNL     1      31.478  27.711   1.543  1.00  0.00     0.283 C 
HETATM   25  C   UNL     1      27.249  27.199   7.049  1.00  0.00     0.153 C 
HETATM   26  C   UNL     1      30.220  32.470   2.325  1.00  0.00     0.153 C 
HETATM   27  C   UNL     1      31.039  24.551   0.602  1.00  0.00     0.153 C 
ENDROOT
BRANCH  15  28
HETATM   28  C   UNL     1      28.952  29.740   8.536  1.00  0.00     0.016 C 
HETATM   29  C   UNL     1      30.318  30.246   8.998  1.00  0.00     0.012 C 
HETATM   30  C   UNL     1      27.840  30.643   9.066  1.00  0.00     0.012 C 
ENDBRANCH  15  28
BRANCH  14  31
HETATM   31  C   UNL     1      29.892  33.612   5.005  1.00  0.00     0.014 C 
HETATM   32  C   UNL     1      28.962  33.642   6.220  1.00  0.00     0.012 C 
BRANCH  31  33
HETATM   33  C   UNL     1      30.988  34.681   5.161  1.00  0.00     0.002 C 
HETATM   34  C   UNL     1      31.031  35.682   4.014  1.00  0.00     0.005 C 
ENDBRANCH  31  33
ENDBRANCH  14  31
BRANCH  13  35
HETATM   35  C   UNL     1      28.837  24.735   7.228  1.00  0.00     0.014 C 
HETATM   36  C   UNL     1      29.766  23.537   7.019  1.00  0.00     0.012 C 
BRANCH  35  37
HETATM   37  C   UNL     1      28.887  25.183   8.700  1.00  0.00     0.002 C 
HETATM   38  C   UNL     1      29.779  24.310   9.571  1.00  0.00     0.005 C 
ENDBRANCH  35  37
ENDBRANCH  13  35
BRANCH  17  39
HETATM   39  C   UNL     1      33.110  30.436   1.253  1.00  0.00     0.016 C 
HETATM   40  C   UNL     1      33.873  31.527   2.000  1.00  0.00     0.012 C 
HETATM   41  C   UNL     1      32.763  30.898  -0.162  1.00  0.00     0.012 C 
ENDBRANCH  17  39
BRANCH  18  42
HETATM   42  C   UNL     1      26.959  26.594   2.555  1.00  0.00     0.016 C 
HETATM   43  C   UNL     1      26.345  27.473   3.644  1.00  0.00     0.012 C 
HETATM   44  C   UNL     1      26.523  27.073   1.172  1.00  0.00     0.012 C 
ENDBRANCH  18  42
BRANCH  16  45
HETATM   45  C   UNL     1      32.847  25.830   2.451  1.00  0.00     0.010 C 
HETATM   46  C   UNL     1      33.337  26.031   3.884  1.00  0.00     0.012 C 
HETATM   47  C   UNL     1      33.808  26.488   1.461  1.00  0.00     0.012 C 
ENDBRANCH  16  45
TORSDOF 8
ENDMDL
MODEL 15
REMARK VINA RESULT:    -5.440      2.778      8.471
REMARK INTER + INTRA:          -6.892
REMARK INTER:                  -8.290
REMARK INTRA:                   1.398
REMARK UNBOUND:                 1.093
REMARK  8 active torsions:
REMARK  status: ('A' for Active; 'I' for Inactive)
REMARK    1  A    between atoms: C_13  and  C_15 
REMARK    2  A    between atoms: C_14  and  C_16 
REMARK    3  A    between atoms: C_15  and  C_22 
REMARK    4  A    between atoms: C_16  and  C_23 
REMARK    5  A    between atoms: C_17  and  C_21 
REMARK    6  A    between atoms: C_18  and  C_24 
REMARK    7  A    between atoms: C_19  and  C_27 
REMARK    8  A    between atoms: C_20  and  C_30 
ROOT
HETATM    1  O   UNL     1      27.702  27.580   5.335  1.00  0.00    -0.304 OA
HETATM    2  O   UNL     1      32.522  27.995   5.123  1.00  0.00    -0.304 OA
HETATM    3  O   UNL     1      30.717  30.704   2.706  1.00  0.00    -0.304 OA
HETATM    4  O   UNL     1      29.710  29.086   6.134  1.00  0.00    -0.270 OA
HETATM    5  O   UNL     1      28.853  26.627   3.576  1.00  0.00    -0.263 OA
HETATM    6  O   UNL     1      28.273  30.585   3.557  1.00  0.00    -0.270 OA
HETATM    7  O   UNL     1      34.315  28.374   6.516  1.00  0.00    -0.263 OA
HETATM    8  O   UNL     1      35.633  28.399   3.691  1.00  0.00    -0.270 OA
HETATM    9  O   UNL     1      32.511  30.419   1.283  1.00  0.00    -0.263 OA
HETATM   10  N   UNL     1      30.922  27.388   7.148  1.00  0.00    -0.340 N 
HETATM   11  N   UNL     1      27.836  28.808   2.130  1.00  0.00    -0.340 N 
HETATM   12  N   UNL     1      34.180  30.195   3.497  1.00  0.00    -0.340 N 
HETATM   13  C   UNL     1      32.064  28.289   7.434  1.00  0.00     0.190 C 
HETATM   14  C   UNL     1      27.000  28.149   3.152  1.00  0.00     0.190 C 
HETATM   15  C   UNL     1      28.592  26.975   6.294  1.00  0.00     0.227 C 
HETATM   16  C   UNL     1      32.844  30.801   3.674  1.00  0.00     0.190 C 
HETATM   17  C   UNL     1      29.748  30.358   1.693  1.00  0.00     0.227 C 
HETATM   18  C   UNL     1      33.299  27.866   3.928  1.00  0.00     0.227 C 
HETATM   19  C   UNL     1      29.787  27.911   6.511  1.00  0.00     0.250 C 
HETATM   20  C   UNL     1      27.968  27.350   4.014  1.00  0.00     0.283 C 
HETATM   21  C   UNL     1      28.542  29.953   2.529  1.00  0.00     0.250 C 
HETATM   22  C   UNL     1      33.118  28.187   6.332  1.00  0.00     0.283 C 
HETATM   23  C   UNL     1      34.479  28.840   3.714  1.00  0.00     0.250 C 
HETATM   24  C   UNL     1      32.044  30.618   2.394  1.00  0.00     0.283 C 
HETATM   25  C   UNL     1      31.103  25.974   7.495  1.00  0.00     0.153 C 
HETATM   26  C   UNL     1      27.999  28.165   0.824  1.00  0.00     0.153 C 
HETATM   27  C   UNL     1      35.269  31.073   3.068  1.00  0.00     0.153 C 
ENDROOT
BRANCH  15  28
HETATM   28  C   UNL     1      27.809  26.816   7.590  1.00  0.00     0.016 C 
HETATM   29  C   UNL     1      27.776  28.132   8.366  1.00  0.00     0.012 C 
HETATM   30  C   UNL     1      26.390  26.327   7.306  1.00  0.00     0.012 C 
ENDBRANCH  15  28
BRANCH  14  31
HETATM   31  C   UNL     1      25.893  27.237   2.641  1.00  0.00     0.014 C 
HETATM   32  C   UNL     1      26.102  25.819   3.179  1.00  0.00     0.012 C 
BRANCH  31  33
HETATM   33  C   UNL     1      24.492  27.742   3.030  1.00  0.00     0.002 C 
HETATM   34  C   UNL     1      23.851  28.632   1.974  1.00  0.00     0.005 C 
ENDBRANCH  31  33
ENDBRANCH  14  31
BRANCH  13  35
HETATM   35  C   UNL     1      32.676  28.072   8.817  1.00  0.00     0.014 C 
HETATM   36  C   UNL     1      33.587  29.250   9.172  1.00  0.00     0.012 C 
BRANCH  35  37
HETATM   37  C   UNL     1      31.608  27.894   9.911  1.00  0.00     0.002 C 
HETATM   38  C   UNL     1      32.056  27.003  11.060  1.00  0.00     0.005 C 
ENDBRANCH  35  37
ENDBRANCH  13  35
BRANCH  17  39
HETATM   39  C   UNL     1      29.427  31.571   0.838  1.00  0.00     0.016 C 
HETATM   40  C   UNL     1      29.943  31.376  -0.585  1.00  0.00     0.012 C 
HETATM   41  C   UNL     1      30.020  32.835   1.456  1.00  0.00     0.012 C 
ENDBRANCH  17  39
BRANCH  18  42
HETATM   42  C   UNL     1      33.753  26.409   3.828  1.00  0.00     0.016 C 
HETATM   43  C   UNL     1      32.601  25.461   4.161  1.00  0.00     0.012 C 
HETATM   44  C   UNL     1      34.306  26.110   2.437  1.00  0.00     0.012 C 
ENDBRANCH  18  42
BRANCH  16  45
HETATM   45  C   UNL     1      32.849  32.273   4.082  1.00  0.00     0.010 C 
HETATM   46  C   UNL     1      33.501  33.132   2.999  1.00  0.00     0.012 C 
HETATM   47  C   UNL     1      33.567  32.462   5.417  1.00  0.00     0.012 C 
ENDBRANCH  16  45
TORSDOF 8
ENDMDL
MODEL 16
REMARK VINA RESULT:    -5.371      3.334      7.875
REMARK INTER + INTRA:          -6.790
REMARK INTER:                  -7.861
REMARK INTRA:                   1.071
REMARK UNBOUND:                 1.093
REMARK  8 active torsions:
REMARK  status: ('A' for Active; 'I' for Inactive)
REMARK    1  A    between atoms: C_13  and  C_15 
REMARK    2  A    between atoms: C_14  and  C_16 
REMARK    3  A    between atoms: C_15  and  C_22 
REMARK    4  A    between atoms: C_16  and  C_23 
REMARK    5  A    between atoms: C_17  and  C_21 
REMARK    6  A    between atoms: C_18  and  C_24 
REMARK    7  A    between atoms: C_19  and  C_27 
REMARK    8  A    between atoms: C_20  and  C_30 
ROOT
HETATM    1  O   UNL     1      27.757  29.015   2.222  1.00  0.00    -0.304 OA
HETATM    2  O   UNL     1      30.824  30.742   5.549  1.00  0.00    -0.304 OA
HETATM    3  O   UNL     1      31.662  26.875   4.660  1.00  0.00    -0.304 OA
HETATM    4  O   UNL     1      30.232  29.857   2.551  1.00  0.00    -0.270 OA
HETATM    5  O   UNL     1      27.412  28.533   4.453  1.00  0.00    -0.263 OA
HETATM    6  O   UNL     1      30.279  26.548   2.493  1.00  0.00    -0.270 OA
HETATM    7  O   UNL     1      32.342  32.450   5.818  1.00  0.00    -0.263 OA
HETATM    8  O   UNL     1      32.741  30.772   8.414  1.00  0.00    -0.270 OA
HETATM    9  O   UNL     1      32.269  26.645   6.874  1.00  0.00    -0.263 OA
HETATM   10  N   UNL     1      29.687  31.919   3.464  1.00  0.00    -0.340 N 
HETATM   11  N   UNL     1      28.402  26.004   3.744  1.00  0.00    -0.340 N 
HETATM   12  N   UNL     1      33.338  29.213   6.805  1.00  0.00    -0.340 N 
HETATM   13  C   UNL     1      31.107  32.245   3.733  1.00  0.00     0.190 C 
HETATM   14  C   UNL     1      27.526  26.738   2.810  1.00  0.00     0.190 C 
HETATM   15  C   UNL     1      27.905  30.420   2.511  1.00  0.00     0.227 C 
HETATM   16  C   UNL     1      33.086  28.514   5.528  1.00  0.00     0.190 C 
HETATM   17  C   UNL     1      30.693  25.807   4.725  1.00  0.00     0.227 C 
HETATM   18  C   UNL     1      31.006  30.187   6.855  1.00  0.00     0.227 C 
HETATM   19  C   UNL     1      29.375  30.699   2.845  1.00  0.00     0.250 C 
HETATM   20  C   UNL     1      27.548  28.184   3.288  1.00  0.00     0.283 C 
HETATM   21  C   UNL     1      29.785  26.126   3.545  1.00  0.00     0.250 C 
HETATM   22  C   UNL     1      31.482  31.872   5.167  1.00  0.00     0.283 C 
HETATM   23  C   UNL     1      32.441  30.102   7.421  1.00  0.00     0.250 C 
HETATM   24  C   UNL     1      32.310  27.237   5.806  1.00  0.00     0.283 C 
HETATM   25  C   UNL     1      28.692  32.885   3.942  1.00  0.00     0.153 C 
HETATM   26  C   UNL     1      27.801  25.319   4.891  1.00  0.00     0.153 C 
HETATM   27  C   UNL     1      34.614  28.961   7.475  1.00  0.00     0.153 C 
ENDROOT
BRANCH  15  28
HETATM   28  C   UNL     1      27.500  31.177   1.253  1.00  0.00     0.016 C 
HETATM   29  C   UNL     1      27.628  30.284   0.020  1.00  0.00     0.012 C 
HETATM   30  C   UNL     1      26.074  31.711   1.381  1.00  0.00     0.012 C 
ENDBRANCH  15  28
BRANCH  14  31
HETATM   31  C   UNL     1      26.086  26.254   2.704  1.00  0.00     0.014 C 
HETATM   32  C   UNL     1      25.199  27.382   2.171  1.00  0.00     0.012 C 
BRANCH  31  33
HETATM   33  C   UNL     1      25.951  25.013   1.804  1.00  0.00     0.002 C 
HETATM   34  C   UNL     1      25.488  25.335   0.389  1.00  0.00     0.005 C 
ENDBRANCH  31  33
ENDBRANCH  14  31
BRANCH  13  35
HETATM   35  C   UNL     1      31.466  33.697   3.420  1.00  0.00     0.014 C 
HETATM   36  C   UNL     1      31.086  34.026   1.974  1.00  0.00     0.012 C 
BRANCH  35  37
HETATM   37  C   UNL     1      30.780  34.690   4.376  1.00  0.00     0.002 C 
HETATM   38  C   UNL     1      30.846  36.135   3.903  1.00  0.00     0.005 C 
ENDBRANCH  35  37
ENDBRANCH  13  35
BRANCH  17  39
HETATM   39  C   UNL     1      31.376  24.466   4.531  1.00  0.00     0.016 C 
HETATM   40  C   UNL     1      30.861  23.779   3.269  1.00  0.00     0.012 C 
HETATM   41  C   UNL     1      31.163  23.573   5.753  1.00  0.00     0.012 C 
ENDBRANCH  17  39
BRANCH  18  42
HETATM   42  C   UNL     1      30.073  30.936   7.808  1.00  0.00     0.016 C 
HETATM   43  C   UNL     1      28.915  31.572   7.041  1.00  0.00     0.012 C 
HETATM   44  C   UNL     1      29.546  30.001   8.894  1.00  0.00     0.012 C 
ENDBRANCH  18  42
BRANCH  16  45
HETATM   45  C   UNL     1      34.334  28.200   4.705  1.00  0.00     0.010 C 
HETATM   46  C   UNL     1      34.695  29.376   3.799  1.00  0.00     0.012 C 
HETATM   47  C   UNL     1      34.131  26.931   3.878  1.00  0.00     0.012 C 
ENDBRANCH  16  45
TORSDOF 8
ENDMDL
MODEL 17
REMARK VINA RESULT:    -5.327      3.674      8.113
REMARK INTER + INTRA:          -6.725
REMARK INTER:                  -7.467
REMARK INTRA:                   0.742
REMARK UNBOUND:                 1.093
REMARK  8 active torsions:
REMARK  status: ('A' for Active; 'I' for Inactive)
REMARK    1  A    between atoms: C_13  and  C_15 
REMARK    2  A    between atoms: C_14  and  C_16 
REMARK    3  A    between atoms: C_15  and  C_22 
REMARK    4  A    between atoms: C_16  and  C_23 
REMARK    5  A    between atoms: C_17  and  C_21 
REMARK    6  A    between atoms: C_18  and  C_24 
REMARK    7  A    between atoms: C_19  and  C_27 
REMARK    8  A    between atoms: C_20  and  C_30 
ROOT
HETATM    1  O   UNL     1      32.188  29.633   4.754  1.00  0.00    -0.304 OA
HETATM    2  O   UNL     1      28.910  26.081   4.474  1.00  0.00    -0.304 OA
HETATM    3  O   UNL     1      28.194  28.948   1.698  1.00  0.00    -0.304 OA
HETATM    4  O   UNL     1      31.483  27.545   3.310  1.00  0.00    -0.270 OA
HETATM    5  O   UNL     1      30.114  29.915   5.726  1.00  0.00    -0.263 OA
HETATM    6  O   UNL     1      30.424  30.267   1.753  1.00  0.00    -0.270 OA
HETATM    7  O   UNL     1      28.811  23.803   4.154  1.00  0.00    -0.263 OA
HETATM    8  O   UNL     1      25.803  24.621   4.147  1.00  0.00    -0.270 OA
HETATM    9  O   UNL     1      25.953  28.506   2.023  1.00  0.00    -0.263 OA
HETATM   10  N   UNL     1      31.496  26.010   5.049  1.00  0.00    -0.340 N 
HETATM   11  N   UNL     1      29.639  31.568   3.508  1.00  0.00    -0.340 N 
HETATM   12  N   UNL     1      26.570  25.807   2.309  1.00  0.00    -0.340 N 
HETATM   13  C   UNL     1      30.967  24.931   4.183  1.00  0.00     0.190 C 
HETATM   14  C   UNL     1      30.968  31.564   4.150  1.00  0.00     0.190 C 
HETATM   15  C   UNL     1      32.354  28.351   5.390  1.00  0.00     0.227 C 
HETATM   16  C   UNL     1      27.560  26.698   1.667  1.00  0.00     0.190 C 
HETATM   17  C   UNL     1      28.051  30.350   2.009  1.00  0.00     0.227 C 
HETATM   18  C   UNL     1      27.497  26.262   4.615  1.00  0.00     0.227 C 
HETATM   19  C   UNL     1      31.736  27.274   4.490  1.00  0.00     0.250 C 
HETATM   20  C   UNL     1      31.010  30.289   4.982  1.00  0.00     0.283 C 
HETATM   21  C   UNL     1      29.473  30.742   2.386  1.00  0.00     0.250 C 
HETATM   22  C   UNL     1      29.446  24.840   4.307  1.00  0.00     0.283 C 
HETATM   23  C   UNL     1      26.560  25.475   3.673  1.00  0.00     0.250 C 
HETATM   24  C   UNL     1      27.101  28.139   1.819  1.00  0.00     0.283 C 
HETATM   25  C   UNL     1      31.663  25.685   6.470  1.00  0.00     0.153 C 
HETATM   26  C   UNL     1      28.545  32.304   4.145  1.00  0.00     0.153 C 
HETATM   27  C   UNL     1      25.528  25.230   1.459  1.00  0.00     0.153 C 
ENDROOT
BRANCH  15  28
HETATM   28  C   UNL     1      33.851  28.116   5.536  1.00  0.00     0.016 C 
HETATM   29  C   UNL     1      34.588  28.522   4.262  1.00  0.00     0.012 C 
HETATM   30  C   UNL     1      34.402  28.880   6.739  1.00  0.00     0.012 C 
ENDBRANCH  15  28
BRANCH  14  31
HETATM   31  C   UNL     1      31.303  32.762   5.027  1.00  0.00     0.014 C 
HETATM   32  C   UNL     1      32.573  32.475   5.831  1.00  0.00     0.012 C 
BRANCH  31  33
HETATM   33  C   UNL     1      31.484  34.053   4.209  1.00  0.00     0.002 C 
HETATM   34  C   UNL     1      32.429  33.897   3.025  1.00  0.00     0.005 C 
ENDBRANCH  31  33
ENDBRANCH  14  31
BRANCH  13  35
HETATM   35  C   UNL     1      31.630  23.576   4.427  1.00  0.00     0.014 C 
HETATM   36  C   UNL     1      30.855  22.803   5.497  1.00  0.00     0.012 C 
BRANCH  35  37
HETATM   37  C   UNL     1      31.729  22.731   3.144  1.00  0.00     0.002 C 
HETATM   38  C   UNL     1      31.363  21.268   3.349  1.00  0.00     0.005 C 
ENDBRANCH  35  37
ENDBRANCH  13  35
BRANCH  17  39
HETATM   39  C   UNL     1      27.590  31.116   0.782  1.00  0.00     0.016 C 
HETATM   40  C   UNL     1      28.645  32.134   0.356  1.00  0.00     0.012 C 
HETATM   41  C   UNL     1      26.255  31.808   1.050  1.00  0.00     0.012 C 
ENDBRANCH  17  39
BRANCH  18  42
HETATM   42  C   UNL     1      27.147  26.019   6.084  1.00  0.00     0.016 C 
HETATM   43  C   UNL     1      28.164  26.696   7.002  1.00  0.00     0.012 C 
HETATM   44  C   UNL     1      25.736  26.515   6.392  1.00  0.00     0.012 C 
ENDBRANCH  18  42
BRANCH  16  45
HETATM   45  C   UNL     1      27.849  26.392   0.199  1.00  0.00     0.010 C 
HETATM   46  C   UNL     1      29.321  26.032   0.002  1.00  0.00     0.012 C 
HETATM   47  C   UNL     1      27.466  27.577  -0.686  1.00  0.00     0.012 C 
ENDBRANCH  16  45
TORSDOF 8
ENDMDL
MODEL 18
REMARK VINA RESULT:    -5.313      3.126      9.185
REMARK INTER + INTRA:          -6.705
REMARK INTER:                  -7.026
REMARK INTRA:                   0.321
REMARK UNBOUND:                 1.093
REMARK  8 active torsions:
REMARK  status: ('A' for Active; 'I' for Inactive)
REMARK    1  A    between atoms: C_13  and  C_15 
REMARK    2  A    between atoms: C_14  and  C_16 
REMARK    3  A    between atoms: C_15  and  C_22 
REMARK    4  A    between atoms: C_16  and  C_23 
REMARK    5  A    between atoms: C_17  and  C_21 
REMARK    6  A    between atoms: C_18  and  C_24 
REMARK    7  A    between atoms: C_19  and  C_27 
REMARK    8  A    between atoms: C_20  and  C_30 
ROOT
HETATM    1  O   UNL     1      27.481  26.506   2.765  1.00  0.00    -0.304 OA
HETATM    2  O   UNL     1      31.626  27.408   5.100  1.00  0.00    -0.304 OA
HETATM    3  O   UNL     1      30.210  30.753   3.298  1.00  0.00    -0.304 OA
HETATM    4  O   UNL     1      28.459  27.646   4.930  1.00  0.00    -0.270 OA
HETATM    5  O   UNL     1      29.462  26.587   1.584  1.00  0.00    -0.263 OA
HETATM    6  O   UNL     1      27.785  30.031   2.737  1.00  0.00    -0.270 OA
HETATM    7  O   UNL     1      32.517  27.260   7.217  1.00  0.00    -0.263 OA
HETATM    8  O   UNL     1      34.774  28.711   5.632  1.00  0.00    -0.270 OA
HETATM    9  O   UNL     1      32.416  31.325   2.941  1.00  0.00    -0.263 OA
HETATM   10  N   UNL     1      29.615  25.789   5.702  1.00  0.00    -0.340 N 
HETATM   11  N   UNL     1      28.502  29.087   0.742  1.00  0.00    -0.340 N 
HETATM   12  N   UNL     1      33.054  30.252   5.429  1.00  0.00    -0.340 N 
HETATM   13  C   UNL     1      30.224  26.554   6.816  1.00  0.00     0.190 C 
HETATM   14  C   UNL     1      27.567  27.957   0.902  1.00  0.00     0.190 C 
HETATM   15  C   UNL     1      28.054  25.610   3.737  1.00  0.00     0.227 C 
HETATM   16  C   UNL     1      31.643  30.583   5.138  1.00  0.00     0.190 C 
HETATM   17  C   UNL     1      29.873  30.830   1.897  1.00  0.00     0.227 C 
HETATM   18  C   UNL     1      32.813  27.920   4.486  1.00  0.00     0.227 C 
HETATM   19  C   UNL     1      28.726  26.442   4.835  1.00  0.00     0.250 C 
HETATM   20  C   UNL     1      28.305  26.941   1.764  1.00  0.00     0.283 C 
HETATM   21  C   UNL     1      28.615  29.975   1.822  1.00  0.00     0.250 C 
HETATM   22  C   UNL     1      31.607  27.071   6.420  1.00  0.00     0.283 C 
HETATM   23  C   UNL     1      33.631  28.985   5.249  1.00  0.00     0.250 C 
HETATM   24  C   UNL     1      31.511  30.942   3.667  1.00  0.00     0.283 C 
HETATM   25  C   UNL     1      30.056  24.399   5.547  1.00  0.00     0.153 C 
HETATM   26  C   UNL     1      29.353  29.141  -0.449  1.00  0.00     0.153 C 
HETATM   27  C   UNL     1      33.908  31.324   5.941  1.00  0.00     0.153 C 
ENDROOT
BRANCH  15  28
HETATM   28  C   UNL     1      26.907  24.797   4.324  1.00  0.00     0.016 C 
HETATM   29  C   UNL     1      25.863  25.715   4.956  1.00  0.00     0.012 C 
HETATM   30  C   UNL     1      26.266  23.917   3.252  1.00  0.00     0.012 C 
ENDBRANCH  15  28
BRANCH  14  31
HETATM   31  C   UNL     1      27.081  27.289  -0.378  1.00  0.00     0.014 C 
HETATM   32  C   UNL     1      26.732  25.826  -0.097  1.00  0.00     0.012 C 
BRANCH  31  33
HETATM   33  C   UNL     1      25.865  28.008  -0.987  1.00  0.00     0.002 C 
HETATM   34  C   UNL     1      24.531  27.389  -0.593  1.00  0.00     0.005 C 
ENDBRANCH  31  33
ENDBRANCH  14  31
BRANCH  13  35
HETATM   35  C   UNL     1      30.271  25.777   8.131  1.00  0.00     0.014 C 
HETATM   36  C   UNL     1      30.305  26.753   9.309  1.00  0.00     0.012 C 
BRANCH  35  37
HETATM   37  C   UNL     1      29.081  24.813   8.287  1.00  0.00     0.002 C 
HETATM   38  C   UNL     1      27.786  25.505   8.688  1.00  0.00     0.005 C 
ENDBRANCH  35  37
ENDBRANCH  13  35
BRANCH  17  39
HETATM   39  C   UNL     1      29.572  32.266   1.507  1.00  0.00     0.016 C 
HETATM   40  C   UNL     1      28.123  32.403   1.045  1.00  0.00     0.012 C 
HETATM   41  C   UNL     1      30.530  32.739   0.416  1.00  0.00     0.012 C 
ENDBRANCH  17  39
BRANCH  18  42
HETATM   42  C   UNL     1      33.681  26.723   4.094  1.00  0.00     0.016 C 
HETATM   43  C   UNL     1      32.811  25.550   3.643  1.00  0.00     0.012 C 
HETATM   44  C   UNL     1      34.669  27.110   2.995  1.00  0.00     0.012 C 
ENDBRANCH  18  42
BRANCH  16  45
HETATM   45  C   UNL     1      31.047  31.691   6.004  1.00  0.00     0.010 C 
HETATM   46  C   UNL     1      29.782  31.204   6.710  1.00  0.00     0.012 C 
HETATM   47  C   UNL     1      30.745  32.931   5.163  1.00  0.00     0.012 C 
ENDBRANCH  16  45
TORSDOF 8
ENDMDL
MODEL 19
REMARK VINA RESULT:    -5.308      3.893      8.423
REMARK INTER + INTRA:          -6.698
REMARK INTER:                  -7.102
REMARK INTRA:                   0.405
REMARK UNBOUND:                 1.093
REMARK  8 active torsions:
REMARK  status: ('A' for Active; 'I' for Inactive)
REMARK    1  A    between atoms: C_13  and  C_15 
REMARK    2  A    between atoms: C_14  and  C_16 
REMARK    3  A    between atoms: C_15  and  C_22 
REMARK    4  A    between atoms: C_16  and  C_23 
REMARK    5  A    between atoms: C_17  and  C_21 
REMARK    6  A    between atoms: C_18  and  C_24 
REMARK    7  A    between atoms: C_19  and  C_27 
REMARK    8  A    between atoms: C_20  and  C_30 
ROOT
HETATM    1  O   UNL     1      29.825  28.934   5.990  1.00  0.00    -0.304 OA
HETATM    2  O   UNL     1      29.827  25.413   2.667  1.00  0.00    -0.304 OA
HETATM    3  O   UNL     1      32.769  28.106   1.939  1.00  0.00    -0.304 OA
HETATM    4  O   UNL     1      31.121  26.768   5.237  1.00  0.00    -0.270 OA
HETATM    5  O   UNL     1      28.840  29.303   3.936  1.00  0.00    -0.263 OA
HETATM    6  O   UNL     1      32.832  29.398   4.185  1.00  0.00    -0.270 OA
HETATM    7  O   UNL     1      29.999  23.121   2.537  1.00  0.00    -0.263 OA
HETATM    8  O   UNL     1      30.012  23.974  -0.461  1.00  0.00    -0.270 OA
HETATM    9  O   UNL     1      32.382  27.713  -0.301  1.00  0.00    -0.263 OA
HETATM   10  N   UNL     1      29.288  25.346   5.261  1.00  0.00    -0.340 N 
HETATM   11  N   UNL     1      31.153  30.818   3.443  1.00  0.00    -0.340 N 
HETATM   12  N   UNL     1      31.934  25.031   0.289  1.00  0.00    -0.340 N 
HETATM   13  C   UNL     1      30.076  24.220   4.705  1.00  0.00     0.190 C 
HETATM   14  C   UNL     1      30.532  30.838   4.782  1.00  0.00     0.190 C 
HETATM   15  C   UNL     1      29.111  27.693   6.151  1.00  0.00     0.227 C 
HETATM   16  C   UNL     1      32.646  25.866   1.279  1.00  0.00     0.190 C 
HETATM   17  C   UNL     1      32.546  29.527   1.817  1.00  0.00     0.227 C 
HETATM   18  C   UNL     1      29.675  25.620   1.259  1.00  0.00     0.227 C 
HETATM   19  C   UNL     1      29.931  26.569   5.506  1.00  0.00     0.250 C 
HETATM   20  C   UNL     1      29.621  29.618   4.824  1.00  0.00     0.283 C 
HETATM   21  C   UNL     1      32.217  29.924   3.250  1.00  0.00     0.250 C 
HETATM   22  C   UNL     1      29.923  24.157   3.185  1.00  0.00     0.283 C 
HETATM   23  C   UNL     1      30.551  24.787   0.297  1.00  0.00     0.250 C 
HETATM   24  C   UNL     1      32.580  27.321   0.839  1.00  0.00     0.283 C 
HETATM   25  C   UNL     1      27.853  25.110   5.447  1.00  0.00     0.153 C 
HETATM   26  C   UNL     1      30.546  31.606   2.368  1.00  0.00     0.153 C 
HETATM   27  C   UNL     1      32.729  24.415  -0.774  1.00  0.00     0.153 C 
ENDROOT
BRANCH  15  28
HETATM   28  C   UNL     1      28.973  27.449   7.648  1.00  0.00     0.016 C 
HETATM   29  C   UNL     1      30.010  28.258   8.424  1.00  0.00     0.012 C 
HETATM   30  C   UNL     1      27.562  27.792   8.123  1.00  0.00     0.012 C 
ENDBRANCH  15  28
BRANCH  14  31
HETATM   31  C   UNL     1      29.739  32.085   5.146  1.00  0.00     0.014 C 
HETATM   32  C   UNL     1      29.041  31.879   6.492  1.00  0.00     0.012 C 
BRANCH  31  33
HETATM   33  C   UNL     1      30.622  33.344   5.203  1.00  0.00     0.002 C 
HETATM   34  C   UNL     1      29.899  34.615   4.778  1.00  0.00     0.005 C 
ENDBRANCH  31  33
ENDBRANCH  14  31
BRANCH  13  35
HETATM   35  C   UNL     1      29.756  22.876   5.357  1.00  0.00     0.014 C 
HETATM   36  C   UNL     1      30.685  21.795   4.798  1.00  0.00     0.012 C 
BRANCH  35  37
HETATM   37  C   UNL     1      29.877  22.923   6.891  1.00  0.00     0.002 C 
HETATM   38  C   UNL     1      31.164  22.307   7.420  1.00  0.00     0.005 C 
ENDBRANCH  35  37
ENDBRANCH  13  35
BRANCH  17  39
HETATM   39  C   UNL     1      33.812  30.219   1.346  1.00  0.00     0.016 C 
HETATM   40  C   UNL     1      34.313  31.200   2.402  1.00  0.00     0.012 C 
HETATM   41  C   UNL     1      33.570  30.936   0.019  1.00  0.00     0.012 C 
ENDBRANCH  17  39
BRANCH  18  42
HETATM   42  C   UNL     1      28.189  25.475   0.930  1.00  0.00     0.016 C 
HETATM   43  C   UNL     1      27.327  26.023   2.067  1.00  0.00     0.012 C 
HETATM   44  C   UNL     1      27.855  26.182  -0.382  1.00  0.00     0.012 C 
ENDBRANCH  18  42
BRANCH  16  45
HETATM   45  C   UNL     1      34.096  25.464   1.540  1.00  0.00     0.010 C 
HETATM   46  C   UNL     1      34.314  25.164   3.023  1.00  0.00     0.012 C 
HETATM   47  C   UNL     1      35.054  26.558   1.071  1.00  0.00     0.012 C 
ENDBRANCH  16  45
TORSDOF 8
ENDMDL
MODEL 20
REMARK VINA RESULT:    -5.307      2.817      5.360
REMARK INTER + INTRA:          -6.696
REMARK INTER:                  -7.589
REMARK INTRA:                   0.893
REMARK UNBOUND:                 1.093
REMARK  8 active torsions:
REMARK  status: ('A' for Active; 'I' for Inactive)
REMARK    1  A    between atoms: C_13  and  C_15 
REMARK    2  A    between atoms: C_14  and  C_16 
REMARK    3  A    between atoms: C_15  and  C_22 
REMARK    4  A    between atoms: C_16  and  C_23 
REMARK    5  A    between atoms: C_17  and  C_21 
REMARK    6  A    between atoms: C_18  and  C_24 
REMARK    7  A    between atoms: C_19  and  C_27 
REMARK    8  A    between atoms: C_20  and  C_30 
ROOT
HETATM    1  O   UNL     1      30.099  28.196   8.034  1.00  0.00    -0.304 OA
HETATM    2  O   UNL     1      32.173  29.014   3.735  1.00  0.00    -0.304 OA
HETATM    3  O   UNL     1      28.361  27.706   3.290  1.00  0.00    -0.304 OA
HETATM    4  O   UNL     1      30.139  29.892   6.018  1.00  0.00    -0.270 OA
HETATM    5  O   UNL     1      30.955  26.426   6.824  1.00  0.00    -0.263 OA
HETATM    6  O   UNL     1      27.449  27.991   5.698  1.00  0.00    -0.270 OA
HETATM    7  O   UNL     1      33.185  30.723   2.571  1.00  0.00    -0.263 OA
HETATM    8  O   UNL     1      33.029  28.450   0.443  1.00  0.00    -0.270 OA
HETATM    9  O   UNL     1      29.102  26.629   1.389  1.00  0.00    -0.263 OA
HETATM   10  N   UNL     1      32.426  30.281   6.050  1.00  0.00    -0.340 N 
HETATM   11  N   UNL     1      28.253  25.893   6.277  1.00  0.00    -0.340 N 
HETATM   12  N   UNL     1      30.775  28.791   0.866  1.00  0.00    -0.340 N 
HETATM   13  C   UNL     1      32.364  31.115   4.827  1.00  0.00     0.190 C 
HETATM   14  C   UNL     1      28.651  26.377   7.614  1.00  0.00     0.190 C 
HETATM   15  C   UNL     1      31.320  28.945   7.873  1.00  0.00     0.227 C 
HETATM   16  C   UNL     1      29.651  28.974   1.808  1.00  0.00     0.190 C 
HETATM   17  C   UNL     1      27.853  26.492   3.883  1.00  0.00     0.227 C 
HETATM   18  C   UNL     1      32.332  28.032   2.707  1.00  0.00     0.227 C 
HETATM   19  C   UNL     1      31.238  29.741   6.565  1.00  0.00     0.250 C 
HETATM   20  C   UNL     1      30.042  26.970   7.431  1.00  0.00     0.283 C 
HETATM   21  C   UNL     1      27.803  26.855   5.362  1.00  0.00     0.250 C 
HETATM   22  C   UNL     1      32.671  30.274   3.587  1.00  0.00     0.283 C 
HETATM   23  C   UNL     1      32.087  28.459   1.243  1.00  0.00     0.250 C 
HETATM   24  C   UNL     1      29.021  27.621   2.098  1.00  0.00     0.283 C 
HETATM   25  C   UNL     1      33.762  30.020   6.596  1.00  0.00     0.153 C 
HETATM   26  C   UNL     1      28.481  24.487   5.935  1.00  0.00     0.153 C 
HETATM   27  C   UNL     1      30.500  28.970  -0.560  1.00  0.00     0.153 C 
ENDROOT
BRANCH  15  28
HETATM   28  C   UNL     1      31.420  29.894   9.060  1.00  0.00     0.016 C 
HETATM   29  C   UNL     1      30.031  30.348   9.506  1.00  0.00     0.012 C 
HETATM   30  C   UNL     1      32.164  29.233  10.218  1.00  0.00     0.012 C 
ENDBRANCH  15  28
BRANCH  14  31
HETATM   31  C   UNL     1      28.675  25.344   8.732  1.00  0.00     0.014 C 
HETATM   32  C   UNL     1      29.518  25.865   9.899  1.00  0.00     0.012 C 
BRANCH  31  33
HETATM   33  C   UNL     1      27.263  24.985   9.228  1.00  0.00     0.002 C 
HETATM   34  C   UNL     1      27.193  24.714  10.724  1.00  0.00     0.005 C 
ENDBRANCH  31  33
ENDBRANCH  14  31
BRANCH  13  35
HETATM   35  C   UNL     1      33.251  32.357   4.894  1.00  0.00     0.014 C 
HETATM   36  C   UNL     1      34.504  32.147   4.040  1.00  0.00     0.012 C 
BRANCH  35  37
HETATM   37  C   UNL     1      32.516  33.629   4.435  1.00  0.00     0.002 C 
HETATM   38  C   UNL     1      31.004  33.546   4.586  1.00  0.00     0.005 C 
ENDBRANCH  35  37
ENDBRANCH  13  35
BRANCH  17  39
HETATM   39  C   UNL     1      26.462  26.192   3.356  1.00  0.00     0.016 C 
HETATM   40  C   UNL     1      26.522  25.143   2.249  1.00  0.00     0.012 C 
HETATM   41  C   UNL     1      25.793  27.469   2.850  1.00  0.00     0.012 C 
ENDBRANCH  17  39
BRANCH  18  42
HETATM   42  C   UNL     1      33.715  27.402   2.881  1.00  0.00     0.016 C 
HETATM   43  C   UNL     1      34.119  27.386   4.356  1.00  0.00     0.012 C 
HETATM   44  C   UNL     1      33.741  25.989   2.304  1.00  0.00     0.012 C 
ENDBRANCH  18  42
BRANCH  16  45
HETATM   45  C   UNL     1      28.580  29.963   1.351  1.00  0.00     0.010 C 
HETATM   46  C   UNL     1      28.043  30.763   2.537  1.00  0.00     0.012 C 
HETATM   47  C   UNL     1      27.440  29.236   0.639  1.00  0.00     0.012 C 
ENDBRANCH  16  45
TORSDOF 8
ENDMDL
