MODEL 1
REMARK VINA RESULT:    -6.381      0.000      0.000
REMARK INTER + INTRA:          -8.455
REMARK INTER:                  -9.365
REMARK INTRA:                   0.910
REMARK UNBOUND:                 0.910
REMARK  8 active torsions:
REMARK  status: ('A' for Active; 'I' for Inactive)
REMARK    1  A    between atoms: C_13  and  C_15 
REMARK    2  A    between atoms: C_14  and  C_16 
REMARK    3  A    between atoms: C_15  and  C_22 
REMARK    4  A    between atoms: C_16  and  C_23 
REMARK    5  A    between atoms: C_17  and  C_21 
REMARK    6  A    between atoms: C_18  and  C_24 
REMARK    7  A    between atoms: C_19  and  C_27 
REMARK    8  A    between atoms: C_20  and  C_30 
ROOT
HETATM    1  O   UNL     1      50.773  22.951  10.364  1.00  0.00    -0.304 OA
HETATM    2  O   UNL     1      49.784  23.581   5.665  1.00  0.00    -0.304 OA
HETATM    3  O   UNL     1      53.167  21.402   6.164  1.00  0.00    -0.304 OA
HETATM    4  O   UNL     1      49.849  21.706   8.234  1.00  0.00    -0.270 OA
HETATM    5  O   UNL     1      51.882  24.588   9.173  1.00  0.00    -0.263 OA
HETATM    6  O   UNL     1      52.996  20.778   8.673  1.00  0.00    -0.270 OA
HETATM    7  O   UNL     1      48.095  23.171   4.156  1.00  0.00    -0.263 OA
HETATM    8  O   UNL     1      50.388  24.241   2.335  1.00  0.00    -0.270 OA
HETATM    9  O   UNL     1      53.950  22.443   4.260  1.00  0.00    -0.263 OA
HETATM   10  N   UNL     1      48.175  23.235   7.743  1.00  0.00    -0.340 N 
HETATM   11  N   UNL     1      54.022  22.773   9.265  1.00  0.00    -0.340 N 
HETATM   12  N   UNL     1      51.383  22.331   3.192  1.00  0.00    -0.340 N 
HETATM   13  C   UNL     1      47.817  22.534   6.487  1.00  0.00     0.190 C 
HETATM   14  C   UNL     1      53.134  22.922  10.435  1.00  0.00     0.190 C 
HETATM   15  C   UNL     1      49.496  23.410   9.877  1.00  0.00     0.227 C 
HETATM   16  C   UNL     1      51.718  21.448   4.329  1.00  0.00     0.190 C 
HETATM   17  C   UNL     1      54.289  21.831   6.965  1.00  0.00     0.227 C 
HETATM   18  C   UNL     1      50.662  24.207   4.725  1.00  0.00     0.227 C 
HETATM   19  C   UNL     1      49.197  22.708   8.547  1.00  0.00     0.250 C 
HETATM   20  C   UNL     1      51.881  23.607   9.906  1.00  0.00     0.283 C 
HETATM   21  C   UNL     1      53.733  21.725   8.379  1.00  0.00     0.250 C 
HETATM   22  C   UNL     1      48.541  23.163   5.296  1.00  0.00     0.283 C 
HETATM   23  C   UNL     1      50.779  23.593   3.312  1.00  0.00     0.250 C 
HETATM   24  C   UNL     1      53.084  21.837   4.873  1.00  0.00     0.283 C 
HETATM   25  C   UNL     1      47.467  24.490   8.016  1.00  0.00     0.153 C 
HETATM   26  C   UNL     1      55.046  23.791   9.017  1.00  0.00     0.153 C 
HETATM   27  C   UNL     1      51.702  21.853   1.847  1.00  0.00     0.153 C 
ENDROOT
BRANCH  15  28
HETATM   28  C   UNL     1      48.456  23.022  10.920  1.00  0.00     0.016 C 
HETATM   29  C   UNL     1      48.683  21.590  11.401  1.00  0.00     0.012 C 
HETATM   30  C   UNL     1      48.486  23.993  12.099  1.00  0.00     0.012 C 
ENDBRANCH  15  28
BRANCH  14  31
HETATM   31  C   UNL     1      53.690  23.706  11.616  1.00  0.00     0.014 C 
HETATM   32  C   UNL     1      52.538  24.298  12.431  1.00  0.00     0.012 C 
BRANCH  31  33
HETATM   33  C   UNL     1      54.583  22.842  12.523  1.00  0.00     0.002 C 
HETATM   34  C   UNL     1      56.042  23.279  12.538  1.00  0.00     0.005 C 
ENDBRANCH  31  33
ENDBRANCH  14  31
BRANCH  13  35
HETATM   35  C   UNL     1      46.311  22.452   6.247  1.00  0.00     0.014 C 
HETATM   36  C   UNL     1      45.907  23.430   5.141  1.00  0.00     0.012 C 
BRANCH  35  37
HETATM   37  C   UNL     1      45.853  21.030   5.875  1.00  0.00     0.002 C 
HETATM   38  C   UNL     1      45.811  20.776   4.375  1.00  0.00     0.005 C 
ENDBRANCH  35  37
ENDBRANCH  13  35
BRANCH  17  39
HETATM   39  C   UNL     1      55.461  20.886   6.775  1.00  0.00     0.016 C 
HETATM   40  C   UNL     1      55.788  20.167   8.082  1.00  0.00     0.012 C 
HETATM   41  C   UNL     1      56.683  21.642   6.259  1.00  0.00     0.012 C 
ENDBRANCH  17  39
BRANCH  18  42
HETATM   42  C   UNL     1      50.288  25.689   4.661  1.00  0.00     0.016 C 
HETATM   43  C   UNL     1      49.816  26.186   6.027  1.00  0.00     0.012 C 
HETATM   44  C   UNL     1      51.469  26.522   4.167  1.00  0.00     0.012 C 
ENDBRANCH  18  42
BRANCH  16  45
HETATM   45  C   UNL     1      51.686  19.952   4.019  1.00  0.00     0.010 C 
HETATM   46  C   UNL     1      50.442  19.302   4.622  1.00  0.00     0.012 C 
HETATM   47  C   UNL     1      52.950  19.265   4.533  1.00  0.00     0.012 C 
ENDBRANCH  16  45
TORSDOF 8
ENDMDL
MODEL 2
REMARK VINA RESULT:    -5.884      1.925      6.607
REMARK INTER + INTRA:          -7.725
REMARK INTER:                  -8.124
REMARK INTRA:                   0.398
REMARK UNBOUND:                 0.910
REMARK  8 active torsions:
REMARK  status: ('A' for Active; 'I' for Inactive)
REMARK    1  A    between atoms: C_13  and  C_15 
REMARK    2  A    between atoms: C_14  and  C_16 
REMARK    3  A    between atoms: C_15  and  C_22 
REMARK    4  A    between atoms: C_16  and  C_23 
REMARK    5  A    between atoms: C_17  and  C_21 
REMARK    6  A    between atoms: C_18  and  C_24 
REMARK    7  A    between atoms: C_19  and  C_27 
REMARK    8  A    between atoms: C_20  and  C_30 
ROOT
HETATM    1  O   UNL     1      50.849  24.123  10.264  1.00  0.00    -0.304 OA
HETATM    2  O   UNL     1      51.740  22.457   5.805  1.00  0.00    -0.304 OA
HETATM    3  O   UNL     1      48.658  25.091   5.789  1.00  0.00    -0.304 OA
HETATM    4  O   UNL     1      51.916  24.798   7.952  1.00  0.00    -0.270 OA
HETATM    5  O   UNL     1      49.541  22.431   9.395  1.00  0.00    -0.263 OA
HETATM    6  O   UNL     1      48.912  26.174   8.130  1.00  0.00    -0.270 OA
HETATM    7  O   UNL     1      53.463  22.349   4.283  1.00  0.00    -0.263 OA
HETATM    8  O   UNL     1      51.050  21.230   2.658  1.00  0.00    -0.270 OA
HETATM    9  O   UNL     1      47.746  23.799   4.110  1.00  0.00    -0.263 OA
HETATM   10  N   UNL     1      53.384  23.007   7.810  1.00  0.00    -0.340 N 
HETATM   11  N   UNL     1      47.645  24.478   9.079  1.00  0.00    -0.340 N 
HETATM   12  N   UNL     1      50.304  23.380   3.099  1.00  0.00    -0.340 N 
HETATM   13  C   UNL     1      53.824  23.396   6.449  1.00  0.00     0.190 C 
HETATM   14  C   UNL     1      48.510  24.455  10.275  1.00  0.00     0.190 C 
HETATM   15  C   UNL     1      52.057  23.422   9.907  1.00  0.00     0.227 C 
HETATM   16  C   UNL     1      50.084  24.505   4.032  1.00  0.00     0.190 C 
HETATM   17  C   UNL     1      47.492  24.971   6.633  1.00  0.00     0.227 C 
HETATM   18  C   UNL     1      50.788  21.770   4.986  1.00  0.00     0.227 C 
HETATM   19  C   UNL     1      52.438  23.804   8.472  1.00  0.00     0.250 C 
HETATM   20  C   UNL     1      49.666  23.530   9.920  1.00  0.00     0.283 C 
HETATM   21  C   UNL     1      48.060  25.286   8.011  1.00  0.00     0.250 C 
HETATM   22  C   UNL     1      53.025  22.637   5.389  1.00  0.00     0.283 C 
HETATM   23  C   UNL     1      50.745  22.102   3.478  1.00  0.00     0.250 C 
HETATM   24  C   UNL     1      48.682  24.402   4.611  1.00  0.00     0.283 C 
HETATM   25  C   UNL     1      53.931  21.753   8.340  1.00  0.00     0.153 C 
HETATM   26  C   UNL     1      46.501  23.565   9.014  1.00  0.00     0.153 C 
HETATM   27  C   UNL     1      50.044  23.618   1.679  1.00  0.00     0.153 C 
ENDROOT
BRANCH  15  28
HETATM   28  C   UNL     1      53.140  23.878  10.876  1.00  0.00     0.016 C 
HETATM   29  C   UNL     1      53.799  25.164  10.382  1.00  0.00     0.012 C 
HETATM   30  C   UNL     1      52.561  24.077  12.276  1.00  0.00     0.012 C 
ENDBRANCH  15  28
BRANCH  14  31
HETATM   31  C   UNL     1      47.863  23.995  11.574  1.00  0.00     0.014 C 
HETATM   32  C   UNL     1      48.943  23.524  12.551  1.00  0.00     0.012 C 
BRANCH  31  33
HETATM   33  C   UNL     1      47.014  25.100  12.228  1.00  0.00     0.002 C 
HETATM   34  C   UNL     1      45.814  24.569  13.000  1.00  0.00     0.005 C 
ENDBRANCH  31  33
ENDBRANCH  14  31
BRANCH  13  35
HETATM   35  C   UNL     1      55.329  23.243   6.231  1.00  0.00     0.014 C 
HETATM   36  C   UNL     1      55.727  23.884   4.899  1.00  0.00     0.012 C 
BRANCH  35  37
HETATM   37  C   UNL     1      56.154  23.863   7.373  1.00  0.00     0.002 C 
HETATM   38  C   UNL     1      56.037  25.378   7.456  1.00  0.00     0.005 C 
ENDBRANCH  35  37
ENDBRANCH  13  35
BRANCH  17  39
HETATM   39  C   UNL     1      46.447  25.997   6.235  1.00  0.00     0.016 C 
HETATM   40  C   UNL     1      46.201  26.982   7.375  1.00  0.00     0.012 C 
HETATM   41  C   UNL     1      45.145  25.308   5.830  1.00  0.00     0.012 C 
ENDBRANCH  17  39
BRANCH  18  42
HETATM   42  C   UNL     1      50.973  20.271   5.224  1.00  0.00     0.016 C 
HETATM   43  C   UNL     1      51.368  19.998   6.675  1.00  0.00     0.012 C 
HETATM   44  C   UNL     1      49.702  19.506   4.863  1.00  0.00     0.012 C 
ENDBRANCH  18  42
BRANCH  16  45
HETATM   45  C   UNL     1      50.303  25.894   3.434  1.00  0.00     0.010 C 
HETATM   46  C   UNL     1      51.346  26.670   4.237  1.00  0.00     0.012 C 
HETATM   47  C   UNL     1      48.989  26.671   3.375  1.00  0.00     0.012 C 
ENDBRANCH  16  45
TORSDOF 8
ENDMDL
MODEL 3
REMARK VINA RESULT:    -5.833      2.097      7.547
REMARK INTER + INTRA:          -7.652
REMARK INTER:                  -8.493
REMARK INTRA:                   0.841
REMARK UNBOUND:                 0.910
REMARK  8 active torsions:
REMARK  status: ('A' for Active; 'I' for Inactive)
REMARK    1  A    between atoms: C_13  and  C_15 
REMARK    2  A    between atoms: C_14  and  C_16 
REMARK    3  A    between atoms: C_15  and  C_22 
REMARK    4  A    between atoms: C_16  and  C_23 
REMARK    5  A    between atoms: C_17  and  C_21 
REMARK    6  A    between atoms: C_18  and  C_24 
REMARK    7  A    between atoms: C_19  and  C_27 
REMARK    8  A    between atoms: C_20  and  C_30 
ROOT
HETATM    1  O   UNL     1      47.115  22.341   4.326  1.00  0.00    -0.304 OA
HETATM    2  O   UNL     1      51.647  22.323   6.030  1.00  0.00    -0.304 OA
HETATM    3  O   UNL     1      48.969  22.925   9.015  1.00  0.00    -0.304 OA
HETATM    4  O   UNL     1      48.838  20.874   5.674  1.00  0.00    -0.270 OA
HETATM    5  O   UNL     1      48.184  24.343   4.745  1.00  0.00    -0.263 OA
HETATM    6  O   UNL     1      46.756  22.255   7.845  1.00  0.00    -0.270 OA
HETATM    7  O   UNL     1      53.493  20.949   6.096  1.00  0.00    -0.263 OA
HETATM    8  O   UNL     1      54.358  23.336   7.904  1.00  0.00    -0.270 OA
HETATM    9  O   UNL     1      50.560  24.290   9.977  1.00  0.00    -0.263 OA
HETATM   10  N   UNL     1      50.524  20.922   4.081  1.00  0.00    -0.340 N 
HETATM   11  N   UNL     1      46.520  24.406   7.006  1.00  0.00    -0.340 N 
HETATM   12  N   UNL     1      52.536  22.540   9.096  1.00  0.00    -0.340 N 
HETATM   13  C   UNL     1      51.469  20.206   4.970  1.00  0.00     0.190 C 
HETATM   14  C   UNL     1      46.002  23.885   5.725  1.00  0.00     0.190 C 
HETATM   15  C   UNL     1      48.243  21.854   3.572  1.00  0.00     0.227 C 
HETATM   16  C   UNL     1      51.138  22.062   9.153  1.00  0.00     0.190 C 
HETATM   17  C   UNL     1      47.965  23.962   8.997  1.00  0.00     0.227 C 
HETATM   18  C   UNL     1      52.256  23.407   6.739  1.00  0.00     0.227 C 
HETATM   19  C   UNL     1      49.223  21.179   4.539  1.00  0.00     0.250 C 
HETATM   20  C   UNL     1      47.234  23.584   4.883  1.00  0.00     0.283 C 
HETATM   21  C   UNL     1      47.008  23.463   7.922  1.00  0.00     0.250 C 
HETATM   22  C   UNL     1      52.353  21.199   5.725  1.00  0.00     0.283 C 
HETATM   23  C   UNL     1      53.151  23.077   7.954  1.00  0.00     0.250 C 
HETATM   24  C   UNL     1      50.224  23.240   9.449  1.00  0.00     0.283 C 
HETATM   25  C   UNL     1      51.056  21.379   2.793  1.00  0.00     0.153 C 
HETATM   26  C   UNL     1      46.632  25.855   7.190  1.00  0.00     0.153 C 
HETATM   27  C   UNL     1      53.334  22.443  10.318  1.00  0.00     0.153 C 
ENDROOT
BRANCH  15  28
HETATM   28  C   UNL     1      47.706  20.836   2.574  1.00  0.00     0.016 C 
HETATM   29  C   UNL     1      46.455  20.151   3.123  1.00  0.00     0.012 C 
HETATM   30  C   UNL     1      47.405  21.503   1.233  1.00  0.00     0.012 C 
ENDBRANCH  15  28
BRANCH  14  31
HETATM   31  C   UNL     1      45.060  24.798   4.951  1.00  0.00     0.014 C 
HETATM   32  C   UNL     1      44.903  24.283   3.518  1.00  0.00     0.012 C 
BRANCH  31  33
HETATM   33  C   UNL     1      43.678  24.914   5.619  1.00  0.00     0.002 C 
HETATM   34  C   UNL     1      43.091  26.318   5.563  1.00  0.00     0.005 C 
ENDBRANCH  31  33
ENDBRANCH  14  31
BRANCH  13  35
HETATM   35  C   UNL     1      52.304  19.152   4.244  1.00  0.00     0.014 C 
HETATM   36  C   UNL     1      53.308  18.526   5.216  1.00  0.00     0.012 C 
BRANCH  35  37
HETATM   37  C   UNL     1      51.437  18.049   3.611  1.00  0.00     0.002 C 
HETATM   38  C   UNL     1      52.163  16.721   3.449  1.00  0.00     0.005 C 
ENDBRANCH  35  37
ENDBRANCH  13  35
BRANCH  17  39
HETATM   39  C   UNL     1      47.268  24.041  10.343  1.00  0.00     0.016 C 
HETATM   40  C   UNL     1      45.980  23.221  10.330  1.00  0.00     0.012 C 
HETATM   41  C   UNL     1      46.976  25.494  10.711  1.00  0.00     0.012 C 
ENDBRANCH  17  39
BRANCH  18  42
HETATM   42  C   UNL     1      52.998  24.268   5.715  1.00  0.00     0.016 C 
HETATM   43  C   UNL     1      52.210  24.353   4.408  1.00  0.00     0.012 C 
HETATM   44  C   UNL     1      53.260  25.665   6.273  1.00  0.00     0.012 C 
ENDBRANCH  18  42
BRANCH  16  45
HETATM   45  C   UNL     1      50.879  20.935  10.151  1.00  0.00     0.010 C 
HETATM   46  C   UNL     1      51.053  19.572   9.483  1.00  0.00     0.012 C 
HETATM   47  C   UNL     1      49.482  21.059  10.757  1.00  0.00     0.012 C 
ENDBRANCH  16  45
TORSDOF 8
ENDMDL
MODEL 4
REMARK VINA RESULT:    -5.765      1.591      6.613
REMARK INTER + INTRA:          -7.552
REMARK INTER:                  -8.084
REMARK INTRA:                   0.532
REMARK UNBOUND:                 0.910
REMARK  8 active torsions:
REMARK  status: ('A' for Active; 'I' for Inactive)
REMARK    1  A    between atoms: C_13  and  C_15 
REMARK    2  A    between atoms: C_14  and  C_16 
REMARK    3  A    between atoms: C_15  and  C_22 
REMARK    4  A    between atoms: C_16  and  C_23 
REMARK    5  A    between atoms: C_17  and  C_21 
REMARK    6  A    between atoms: C_18  and  C_24 
REMARK    7  A    between atoms: C_19  and  C_27 
REMARK    8  A    between atoms: C_20  and  C_30 
ROOT
HETATM    1  O   UNL     1      51.442  23.839  10.570  1.00  0.00    -0.304 OA
HETATM    2  O   UNL     1      53.219  22.497   6.270  1.00  0.00    -0.304 OA
HETATM    3  O   UNL     1      49.744  24.541   5.838  1.00  0.00    -0.304 OA
HETATM    4  O   UNL     1      52.676  24.764   8.434  1.00  0.00    -0.270 OA
HETATM    5  O   UNL     1      50.591  21.970   9.516  1.00  0.00    -0.263 OA
HETATM    6  O   UNL     1      49.476  25.579   8.198  1.00  0.00    -0.270 OA
HETATM    7  O   UNL     1      55.125  22.744   5.003  1.00  0.00    -0.263 OA
HETATM    8  O   UNL     1      53.198  21.265   3.050  1.00  0.00    -0.270 OA
HETATM    9  O   UNL     1      49.318  23.159   4.040  1.00  0.00    -0.263 OA
HETATM   10  N   UNL     1      54.448  23.268   8.488  1.00  0.00    -0.340 N 
HETATM   11  N   UNL     1      48.418  23.655   8.951  1.00  0.00    -0.340 N 
HETATM   12  N   UNL     1      52.024  23.234   3.395  1.00  0.00    -0.340 N 
HETATM   13  C   UNL     1      54.992  23.771   7.204  1.00  0.00     0.190 C 
HETATM   14  C   UNL     1      49.102  23.750  10.255  1.00  0.00     0.190 C 
HETATM   15  C   UNL     1      52.794  23.375  10.381  1.00  0.00     0.227 C 
HETATM   16  C   UNL     1      51.479  24.272   4.294  1.00  0.00     0.190 C 
HETATM   17  C   UNL     1      48.515  24.189   6.510  1.00  0.00     0.227 C 
HETATM   18  C   UNL     1      52.528  21.678   5.322  1.00  0.00     0.227 C 
HETATM   19  C   UNL     1      53.292  23.864   9.015  1.00  0.00     0.250 C 
HETATM   20  C   UNL     1      50.443  23.056  10.060  1.00  0.00     0.283 C 
HETATM   21  C   UNL     1      48.824  24.557   7.955  1.00  0.00     0.250 C 
HETATM   22  C   UNL     1      54.495  22.916   6.039  1.00  0.00     0.283 C 
HETATM   23  C   UNL     1      52.632  22.043   3.825  1.00  0.00     0.250 C 
HETATM   24  C   UNL     1      50.053  23.904   4.671  1.00  0.00     0.283 C 
HETATM   25  C   UNL     1      55.134  22.116   9.082  1.00  0.00     0.153 C 
HETATM   26  C   UNL     1      47.478  22.557   8.720  1.00  0.00     0.153 C 
HETATM   27  C   UNL     1      51.921  23.465   1.954  1.00  0.00     0.153 C 
ENDROOT
BRANCH  15  28
HETATM   28  C   UNL     1      53.634  23.986  11.495  1.00  0.00     0.016 C 
HETATM   29  C   UNL     1      52.761  24.813  12.437  1.00  0.00     0.012 C 
HETATM   30  C   UNL     1      54.376  22.898  12.269  1.00  0.00     0.012 C 
ENDBRANCH  15  28
BRANCH  14  31
HETATM   31  C   UNL     1      48.377  23.142  11.449  1.00  0.00     0.014 C 
HETATM   32  C   UNL     1      49.282  23.190  12.682  1.00  0.00     0.012 C 
BRANCH  31  33
HETATM   33  C   UNL     1      47.046  23.854  11.749  1.00  0.00     0.002 C 
HETATM   34  C   UNL     1      47.088  24.721  13.000  1.00  0.00     0.005 C 
ENDBRANCH  31  33
ENDBRANCH  14  31
BRANCH  13  35
HETATM   35  C   UNL     1      56.515  23.895   7.198  1.00  0.00     0.014 C 
HETATM   36  C   UNL     1      56.948  24.906   6.134  1.00  0.00     0.012 C 
BRANCH  35  37
HETATM   37  C   UNL     1      57.076  24.311   8.570  1.00  0.00     0.002 C 
HETATM   38  C   UNL     1      56.859  25.781   8.896  1.00  0.00     0.005 C 
ENDBRANCH  35  37
ENDBRANCH  13  35
BRANCH  17  39
HETATM   39  C   UNL     1      47.367  25.025   5.976  1.00  0.00     0.016 C 
HETATM   40  C   UNL     1      46.765  25.882   7.086  1.00  0.00     0.012 C 
HETATM   41  C   UNL     1      46.298  24.131   5.349  1.00  0.00     0.012 C 
ENDBRANCH  17  39
BRANCH  18  42
HETATM   42  C   UNL     1      52.946  20.229   5.574  1.00  0.00     0.016 C 
HETATM   43  C   UNL     1      52.966  19.925   7.072  1.00  0.00     0.012 C 
HETATM   44  C   UNL     1      52.014  19.263   4.846  1.00  0.00     0.012 C 
ENDBRANCH  18  42
BRANCH  16  45
HETATM   45  C   UNL     1      51.524  25.695   3.741  1.00  0.00     0.010 C 
HETATM   46  C   UNL     1      52.284  26.621   4.691  1.00  0.00     0.012 C 
HETATM   47  C   UNL     1      50.111  26.225   3.496  1.00  0.00     0.012 C 
ENDBRANCH  16  45
TORSDOF 8
ENDMDL
MODEL 5
REMARK VINA RESULT:    -5.739      1.850      2.391
REMARK INTER + INTRA:          -7.513
REMARK INTER:                  -8.294
REMARK INTRA:                   0.781
REMARK UNBOUND:                 0.910
REMARK  8 active torsions:
REMARK  status: ('A' for Active; 'I' for Inactive)
REMARK    1  A    between atoms: C_13  and  C_15 
REMARK    2  A    between atoms: C_14  and  C_16 
REMARK    3  A    between atoms: C_15  and  C_22 
REMARK    4  A    between atoms: C_16  and  C_23 
REMARK    5  A    between atoms: C_17  and  C_21 
REMARK    6  A    between atoms: C_18  and  C_24 
REMARK    7  A    between atoms: C_19  and  C_27 
REMARK    8  A    between atoms: C_20  and  C_30 
ROOT
HETATM    1  O   UNL     1      51.945  21.906   9.769  1.00  0.00    -0.304 OA
HETATM    2  O   UNL     1      51.539  22.366   4.966  1.00  0.00    -0.304 OA
HETATM    3  O   UNL     1      55.374  21.603   6.038  1.00  0.00    -0.304 OA
HETATM    4  O   UNL     1      51.911  20.520   7.529  1.00  0.00    -0.270 OA
HETATM    5  O   UNL     1      52.518  23.902   8.761  1.00  0.00    -0.263 OA
HETATM    6  O   UNL     1      55.063  20.827   8.491  1.00  0.00    -0.270 OA
HETATM    7  O   UNL     1      50.392  21.430   3.203  1.00  0.00    -0.263 OA
HETATM    8  O   UNL     1      52.358  23.382   1.774  1.00  0.00    -0.270 OA
HETATM    9  O   UNL     1      55.988  22.962   4.279  1.00  0.00    -0.263 OA
HETATM   10  N   UNL     1      49.880  21.328   6.753  1.00  0.00    -0.340 N 
HETATM   11  N   UNL     1      55.146  23.028   9.223  1.00  0.00    -0.340 N 
HETATM   12  N   UNL     1      53.859  21.946   2.803  1.00  0.00    -0.340 N 
HETATM   13  C   UNL     1      50.017  20.612   5.463  1.00  0.00     0.190 C 
HETATM   14  C   UNL     1      54.097  22.768  10.229  1.00  0.00     0.190 C 
HETATM   15  C   UNL     1      50.683  21.875   9.074  1.00  0.00     0.227 C 
HETATM   16  C   UNL     1      54.324  21.196   3.989  1.00  0.00     0.190 C 
HETATM   17  C   UNL     1      56.108  22.381   7.008  1.00  0.00     0.227 C 
HETATM   18  C   UNL     1      52.247  23.326   4.176  1.00  0.00     0.227 C 
HETATM   19  C   UNL     1      50.886  21.184   7.721  1.00  0.00     0.250 C 
HETATM   20  C   UNL     1      52.777  22.956   9.494  1.00  0.00     0.283 C 
HETATM   21  C   UNL     1      55.421  21.997   8.312  1.00  0.00     0.250 C 
HETATM   22  C   UNL     1      50.623  21.530   4.401  1.00  0.00     0.283 C 
HETATM   23  C   UNL     1      52.809  22.878   2.809  1.00  0.00     0.250 C 
HETATM   24  C   UNL     1      55.334  22.042   4.747  1.00  0.00     0.283 C 
HETATM   25  C   UNL     1      48.713  22.206   6.892  1.00  0.00     0.153 C 
HETATM   26  C   UNL     1      55.729  24.368   9.137  1.00  0.00     0.153 C 
HETATM   27  C   UNL     1      54.543  21.696   1.534  1.00  0.00     0.153 C 
ENDROOT
BRANCH  15  28
HETATM   28  C   UNL     1      49.720  21.068   9.935  1.00  0.00     0.016 C 
HETATM   29  C   UNL     1      50.439  19.886  10.585  1.00  0.00     0.012 C 
HETATM   30  C   UNL     1      49.077  21.954  11.001  1.00  0.00     0.012 C 
ENDBRANCH  15  28
BRANCH  14  31
HETATM   31  C   UNL     1      54.120  23.640  11.477  1.00  0.00     0.014 C 
HETATM   32  C   UNL     1      52.687  23.940  11.924  1.00  0.00     0.012 C 
BRANCH  31  33
HETATM   33  C   UNL     1      54.901  22.988  12.631  1.00  0.00     0.002 C 
HETATM   34  C   UNL     1      56.400  23.250  12.577  1.00  0.00     0.005 C 
ENDBRANCH  31  33
ENDBRANCH  14  31
BRANCH  13  35
HETATM   35  C   UNL     1      48.714  19.979   4.978  1.00  0.00     0.014 C 
HETATM   36  C   UNL     1      48.023  20.913   3.981  1.00  0.00     0.012 C 
BRANCH  35  37
HETATM   37  C   UNL     1      48.936  18.600   4.331  1.00  0.00     0.002 C 
HETATM   38  C   UNL     1      47.645  17.898   3.937  1.00  0.00     0.005 C 
ENDBRANCH  35  37
ENDBRANCH  13  35
BRANCH  17  39
HETATM   39  C   UNL     1      57.566  21.959   7.025  1.00  0.00     0.016 C 
HETATM   40  C   UNL     1      57.908  21.262   8.339  1.00  0.00     0.012 C 
HETATM   41  C   UNL     1      58.476  23.166   6.805  1.00  0.00     0.012 C 
ENDBRANCH  17  39
BRANCH  18  42
HETATM   42  C   UNL     1      51.352  24.558   4.036  1.00  0.00     0.016 C 
HETATM   43  C   UNL     1      50.530  24.776   5.307  1.00  0.00     0.012 C 
HETATM   44  C   UNL     1      52.185  25.798   3.719  1.00  0.00     0.012 C 
ENDBRANCH  18  42
BRANCH  16  45
HETATM   45  C   UNL     1      54.913  19.818   3.693  1.00  0.00     0.010 C 
HETATM   46  C   UNL     1      54.166  18.733   4.468  1.00  0.00     0.012 C 
HETATM   47  C   UNL     1      56.403  19.783   4.028  1.00  0.00     0.012 C 
ENDBRANCH  16  45
TORSDOF 8
ENDMDL
MODEL 6
REMARK VINA RESULT:    -5.497      1.684      2.265
REMARK INTER + INTRA:          -7.159
REMARK INTER:                  -8.053
REMARK INTRA:                   0.895
REMARK UNBOUND:                 0.910
REMARK  8 active torsions:
REMARK  status: ('A' for Active; 'I' for Inactive)
REMARK    1  A    between atoms: C_13  and  C_15 
REMARK    2  A    between atoms: C_14  and  C_16 
REMARK    3  A    between atoms: C_15  and  C_22 
REMARK    4  A    between atoms: C_16  and  C_23 
REMARK    5  A    between atoms: C_17  and  C_21 
REMARK    6  A    between atoms: C_18  and  C_24 
REMARK    7  A    between atoms: C_19  and  C_27 
REMARK    8  A    between atoms: C_20  and  C_30 
ROOT
HETATM    1  O   UNL     1      51.402  22.311   9.680  1.00  0.00    -0.304 OA
HETATM    2  O   UNL     1      49.133  24.382   5.937  1.00  0.00    -0.304 OA
HETATM    3  O   UNL     1      53.077  23.869   5.149  1.00  0.00    -0.304 OA
HETATM    4  O   UNL     1      50.481  21.823   7.260  1.00  0.00    -0.270 OA
HETATM    5  O   UNL     1      51.537  24.596   9.386  1.00  0.00    -0.263 OA
HETATM    6  O   UNL     1      53.758  22.235   7.041  1.00  0.00    -0.270 OA
HETATM    7  O   UNL     1      47.381  23.974   4.502  1.00  0.00    -0.263 OA
HETATM    8  O   UNL     1      48.629  26.577   3.325  1.00  0.00    -0.270 OA
HETATM    9  O   UNL     1      52.952  25.840   3.957  1.00  0.00    -0.263 OA
HETATM   10  N   UNL     1      48.311  22.541   7.657  1.00  0.00    -0.340 N 
HETATM   11  N   UNL     1      54.131  24.017   8.480  1.00  0.00    -0.340 N 
HETATM   12  N   UNL     1      50.410  25.110   3.094  1.00  0.00    -0.340 N 
HETATM   13  C   UNL     1      47.926  22.360   6.238  1.00  0.00     0.190 C 
HETATM   14  C   UNL     1      53.563  23.264   9.615  1.00  0.00     0.190 C 
HETATM   15  C   UNL     1      49.968  22.341   9.541  1.00  0.00     0.227 C 
HETATM   16  C   UNL     1      51.302  24.065   3.640  1.00  0.00     0.190 C 
HETATM   17  C   UNL     1      54.137  24.351   6.002  1.00  0.00     0.227 C 
HETATM   18  C   UNL     1      49.476  25.655   5.379  1.00  0.00     0.227 C 
HETATM   19  C   UNL     1      49.617  22.215   8.053  1.00  0.00     0.250 C 
HETATM   20  C   UNL     1      52.061  23.502   9.547  1.00  0.00     0.283 C 
HETATM   21  C   UNL     1      54.020  23.431   7.210  1.00  0.00     0.250 C 
HETATM   22  C   UNL     1      48.066  23.675   5.471  1.00  0.00     0.283 C 
HETATM   23  C   UNL     1      49.450  25.811   3.842  1.00  0.00     0.250 C 
HETATM   24  C   UNL     1      52.533  24.728   4.238  1.00  0.00     0.283 C 
HETATM   25  C   UNL     1      47.298  23.128   8.540  1.00  0.00     0.153 C 
HETATM   26  C   UNL     1      54.638  25.372   8.710  1.00  0.00     0.153 C 
HETATM   27  C   UNL     1      50.536  25.432   1.673  1.00  0.00     0.153 C 
ENDROOT
BRANCH  15  28
HETATM   28  C   UNL     1      49.420  21.147  10.311  1.00  0.00     0.016 C 
HETATM   29  C   UNL     1      50.528  20.134  10.594  1.00  0.00     0.012 C 
HETATM   30  C   UNL     1      48.764  21.600  11.614  1.00  0.00     0.012 C 
ENDBRANCH  15  28
BRANCH  14  31
HETATM   31  C   UNL     1      54.080  23.628  11.000  1.00  0.00     0.014 C 
HETATM   32  C   UNL     1      52.993  23.362  12.044  1.00  0.00     0.012 C 
BRANCH  31  33
HETATM   33  C   UNL     1      55.359  22.854  11.369  1.00  0.00     0.002 C 
HETATM   34  C   UNL     1      56.585  23.743  11.523  1.00  0.00     0.005 C 
ENDBRANCH  31  33
ENDBRANCH  14  31
BRANCH  13  35
HETATM   35  C   UNL     1      46.534  21.754   6.060  1.00  0.00     0.014 C 
HETATM   36  C   UNL     1      45.513  22.866   5.806  1.00  0.00     0.012 C 
BRANCH  35  37
HETATM   37  C   UNL     1      46.483  20.729   4.913  1.00  0.00     0.002 C 
HETATM   38  C   UNL     1      45.455  19.627   5.127  1.00  0.00     0.005 C 
ENDBRANCH  35  37
ENDBRANCH  13  35
BRANCH  17  39
HETATM   39  C   UNL     1      55.482  24.174   5.320  1.00  0.00     0.016 C 
HETATM   40  C   UNL     1      55.631  22.750   4.790  1.00  0.00     0.012 C 
HETATM   41  C   UNL     1      56.620  24.510   6.282  1.00  0.00     0.012 C 
ENDBRANCH  17  39
BRANCH  18  42
HETATM   42  C   UNL     1      48.603  26.708   6.063  1.00  0.00     0.016 C 
HETATM   43  C   UNL     1      48.248  26.275   7.485  1.00  0.00     0.012 C 
HETATM   44  C   UNL     1      49.303  28.065   6.076  1.00  0.00     0.012 C 
ENDBRANCH  18  42
BRANCH  16  45
HETATM   45  C   UNL     1      51.721  22.987   2.643  1.00  0.00     0.010 C 
HETATM   46  C   UNL     1      51.578  21.596   3.259  1.00  0.00     0.012 C 
HETATM   47  C   UNL     1      53.156  23.216   2.169  1.00  0.00     0.012 C 
ENDBRANCH  16  45
TORSDOF 8
ENDMDL
MODEL 7
REMARK VINA RESULT:    -5.463      2.053      8.028
REMARK INTER + INTRA:          -7.108
REMARK INTER:                  -7.346
REMARK INTRA:                   0.238
REMARK UNBOUND:                 0.910
REMARK  8 active torsions:
REMARK  status: ('A' for Active; 'I' for Inactive)
REMARK    1  A    between atoms: C_13  and  C_15 
REMARK    2  A    between atoms: C_14  and  C_16 
REMARK    3  A    between atoms: C_15  and  C_22 
REMARK    4  A    between atoms: C_16  and  C_23 
REMARK    5  A    between atoms: C_17  and  C_21 
REMARK    6  A    between atoms: C_18  and  C_24 
REMARK    7  A    between atoms: C_19  and  C_27 
REMARK    8  A    between atoms: C_20  and  C_30 
ROOT
HETATM    1  O   UNL     1      50.200  21.101   3.663  1.00  0.00    -0.304 OA
HETATM    2  O   UNL     1      53.369  21.816   7.254  1.00  0.00    -0.304 OA
HETATM    3  O   UNL     1      49.595  22.708   8.440  1.00  0.00    -0.304 OA
HETATM    4  O   UNL     1      51.060  20.073   5.931  1.00  0.00    -0.270 OA
HETATM    5  O   UNL     1      50.953  23.236   4.112  1.00  0.00    -0.263 OA
HETATM    6  O   UNL     1      48.204  21.632   6.537  1.00  0.00    -0.270 OA
HETATM    7  O   UNL     1      54.950  20.655   8.458  1.00  0.00    -0.263 OA
HETATM    8  O   UNL     1      54.863  23.403   9.925  1.00  0.00    -0.270 OA
HETATM    9  O   UNL     1      50.544  24.368   9.731  1.00  0.00    -0.263 OA
HETATM   10  N   UNL     1      53.302  19.982   5.342  1.00  0.00    -0.340 N 
HETATM   11  N   UNL     1      48.413  23.560   5.262  1.00  0.00    -0.340 N 
HETATM   12  N   UNL     1      52.688  22.675  10.260  1.00  0.00    -0.340 N 
HETATM   13  C   UNL     1      53.704  19.532   6.696  1.00  0.00     0.190 C 
HETATM   14  C   UNL     1      48.565  22.767   4.026  1.00  0.00     0.190 C 
HETATM   15  C   UNL     1      51.547  20.589   3.645  1.00  0.00     0.227 C 
HETATM   16  C   UNL     1      51.429  22.090   9.753  1.00  0.00     0.190 C 
HETATM   17  C   UNL     1      48.729  23.627   7.741  1.00  0.00     0.227 C 
HETATM   18  C   UNL     1      53.573  23.064   7.925  1.00  0.00     0.227 C 
HETATM   19  C   UNL     1      51.942  20.198   5.073  1.00  0.00     0.250 C 
HETATM   20  C   UNL     1      50.047  22.431   3.942  1.00  0.00     0.283 C 
HETATM   21  C   UNL     1      48.397  22.852   6.472  1.00  0.00     0.250 C 
HETATM   22  C   UNL     1      54.127  20.725   7.554  1.00  0.00     0.283 C 
HETATM   23  C   UNL     1      53.777  23.047   9.456  1.00  0.00     0.250 C 
HETATM   24  C   UNL     1      50.493  23.213   9.336  1.00  0.00     0.283 C 
HETATM   25  C   UNL     1      54.388  20.241   4.391  1.00  0.00     0.153 C 
HETATM   26  C   UNL     1      48.433  25.022   5.174  1.00  0.00     0.153 C 
HETATM   27  C   UNL     1      52.806  22.879  11.704  1.00  0.00     0.153 C 
ENDROOT
BRANCH  15  28
HETATM   28  C   UNL     1      51.544  19.360   2.745  1.00  0.00     0.016 C 
HETATM   29  C   UNL     1      50.240  18.580   2.903  1.00  0.00     0.012 C 
HETATM   30  C   UNL     1      51.756  19.759   1.286  1.00  0.00     0.012 C 
ENDBRANCH  15  28
BRANCH  14  31
HETATM   31  C   UNL     1      48.113  23.431   2.732  1.00  0.00     0.014 C 
HETATM   32  C   UNL     1      48.803  22.762   1.541  1.00  0.00     0.012 C 
BRANCH  31  33
HETATM   33  C   UNL     1      46.586  23.377   2.549  1.00  0.00     0.002 C 
HETATM   34  C   UNL     1      45.943  22.138   3.158  1.00  0.00     0.005 C 
ENDBRANCH  31  33
ENDBRANCH  14  31
BRANCH  13  35
HETATM   35  C   UNL     1      54.777  18.444   6.681  1.00  0.00     0.014 C 
HETATM   36  C   UNL     1      54.915  17.833   8.077  1.00  0.00     0.012 C 
BRANCH  35  37
HETATM   37  C   UNL     1      54.475  17.337   5.655  1.00  0.00     0.002 C 
HETATM   38  C   UNL     1      55.720  16.634   5.134  1.00  0.00     0.005 C 
ENDBRANCH  35  37
ENDBRANCH  13  35
BRANCH  17  39
HETATM   39  C   UNL     1      47.474  23.888   8.555  1.00  0.00     0.016 C 
HETATM   40  C   UNL     1      46.235  23.424   7.794  1.00  0.00     0.012 C 
HETATM   41  C   UNL     1      47.364  25.369   8.910  1.00  0.00     0.012 C 
ENDBRANCH  17  39
BRANCH  18  42
HETATM   42  C   UNL     1      54.719  23.785   7.215  1.00  0.00     0.016 C 
HETATM   43  C   UNL     1      54.677  23.520   5.711  1.00  0.00     0.012 C 
HETATM   44  C   UNL     1      54.668  25.286   7.495  1.00  0.00     0.012 C 
ENDBRANCH  18  42
BRANCH  16  45
HETATM   45  C   UNL     1      50.718  21.147  10.721  1.00  0.00     0.010 C 
HETATM   46  C   UNL     1      50.602  19.745  10.124  1.00  0.00     0.012 C 
HETATM   47  C   UNL     1      49.336  21.687  11.086  1.00  0.00     0.012 C 
ENDBRANCH  16  45
TORSDOF 8
ENDMDL
MODEL 8
REMARK VINA RESULT:    -4.988      2.085      6.201
REMARK INTER + INTRA:          -6.410
REMARK INTER:                  -7.161
REMARK INTRA:                   0.751
REMARK UNBOUND:                 0.910
REMARK  8 active torsions:
REMARK  status: ('A' for Active; 'I' for Inactive)
REMARK    1  A    between atoms: C_13  and  C_15 
REMARK    2  A    between atoms: C_14  and  C_16 
REMARK    3  A    between atoms: C_15  and  C_22 
REMARK    4  A    between atoms: C_16  and  C_23 
REMARK    5  A    between atoms: C_17  and  C_21 
REMARK    6  A    between atoms: C_18  and  C_24 
REMARK    7  A    between atoms: C_19  and  C_27 
REMARK    8  A    between atoms: C_20  and  C_30 
ROOT
HETATM    1  O   UNL     1      52.766  24.043   7.696  1.00  0.00    -0.304 OA
HETATM    2  O   UNL     1      50.060  22.186   4.136  1.00  0.00    -0.304 OA
HETATM    3  O   UNL     1      47.746  23.474   7.206  1.00  0.00    -0.304 OA
HETATM    4  O   UNL     1      51.158  24.716   5.721  1.00  0.00    -0.270 OA
HETATM    5  O   UNL     1      51.974  21.883   7.873  1.00  0.00    -0.263 OA
HETATM    6  O   UNL     1      49.441  24.905   8.545  1.00  0.00    -0.270 OA
HETATM    7  O   UNL     1      49.661  22.495   1.890  1.00  0.00    -0.263 OA
HETATM    8  O   UNL     1      47.543  20.344   2.667  1.00  0.00    -0.270 OA
HETATM    9  O   UNL     1      46.350  21.706   6.710  1.00  0.00    -0.263 OA
HETATM   10  N   UNL     1      52.308  23.588   4.052  1.00  0.00    -0.340 N 
HETATM   11  N   UNL     1      50.164  23.022   9.691  1.00  0.00    -0.340 N 
HETATM   12  N   UNL     1      46.864  22.111   4.006  1.00  0.00    -0.340 N 
HETATM   13  C   UNL     1      51.275  23.906   3.039  1.00  0.00     0.190 C 
HETATM   14  C   UNL     1      51.562  23.493   9.653  1.00  0.00     0.190 C 
HETATM   15  C   UNL     1      53.269  23.790   6.369  1.00  0.00     0.227 C 
HETATM   16  C   UNL     1      47.167  23.201   4.957  1.00  0.00     0.190 C 
HETATM   17  C   UNL     1      47.926  23.060   8.577  1.00  0.00     0.227 C 
HETATM   18  C   UNL     1      49.158  21.086   4.287  1.00  0.00     0.227 C 
HETATM   19  C   UNL     1      52.148  24.071   5.360  1.00  0.00     0.250 C 
HETATM   20  C   UNL     1      52.113  23.015   8.316  1.00  0.00     0.283 C 
HETATM   21  C   UNL     1      49.225  23.760   8.955  1.00  0.00     0.250 C 
HETATM   22  C   UNL     1      50.269  22.761   2.919  1.00  0.00     0.283 C 
HETATM   23  C   UNL     1      47.793  21.154   3.566  1.00  0.00     0.250 C 
HETATM   24  C   UNL     1      47.011  22.677   6.376  1.00  0.00     0.283 C 
HETATM   25  C   UNL     1      53.403  22.714   3.617  1.00  0.00     0.153 C 
HETATM   26  C   UNL     1      49.861  21.754  10.360  1.00  0.00     0.153 C 
HETATM   27  C   UNL     1      45.500  22.025   3.485  1.00  0.00     0.153 C 
ENDROOT
BRANCH  15  28
HETATM   28  C   UNL     1      54.431  24.748   6.142  1.00  0.00     0.016 C 
HETATM   29  C   UNL     1      54.371  25.912   7.129  1.00  0.00     0.012 C 
HETATM   30  C   UNL     1      55.765  24.014   6.261  1.00  0.00     0.012 C 
ENDBRANCH  15  28
BRANCH  14  31
HETATM   31  C   UNL     1      52.470  23.024  10.782  1.00  0.00     0.014 C 
HETATM   32  C   UNL     1      53.903  22.875  10.265  1.00  0.00     0.012 C 
BRANCH  31  33
HETATM   33  C   UNL     1      52.446  23.980  11.987  1.00  0.00     0.002 C 
HETATM   34  C   UNL     1      51.106  24.017  12.709  1.00  0.00     0.005 C 
ENDBRANCH  31  33
ENDBRANCH  14  31
BRANCH  13  35
HETATM   35  C   UNL     1      51.857  24.286   1.677  1.00  0.00     0.014 C 
HETATM   36  C   UNL     1      51.881  23.058   0.763  1.00  0.00     0.012 C 
BRANCH  35  37
HETATM   37  C   UNL     1      51.071  25.423   1.000  1.00  0.00     0.002 C 
HETATM   38  C   UNL     1      50.738  26.575   1.936  1.00  0.00     0.005 C 
ENDBRANCH  35  37
ENDBRANCH  13  35
BRANCH  17  39
HETATM   39  C   UNL     1      46.777  23.561   9.432  1.00  0.00     0.016 C 
HETATM   40  C   UNL     1      47.252  24.659  10.380  1.00  0.00     0.012 C 
HETATM   41  C   UNL     1      46.148  22.410  10.215  1.00  0.00     0.012 C 
ENDBRANCH  17  39
BRANCH  18  42
HETATM   42  C   UNL     1      49.920  19.811   3.923  1.00  0.00     0.016 C 
HETATM   43  C   UNL     1      51.366  19.888   4.412  1.00  0.00     0.012 C 
HETATM   44  C   UNL     1      49.224  18.581   4.502  1.00  0.00     0.012 C 
ENDBRANCH  18  42
BRANCH  16  45
HETATM   45  C   UNL     1      46.335  24.469   4.773  1.00  0.00     0.010 C 
HETATM   46  C   UNL     1      47.240  25.692   4.629  1.00  0.00     0.012 C 
HETATM   47  C   UNL     1      45.367  24.655   5.941  1.00  0.00     0.012 C 
ENDBRANCH  16  45
TORSDOF 8
ENDMDL
MODEL 9
REMARK VINA RESULT:    -4.896      1.991      6.882
REMARK INTER + INTRA:          -6.276
REMARK INTER:                  -6.938
REMARK INTRA:                   0.662
REMARK UNBOUND:                 0.910
REMARK  8 active torsions:
REMARK  status: ('A' for Active; 'I' for Inactive)
REMARK    1  A    between atoms: C_13  and  C_15 
REMARK    2  A    between atoms: C_14  and  C_16 
REMARK    3  A    between atoms: C_15  and  C_22 
REMARK    4  A    between atoms: C_16  and  C_23 
REMARK    5  A    between atoms: C_17  and  C_21 
REMARK    6  A    between atoms: C_18  and  C_24 
REMARK    7  A    between atoms: C_19  and  C_27 
REMARK    8  A    between atoms: C_20  and  C_30 
ROOT
HETATM    1  O   UNL     1      52.772  19.723   6.000  1.00  0.00    -0.304 OA
HETATM    2  O   UNL     1      50.501  23.947   6.673  1.00  0.00    -0.304 OA
HETATM    3  O   UNL     1      48.171  21.350   4.606  1.00  0.00    -0.304 OA
HETATM    4  O   UNL     1      50.870  20.875   7.412  1.00  0.00    -0.270 OA
HETATM    5  O   UNL     1      52.726  21.279   4.296  1.00  0.00    -0.263 OA
HETATM    6  O   UNL     1      49.432  19.121   5.001  1.00  0.00    -0.270 OA
HETATM    7  O   UNL     1      49.832  25.327   8.389  1.00  0.00    -0.263 OA
HETATM    8  O   UNL     1      48.582  26.701   5.886  1.00  0.00    -0.270 OA
HETATM    9  O   UNL     1      47.371  23.191   3.469  1.00  0.00    -0.263 OA
HETATM   10  N   UNL     1      52.171  22.609   8.238  1.00  0.00    -0.340 N 
HETATM   11  N   UNL     1      50.811  19.551   3.186  1.00  0.00    -0.340 N 
HETATM   12  N   UNL     1      47.496  24.654   5.833  1.00  0.00    -0.340 N 
HETATM   13  C   UNL     1      51.006  23.256   8.888  1.00  0.00     0.190 C 
HETATM   14  C   UNL     1      51.978  18.995   3.898  1.00  0.00     0.190 C 
HETATM   15  C   UNL     1      53.213  20.718   6.946  1.00  0.00     0.227 C 
HETATM   16  C   UNL     1      47.516  23.178   5.909  1.00  0.00     0.190 C 
HETATM   17  C   UNL     1      48.590  20.679   3.399  1.00  0.00     0.227 C 
HETATM   18  C   UNL     1      50.011  24.785   5.622  1.00  0.00     0.227 C 
HETATM   19  C   UNL     1      51.979  21.404   7.545  1.00  0.00     0.250 C 
HETATM   20  C   UNL     1      52.536  20.147   4.722  1.00  0.00     0.283 C 
HETATM   21  C   UNL     1      49.627  19.694   3.923  1.00  0.00     0.250 C 
HETATM   22  C   UNL     1      50.410  24.329   7.977  1.00  0.00     0.283 C 
HETATM   23  C   UNL     1      48.639  25.469   5.810  1.00  0.00     0.250 C 
HETATM   24  C   UNL     1      47.658  22.611   4.506  1.00  0.00     0.283 C 
HETATM   25  C   UNL     1      53.444  23.333   8.310  1.00  0.00     0.153 C 
HETATM   26  C   UNL     1      50.985  20.050   1.819  1.00  0.00     0.153 C 
HETATM   27  C   UNL     1      46.189  25.311   5.780  1.00  0.00     0.153 C 
ENDROOT
BRANCH  15  28
HETATM   28  C   UNL     1      53.986  19.986   8.035  1.00  0.00     0.016 C 
HETATM   29  C   UNL     1      53.926  18.475   7.816  1.00  0.00     0.012 C 
HETATM   30  C   UNL     1      55.437  20.462   8.079  1.00  0.00     0.012 C 
ENDBRANCH  15  28
BRANCH  14  31
HETATM   31  C   UNL     1      53.082  18.399   3.034  1.00  0.00     0.014 C 
HETATM   32  C   UNL     1      54.401  18.395   3.811  1.00  0.00     0.012 C 
BRANCH  31  33
HETATM   33  C   UNL     1      52.749  16.973   2.562  1.00  0.00     0.002 C 
HETATM   34  C   UNL     1      53.315  15.885   3.464  1.00  0.00     0.005 C 
ENDBRANCH  31  33
ENDBRANCH  14  31
BRANCH  13  35
HETATM   35  C   UNL     1      51.318  23.810  10.277  1.00  0.00     0.014 C 
HETATM   36  C   UNL     1      50.051  23.798  11.137  1.00  0.00     0.012 C 
BRANCH  35  37
HETATM   37  C   UNL     1      52.435  23.023  10.987  1.00  0.00     0.002 C 
HETATM   38  C   UNL     1      53.162  23.827  12.055  1.00  0.00     0.005 C 
ENDBRANCH  35  37
ENDBRANCH  13  35
BRANCH  17  39
HETATM   39  C   UNL     1      47.419  19.944   2.773  1.00  0.00     0.016 C 
HETATM   40  C   UNL     1      47.666  18.437   2.779  1.00  0.00     0.012 C 
HETATM   41  C   UNL     1      47.171  20.442   1.350  1.00  0.00     0.012 C 
ENDBRANCH  17  39
BRANCH  18  42
HETATM   42  C   UNL     1      51.104  25.804   5.298  1.00  0.00     0.016 C 
HETATM   43  C   UNL     1      52.490  25.177   5.452  1.00  0.00     0.012 C 
HETATM   44  C   UNL     1      50.923  26.361   3.887  1.00  0.00     0.012 C 
ENDBRANCH  18  42
BRANCH  16  45
HETATM   45  C   UNL     1      46.313  22.549   6.608  1.00  0.00     0.010 C 
HETATM   46  C   UNL     1      46.579  22.390   8.105  1.00  0.00     0.012 C 
HETATM   47  C   UNL     1      45.967  21.200   5.981  1.00  0.00     0.012 C 
ENDBRANCH  16  45
TORSDOF 8
ENDMDL
MODEL 10
REMARK VINA RESULT:    -4.875      2.187      6.528
REMARK INTER + INTRA:          -6.246
REMARK INTER:                  -7.404
REMARK INTRA:                   1.158
REMARK UNBOUND:                 0.910
REMARK  8 active torsions:
REMARK  status: ('A' for Active; 'I' for Inactive)
REMARK    1  A    between atoms: C_13  and  C_15 
REMARK    2  A    between atoms: C_14  and  C_16 
REMARK    3  A    between atoms: C_15  and  C_22 
REMARK    4  A    between atoms: C_16  and  C_23 
REMARK    5  A    between atoms: C_17  and  C_21 
REMARK    6  A    between atoms: C_18  and  C_24 
REMARK    7  A    between atoms: C_19  and  C_27 
REMARK    8  A    between atoms: C_20  and  C_30 
ROOT
HETATM    1  O   UNL     1      51.636  22.103   7.372  1.00  0.00    -0.304 OA
HETATM    2  O   UNL     1      48.216  21.762   3.961  1.00  0.00    -0.304 OA
HETATM    3  O   UNL     1      47.384  24.755   6.566  1.00  0.00    -0.304 OA
HETATM    4  O   UNL     1      50.738  23.265   5.184  1.00  0.00    -0.270 OA
HETATM    5  O   UNL     1      49.660  21.008   7.843  1.00  0.00    -0.263 OA
HETATM    6  O   UNL     1      49.658  25.008   7.783  1.00  0.00    -0.270 OA
HETATM    7  O   UNL     1      48.007  21.837   1.670  1.00  0.00    -0.263 OA
HETATM    8  O   UNL     1      45.041  21.696   2.617  1.00  0.00    -0.270 OA
HETATM    9  O   UNL     1      45.162  24.215   6.260  1.00  0.00    -0.263 OA
HETATM   10  N   UNL     1      50.836  21.384   3.831  1.00  0.00    -0.340 N 
HETATM   11  N   UNL     1      49.067  23.342   9.286  1.00  0.00    -0.340 N 
HETATM   12  N   UNL     1      45.699  23.701   3.579  1.00  0.00    -0.340 N 
HETATM   13  C   UNL     1      50.198  22.091   2.696  1.00  0.00     0.190 C 
HETATM   14  C   UNL     1      50.443  22.807   9.286  1.00  0.00     0.190 C 
HETATM   15  C   UNL     1      51.805  21.353   6.153  1.00  0.00     0.227 C 
HETATM   16  C   UNL     1      46.666  24.505   4.355  1.00  0.00     0.190 C 
HETATM   17  C   UNL     1      47.318  24.580   7.998  1.00  0.00     0.227 C 
HETATM   18  C   UNL     1      46.827  21.531   4.219  1.00  0.00     0.227 C 
HETATM   19  C   UNL     1      51.076  22.087   5.021  1.00  0.00     0.250 C 
HETATM   20  C   UNL     1      50.506  21.854   8.099  1.00  0.00     0.283 C 
HETATM   21  C   UNL     1      48.781  24.356   8.360  1.00  0.00     0.250 C 
HETATM   22  C   UNL     1      48.690  21.841   2.686  1.00  0.00     0.283 C 
HETATM   23  C   UNL     1      45.788  22.313   3.385  1.00  0.00     0.250 C 
HETATM   24  C   UNL     1      46.275  24.468   5.824  1.00  0.00     0.283 C 
HETATM   25  C   UNL     1      51.105  19.954   3.642  1.00  0.00     0.153 C 
HETATM   26  C   UNL     1      48.057  22.701  10.130  1.00  0.00     0.153 C 
HETATM   27  C   UNL     1      44.570  24.403   2.968  1.00  0.00     0.153 C 
ENDROOT
BRANCH  15  28
HETATM   28  C   UNL     1      53.299  21.299   5.866  1.00  0.00     0.016 C 
HETATM   29  C   UNL     1      53.873  22.708   5.729  1.00  0.00     0.012 C 
HETATM   30  C   UNL     1      54.032  20.527   6.963  1.00  0.00     0.012 C 
ENDBRANCH  15  28
BRANCH  14  31
HETATM   31  C   UNL     1      50.893  22.086  10.549  1.00  0.00     0.014 C 
HETATM   32  C   UNL     1      51.063  20.593  10.260  1.00  0.00     0.012 C 
BRANCH  31  33
HETATM   33  C   UNL     1      52.203  22.661  11.115  1.00  0.00     0.002 C 
HETATM   34  C   UNL     1      51.999  23.874  12.013  1.00  0.00     0.005 C 
ENDBRANCH  31  33
ENDBRANCH  14  31
BRANCH  13  35
HETATM   35  C   UNL     1      50.829  21.761   1.343  1.00  0.00     0.014 C 
HETATM   36  C   UNL     1      50.001  20.686   0.634  1.00  0.00     0.012 C 
BRANCH  35  37
HETATM   37  C   UNL     1      50.959  22.999   0.438  1.00  0.00     0.002 C 
HETATM   38  C   UNL     1      51.041  24.309   1.207  1.00  0.00     0.005 C 
ENDBRANCH  35  37
ENDBRANCH  13  35
BRANCH  17  39
HETATM   39  C   UNL     1      46.788  25.841   8.657  1.00  0.00     0.016 C 
HETATM   40  C   UNL     1      47.419  27.081   8.029  1.00  0.00     0.012 C 
HETATM   41  C   UNL     1      47.049  25.809  10.162  1.00  0.00     0.012 C 
ENDBRANCH  17  39
BRANCH  18  42
HETATM   42  C   UNL     1      46.589  20.023   4.139  1.00  0.00     0.016 C 
HETATM   43  C   UNL     1      47.871  19.255   4.460  1.00  0.00     0.012 C 
HETATM   44  C   UNL     1      45.464  19.604   5.084  1.00  0.00     0.012 C 
ENDBRANCH  18  42
BRANCH  16  45
HETATM   45  C   UNL     1      46.823  25.952   3.892  1.00  0.00     0.010 C 
HETATM   46  C   UNL     1      48.296  26.358   3.881  1.00  0.00     0.012 C 
HETATM   47  C   UNL     1      46.016  26.896   4.782  1.00  0.00     0.012 C 
ENDBRANCH  16  45
TORSDOF 8
ENDMDL
MODEL 11
REMARK VINA RESULT:    -4.758      2.246      6.305
REMARK INTER + INTRA:          -6.073
REMARK INTER:                  -6.598
REMARK INTRA:                   0.525
REMARK UNBOUND:                 0.910
REMARK  8 active torsions:
REMARK  status: ('A' for Active; 'I' for Inactive)
REMARK    1  A    between atoms: C_13  and  C_15 
REMARK    2  A    between atoms: C_14  and  C_16 
REMARK    3  A    between atoms: C_15  and  C_22 
REMARK    4  A    between atoms: C_16  and  C_23 
REMARK    5  A    between atoms: C_17  and  C_21 
REMARK    6  A    between atoms: C_18  and  C_24 
REMARK    7  A    between atoms: C_19  and  C_27 
REMARK    8  A    between atoms: C_20  and  C_30 
ROOT
HETATM    1  O   UNL     1      51.804  21.875   7.975  1.00  0.00    -0.304 OA
HETATM    2  O   UNL     1      49.402  21.688   3.775  1.00  0.00    -0.304 OA
HETATM    3  O   UNL     1      48.678  25.174   5.715  1.00  0.00    -0.304 OA
HETATM    4  O   UNL     1      51.810  22.821   5.517  1.00  0.00    -0.270 OA
HETATM    5  O   UNL     1      49.569  21.300   7.964  1.00  0.00    -0.263 OA
HETATM    6  O   UNL     1      50.553  25.151   7.504  1.00  0.00    -0.270 OA
HETATM    7  O   UNL     1      49.815  21.427   1.526  1.00  0.00    -0.263 OA
HETATM    8  O   UNL     1      46.763  22.055   1.587  1.00  0.00    -0.270 OA
HETATM    9  O   UNL     1      46.548  25.058   4.837  1.00  0.00    -0.263 OA
HETATM   10  N   UNL     1      51.794  20.764   4.445  1.00  0.00    -0.340 N 
HETATM   11  N   UNL     1      49.209  23.911   8.932  1.00  0.00    -0.340 N 
HETATM   12  N   UNL     1      47.617  24.012   2.491  1.00  0.00    -0.340 N 
HETATM   13  C   UNL     1      51.662  21.391   3.109  1.00  0.00     0.190 C 
HETATM   14  C   UNL     1      50.366  23.112   9.383  1.00  0.00     0.190 C 
HETATM   15  C   UNL     1      52.094  20.916   6.939  1.00  0.00     0.227 C 
HETATM   16  C   UNL     1      48.516  24.717   3.428  1.00  0.00     0.190 C 
HETATM   17  C   UNL     1      48.206  25.253   7.077  1.00  0.00     0.227 C 
HETATM   18  C   UNL     1      47.981  21.792   3.644  1.00  0.00     0.227 C 
HETATM   19  C   UNL     1      51.882  21.589   5.577  1.00  0.00     0.250 C 
HETATM   20  C   UNL     1      50.499  21.985   8.367  1.00  0.00     0.283 C 
HETATM   21  C   UNL     1      49.425  24.796   7.867  1.00  0.00     0.250 C 
HETATM   22  C   UNL     1      50.193  21.458   2.690  1.00  0.00     0.283 C 
HETATM   23  C   UNL     1      47.413  22.623   2.471  1.00  0.00     0.250 C 
HETATM   24  C   UNL     1      47.763  25.002   4.717  1.00  0.00     0.283 C 
HETATM   25  C   UNL     1      51.748  19.299   4.487  1.00  0.00     0.153 C 
HETATM   26  C   UNL     1      47.890  23.638   9.510  1.00  0.00     0.153 C 
HETATM   27  C   UNL     1      46.889  24.821   1.513  1.00  0.00     0.153 C 
ENDROOT
BRANCH  15  28
HETATM   28  C   UNL     1      53.553  20.511   7.102  1.00  0.00     0.016 C 
HETATM   29  C   UNL     1      54.328  21.581   7.869  1.00  0.00     0.012 C 
HETATM   30  C   UNL     1      53.662  19.161   7.811  1.00  0.00     0.012 C 
ENDBRANCH  15  28
BRANCH  14  31
HETATM   31  C   UNL     1      50.286  22.532  10.788  1.00  0.00     0.014 C 
HETATM   32  C   UNL     1      51.158  21.277  10.879  1.00  0.00     0.012 C 
BRANCH  31  33
HETATM   33  C   UNL     1      50.715  23.545  11.864  1.00  0.00     0.002 C 
HETATM   34  C   UNL     1      49.668  23.763  12.948  1.00  0.00     0.005 C 
ENDBRANCH  31  33
ENDBRANCH  14  31
BRANCH  13  35
HETATM   35  C   UNL     1      52.520  20.721   2.037  1.00  0.00     0.014 C 
HETATM   36  C   UNL     1      52.612  21.627   0.806  1.00  0.00     0.012 C 
BRANCH  35  37
HETATM   37  C   UNL     1      53.934  20.385   2.542  1.00  0.00     0.002 C 
HETATM   38  C   UNL     1      54.508  19.109   1.943  1.00  0.00     0.005 C 
ENDBRANCH  35  37
ENDBRANCH  13  35
BRANCH  17  39
HETATM   39  C   UNL     1      47.846  26.686   7.426  1.00  0.00     0.016 C 
HETATM   40  C   UNL     1      46.336  26.897   7.336  1.00  0.00     0.012 C 
HETATM   41  C   UNL     1      48.580  27.662   6.508  1.00  0.00     0.012 C 
ENDBRANCH  17  39
BRANCH  18  42
HETATM   42  C   UNL     1      47.412  20.373   3.651  1.00  0.00     0.016 C 
HETATM   43  C   UNL     1      48.289  19.443   4.490  1.00  0.00     0.012 C 
HETATM   44  C   UNL     1      45.976  20.369   4.172  1.00  0.00     0.012 C 
ENDBRANCH  18  42
BRANCH  16  45
HETATM   45  C   UNL     1      49.134  26.005   2.887  1.00  0.00     0.010 C 
HETATM   46  C   UNL     1      50.549  26.195   3.430  1.00  0.00     0.012 C 
HETATM   47  C   UNL     1      48.262  27.211   3.234  1.00  0.00     0.012 C 
ENDBRANCH  16  45
TORSDOF 8
ENDMDL
MODEL 12
REMARK VINA RESULT:    -4.668      2.108      6.502
REMARK INTER + INTRA:          -5.942
REMARK INTER:                  -6.162
REMARK INTRA:                   0.221
REMARK UNBOUND:                 0.910
REMARK  8 active torsions:
REMARK  status: ('A' for Active; 'I' for Inactive)
REMARK    1  A    between atoms: C_13  and  C_15 
REMARK    2  A    between atoms: C_14  and  C_16 
REMARK    3  A    between atoms: C_15  and  C_22 
REMARK    4  A    between atoms: C_16  and  C_23 
REMARK    5  A    between atoms: C_17  and  C_21 
REMARK    6  A    between atoms: C_18  and  C_24 
REMARK    7  A    between atoms: C_19  and  C_27 
REMARK    8  A    between atoms: C_20  and  C_30 
ROOT
HETATM    1  O   UNL     1      49.700  22.752   9.172  1.00  0.00    -0.304 OA
HETATM    2  O   UNL     1      51.665  22.182   4.783  1.00  0.00    -0.304 OA
HETATM    3  O   UNL     1      49.818  25.778   5.098  1.00  0.00    -0.304 OA
HETATM    4  O   UNL     1      51.727  23.515   7.671  1.00  0.00    -0.270 OA
HETATM    5  O   UNL     1      48.368  22.110   7.400  1.00  0.00    -0.263 OA
HETATM    6  O   UNL     1      49.479  25.944   7.661  1.00  0.00    -0.270 OA
HETATM    7  O   UNL     1      53.713  21.769   3.816  1.00  0.00    -0.263 OA
HETATM    8  O   UNL     1      51.891  22.305   1.344  1.00  0.00    -0.270 OA
HETATM    9  O   UNL     1      49.266  25.531   2.871  1.00  0.00    -0.263 OA
HETATM   10  N   UNL     1      52.496  21.384   7.170  1.00  0.00    -0.340 N 
HETATM   11  N   UNL     1      47.483  24.772   7.498  1.00  0.00    -0.340 N 
HETATM   12  N   UNL     1      51.746  24.348   2.430  1.00  0.00    -0.340 N 
HETATM   13  C   UNL     1      53.522  21.907   6.237  1.00  0.00     0.190 C 
HETATM   14  C   UNL     1      47.768  24.046   8.751  1.00  0.00     0.190 C 
HETATM   15  C   UNL     1      50.668  21.729   8.864  1.00  0.00     0.227 C 
HETATM   16  C   UNL     1      51.549  25.148   3.657  1.00  0.00     0.190 C 
HETATM   17  C   UNL     1      48.444  25.943   5.509  1.00  0.00     0.227 C 
HETATM   18  C   UNL     1      50.938  22.232   3.551  1.00  0.00     0.227 C 
HETATM   19  C   UNL     1      51.669  22.293   7.849  1.00  0.00     0.250 C 
HETATM   20  C   UNL     1      48.619  22.851   8.340  1.00  0.00     0.283 C 
HETATM   21  C   UNL     1      48.507  25.583   6.988  1.00  0.00     0.250 C 
HETATM   22  C   UNL     1      52.997  21.897   4.801  1.00  0.00     0.283 C 
HETATM   23  C   UNL     1      51.584  22.956   2.349  1.00  0.00     0.250 C 
HETATM   24  C   UNL     1      50.076  25.504   3.785  1.00  0.00     0.283 C 
HETATM   25  C   UNL     1      52.375  19.925   7.257  1.00  0.00     0.153 C 
HETATM   26  C   UNL     1      46.229  24.502   6.791  1.00  0.00     0.153 C 
HETATM   27  C   UNL     1      52.140  25.060   1.214  1.00  0.00     0.153 C 
ENDROOT
BRANCH  15  28
HETATM   28  C   UNL     1      51.379  21.382  10.165  1.00  0.00     0.016 C 
HETATM   29  C   UNL     1      51.349  22.567  11.129  1.00  0.00     0.012 C 
HETATM   30  C   UNL     1      50.748  20.150  10.812  1.00  0.00     0.012 C 
ENDBRANCH  15  28
BRANCH  14  31
HETATM   31  C   UNL     1      46.563  23.568   9.550  1.00  0.00     0.014 C 
HETATM   32  C   UNL     1      46.822  22.156  10.081  1.00  0.00     0.012 C 
BRANCH  31  33
HETATM   33  C   UNL     1      46.226  24.512  10.718  1.00  0.00     0.002 C 
HETATM   34  C   UNL     1      47.298  25.559  10.985  1.00  0.00     0.005 C 
ENDBRANCH  31  33
ENDBRANCH  14  31
BRANCH  13  35
HETATM   35  C   UNL     1      54.865  21.186   6.347  1.00  0.00     0.014 C 
HETATM   36  C   UNL     1      55.974  22.064   5.759  1.00  0.00     0.012 C 
BRANCH  35  37
HETATM   37  C   UNL     1      55.214  20.811   7.799  1.00  0.00     0.002 C 
HETATM   38  C   UNL     1      55.627  22.001   8.653  1.00  0.00     0.005 C 
ENDBRANCH  35  37
ENDBRANCH  13  35
BRANCH  17  39
HETATM   39  C   UNL     1      48.010  27.385   5.324  1.00  0.00     0.016 C 
HETATM   40  C   UNL     1      47.687  28.025   6.672  1.00  0.00     0.012 C 
HETATM   41  C   UNL     1      46.806  27.468   4.388  1.00  0.00     0.012 C 
ENDBRANCH  17  39
BRANCH  18  42
HETATM   42  C   UNL     1      50.538  20.800   3.194  1.00  0.00     0.016 C 
HETATM   43  C   UNL     1      50.200  20.003   4.453  1.00  0.00     0.012 C 
HETATM   44  C   UNL     1      49.358  20.795   2.224  1.00  0.00     0.012 C 
ENDBRANCH  18  42
BRANCH  16  45
HETATM   45  C   UNL     1      52.403  26.411   3.750  1.00  0.00     0.010 C 
HETATM   46  C   UNL     1      53.212  26.422   5.047  1.00  0.00     0.012 C 
HETATM   47  C   UNL     1      51.531  27.662   3.654  1.00  0.00     0.012 C 
ENDBRANCH  16  45
TORSDOF 8
ENDMDL
MODEL 13
REMARK VINA RESULT:    -4.615      2.152      7.124
REMARK INTER + INTRA:          -5.863
REMARK INTER:                  -6.774
REMARK INTRA:                   0.911
REMARK UNBOUND:                 0.910
REMARK  8 active torsions:
REMARK  status: ('A' for Active; 'I' for Inactive)
REMARK    1  A    between atoms: C_13  and  C_15 
REMARK    2  A    between atoms: C_14  and  C_16 
REMARK    3  A    between atoms: C_15  and  C_22 
REMARK    4  A    between atoms: C_16  and  C_23 
REMARK    5  A    between atoms: C_17  and  C_21 
REMARK    6  A    between atoms: C_18  and  C_24 
REMARK    7  A    between atoms: C_19  and  C_27 
REMARK    8  A    between atoms: C_20  and  C_30 
ROOT
HETATM    1  O   UNL     1      53.680  18.776   6.066  1.00  0.00    -0.304 OA
HETATM    2  O   UNL     1      52.583  23.430   6.836  1.00  0.00    -0.304 OA
HETATM    3  O   UNL     1      49.504  21.480   5.059  1.00  0.00    -0.304 OA
HETATM    4  O   UNL     1      52.260  20.363   7.617  1.00  0.00    -0.270 OA
HETATM    5  O   UNL     1      53.853  20.291   4.334  1.00  0.00    -0.263 OA
HETATM    6  O   UNL     1      50.215  19.011   5.394  1.00  0.00    -0.270 OA
HETATM    7  O   UNL     1      52.439  24.936   8.570  1.00  0.00    -0.263 OA
HETATM    8  O   UNL     1      51.330  26.569   6.158  1.00  0.00    -0.270 OA
HETATM    9  O   UNL     1      49.074  23.458   3.953  1.00  0.00    -0.263 OA
HETATM   10  N   UNL     1      54.018  21.727   8.274  1.00  0.00    -0.340 N 
HETATM   11  N   UNL     1      51.478  19.084   3.449  1.00  0.00    -0.340 N 
HETATM   12  N   UNL     1      49.776  24.851   6.258  1.00  0.00    -0.340 N 
HETATM   13  C   UNL     1      53.114  22.641   9.012  1.00  0.00     0.190 C 
HETATM   14  C   UNL     1      52.536  18.260   4.065  1.00  0.00     0.190 C 
HETATM   15  C   UNL     1      54.438  19.635   6.942  1.00  0.00     0.227 C 
HETATM   16  C   UNL     1      49.443  23.416   6.369  1.00  0.00     0.190 C 
HETATM   17  C   UNL     1      49.630  20.723   3.836  1.00  0.00     0.227 C 
HETATM   18  C   UNL     1      52.215  24.360   5.813  1.00  0.00     0.227 C 
HETATM   19  C   UNL     1      53.473  20.604   7.633  1.00  0.00     0.250 C 
HETATM   20  C   UNL     1      53.434  19.242   4.805  1.00  0.00     0.283 C 
HETATM   21  C   UNL     1      50.440  19.516   4.288  1.00  0.00     0.250 C 
HETATM   22  C   UNL     1      52.714  23.826   8.132  1.00  0.00     0.283 C 
HETATM   23  C   UNL     1      51.076  25.361   6.109  1.00  0.00     0.250 C 
HETATM   24  C   UNL     1      49.308  22.828   4.974  1.00  0.00     0.283 C 
HETATM   25  C   UNL     1      55.430  22.116   8.210  1.00  0.00     0.153 C 
HETATM   26  C   UNL     1      51.637  19.522   2.060  1.00  0.00     0.153 C 
HETATM   27  C   UNL     1      48.671  25.808   6.307  1.00  0.00     0.153 C 
ENDROOT
BRANCH  15  28
HETATM   28  C   UNL     1      55.110  18.738   7.973  1.00  0.00     0.016 C 
HETATM   29  C   UNL     1      54.686  17.283   7.780  1.00  0.00     0.012 C 
HETATM   30  C   UNL     1      56.630  18.867   7.893  1.00  0.00     0.012 C 
ENDBRANCH  15  28
BRANCH  14  31
HETATM   31  C   UNL     1      53.373  17.410   3.119  1.00  0.00     0.014 C 
HETATM   32  C   UNL     1      54.760  17.177   3.723  1.00  0.00     0.012 C 
BRANCH  31  33
HETATM   33  C   UNL     1      52.708  16.058   2.804  1.00  0.00     0.002 C 
HETATM   34  C   UNL     1      52.651  15.114   3.997  1.00  0.00     0.005 C 
ENDBRANCH  31  33
ENDBRANCH  14  31
BRANCH  13  35
HETATM   35  C   UNL     1      53.682  23.105  10.352  1.00  0.00     0.014 C 
HETATM   36  C   UNL     1      54.369  24.463  10.182  1.00  0.00     0.012 C 
BRANCH  35  37
HETATM   37  C   UNL     1      52.603  23.202  11.446  1.00  0.00     0.002 C 
HETATM   38  C   UNL     1      51.317  22.468  11.098  1.00  0.00     0.005 C 
ENDBRANCH  35  37
ENDBRANCH  13  35
BRANCH  17  39
HETATM   39  C   UNL     1      48.261  20.297   3.339  1.00  0.00     0.016 C 
HETATM   40  C   UNL     1      47.660  19.239   4.262  1.00  0.00     0.012 C 
HETATM   41  C   UNL     1      48.348  19.772   1.908  1.00  0.00     0.012 C 
ENDBRANCH  17  39
BRANCH  18  42
HETATM   42  C   UNL     1      53.488  25.079   5.364  1.00  0.00     0.016 C 
HETATM   43  C   UNL     1      54.686  24.130   5.402  1.00  0.00     0.012 C 
HETATM   44  C   UNL     1      53.313  25.663   3.964  1.00  0.00     0.012 C 
ENDBRANCH  18  42
BRANCH  16  45
HETATM   45  C   UNL     1      48.195  23.103   7.192  1.00  0.00     0.010 C 
HETATM   46  C   UNL     1      48.554  22.280   8.428  1.00  0.00     0.012 C 
HETATM   47  C   UNL     1      47.158  22.368   6.344  1.00  0.00     0.012 C 
ENDBRANCH  16  45
TORSDOF 8
ENDMDL
MODEL 14
REMARK VINA RESULT:    -4.547      2.250      5.582
REMARK INTER + INTRA:          -5.763
REMARK INTER:                  -6.463
REMARK INTRA:                   0.700
REMARK UNBOUND:                 0.910
REMARK  8 active torsions:
REMARK  status: ('A' for Active; 'I' for Inactive)
REMARK    1  A    between atoms: C_13  and  C_15 
REMARK    2  A    between atoms: C_14  and  C_16 
REMARK    3  A    between atoms: C_15  and  C_22 
REMARK    4  A    between atoms: C_16  and  C_23 
REMARK    5  A    between atoms: C_17  and  C_21 
REMARK    6  A    between atoms: C_18  and  C_24 
REMARK    7  A    between atoms: C_19  and  C_27 
REMARK    8  A    between atoms: C_20  and  C_30 
ROOT
HETATM    1  O   UNL     1      51.849  21.329   6.955  1.00  0.00    -0.304 OA
HETATM    2  O   UNL     1      47.881  23.929   5.983  1.00  0.00    -0.304 OA
HETATM    3  O   UNL     1      48.445  21.032   3.202  1.00  0.00    -0.304 OA
HETATM    4  O   UNL     1      49.218  21.243   7.042  1.00  0.00    -0.270 OA
HETATM    5  O   UNL     1      51.943  23.008   5.373  1.00  0.00    -0.263 OA
HETATM    6  O   UNL     1      50.208  19.543   4.380  1.00  0.00    -0.270 OA
HETATM    7  O   UNL     1      45.885  24.521   6.965  1.00  0.00    -0.263 OA
HETATM    8  O   UNL     1      45.591  25.672   4.084  1.00  0.00    -0.270 OA
HETATM    9  O   UNL     1      47.572  22.525   1.675  1.00  0.00    -0.263 OA
HETATM   10  N   UNL     1      48.935  23.174   8.295  1.00  0.00    -0.340 N 
HETATM   11  N   UNL     1      51.920  20.871   3.552  1.00  0.00    -0.340 N 
HETATM   12  N   UNL     1      45.789  23.409   3.619  1.00  0.00    -0.340 N 
HETATM   13  C   UNL     1      47.459  23.112   8.173  1.00  0.00     0.190 C 
HETATM   14  C   UNL     1      52.671  20.751   4.817  1.00  0.00     0.190 C 
HETATM   15  C   UNL     1      51.227  22.213   7.909  1.00  0.00     0.227 C 
HETATM   16  C   UNL     1      46.458  22.105   3.809  1.00  0.00     0.190 C 
HETATM   17  C   UNL     1      49.671  20.858   2.460  1.00  0.00     0.227 C 
HETATM   18  C   UNL     1      47.660  24.657   4.771  1.00  0.00     0.227 C 
HETATM   19  C   UNL     1      49.709  22.165   7.703  1.00  0.00     0.250 C 
HETATM   20  C   UNL     1      52.121  21.847   5.719  1.00  0.00     0.283 C 
HETATM   21  C   UNL     1      50.622  20.340   3.531  1.00  0.00     0.250 C 
HETATM   22  C   UNL     1      46.980  23.974   7.004  1.00  0.00     0.283 C 
HETATM   23  C   UNL     1      46.248  24.627   4.146  1.00  0.00     0.250 C 
HETATM   24  C   UNL     1      47.532  21.939   2.746  1.00  0.00     0.283 C 
HETATM   25  C   UNL     1      49.484  24.350   8.978  1.00  0.00     0.153 C 
HETATM   26  C   UNL     1      52.499  21.650   2.455  1.00  0.00     0.153 C 
HETATM   27  C   UNL     1      44.559  23.429   2.827  1.00  0.00     0.153 C 
ENDROOT
BRANCH  15  28
HETATM   28  C   UNL     1      51.585  21.694   9.296  1.00  0.00     0.016 C 
HETATM   29  C   UNL     1      51.424  20.177   9.362  1.00  0.00     0.012 C 
HETATM   30  C   UNL     1      53.010  22.098   9.672  1.00  0.00     0.012 C 
ENDBRANCH  15  28
BRANCH  14  31
HETATM   31  C   UNL     1      54.186  20.873   4.724  1.00  0.00     0.014 C 
HETATM   32  C   UNL     1      54.751  21.338   6.068  1.00  0.00     0.012 C 
BRANCH  31  33
HETATM   33  C   UNL     1      54.854  19.551   4.306  1.00  0.00     0.002 C 
HETATM   34  C   UNL     1      54.139  18.314   4.831  1.00  0.00     0.005 C 
ENDBRANCH  31  33
ENDBRANCH  14  31
BRANCH  13  35
HETATM   35  C   UNL     1      46.727  23.466   9.466  1.00  0.00     0.014 C 
HETATM   36  C   UNL     1      46.987  22.388  10.521  1.00  0.00     0.012 C 
BRANCH  35  37
HETATM   37  C   UNL     1      47.140  24.843  10.017  1.00  0.00     0.002 C 
HETATM   38  C   UNL     1      46.621  25.118  11.421  1.00  0.00     0.005 C 
ENDBRANCH  35  37
ENDBRANCH  13  35
BRANCH  17  39
HETATM   39  C   UNL     1      49.480  19.823   1.366  1.00  0.00     0.016 C 
HETATM   40  C   UNL     1      50.386  18.617   1.603  1.00  0.00     0.012 C 
HETATM   41  C   UNL     1      49.752  20.437  -0.006  1.00  0.00     0.012 C 
ENDBRANCH  17  39
BRANCH  18  42
HETATM   42  C   UNL     1      48.139  26.091   5.002  1.00  0.00     0.016 C 
HETATM   43  C   UNL     1      49.357  26.112   5.925  1.00  0.00     0.012 C 
HETATM   44  C   UNL     1      48.463  26.772   3.674  1.00  0.00     0.012 C 
ENDBRANCH  18  42
BRANCH  16  45
HETATM   45  C   UNL     1      45.527  20.893   3.805  1.00  0.00     0.010 C 
HETATM   46  C   UNL     1      45.730  20.052   5.065  1.00  0.00     0.012 C 
HETATM   47  C   UNL     1      45.749  20.044   2.555  1.00  0.00     0.012 C 
ENDBRANCH  16  45
TORSDOF 8
ENDMDL
MODEL 15
REMARK VINA RESULT:    -4.512      3.209      7.375
REMARK INTER + INTRA:          -5.713
REMARK INTER:                  -6.253
REMARK INTRA:                   0.540
REMARK UNBOUND:                 0.910
REMARK  8 active torsions:
REMARK  status: ('A' for Active; 'I' for Inactive)
REMARK    1  A    between atoms: C_13  and  C_15 
REMARK    2  A    between atoms: C_14  and  C_16 
REMARK    3  A    between atoms: C_15  and  C_22 
REMARK    4  A    between atoms: C_16  and  C_23 
REMARK    5  A    between atoms: C_17  and  C_21 
REMARK    6  A    between atoms: C_18  and  C_24 
REMARK    7  A    between atoms: C_19  and  C_27 
REMARK    8  A    between atoms: C_20  and  C_30 
ROOT
HETATM    1  O   UNL     1      53.535  19.957   4.505  1.00  0.00    -0.304 OA
HETATM    2  O   UNL     1      53.804  23.486   7.810  1.00  0.00    -0.304 OA
HETATM    3  O   UNL     1      57.043  21.054   8.006  1.00  0.00    -0.304 OA
HETATM    4  O   UNL     1      54.753  22.229   5.046  1.00  0.00    -0.270 OA
HETATM    5  O   UNL     1      52.948  19.518   6.693  1.00  0.00    -0.263 OA
HETATM    6  O   UNL     1      56.833  19.759   5.771  1.00  0.00    -0.270 OA
HETATM    7  O   UNL     1      53.802  25.784   7.928  1.00  0.00    -0.263 OA
HETATM    8  O   UNL     1      54.394  24.954  10.873  1.00  0.00    -0.270 OA
HETATM    9  O   UNL     1      57.009  21.426  10.282  1.00  0.00    -0.263 OA
HETATM   10  N   UNL     1      52.830  23.491   5.344  1.00  0.00    -0.340 N 
HETATM   11  N   UNL     1      55.429  18.207   6.774  1.00  0.00    -0.340 N 
HETATM   12  N   UNL     1      56.243  24.058   9.799  1.00  0.00    -0.340 N 
HETATM   13  C   UNL     1      53.603  24.682   5.768  1.00  0.00     0.190 C 
HETATM   14  C   UNL     1      54.594  18.127   5.559  1.00  0.00     0.190 C 
HETATM   15  C   UNL     1      52.702  21.132   4.478  1.00  0.00     0.227 C 
HETATM   16  C   UNL     1      56.845  23.279   8.696  1.00  0.00     0.190 C 
HETATM   17  C   UNL     1      56.964  19.620   8.152  1.00  0.00     0.227 C 
HETATM   18  C   UNL     1      53.911  23.274   9.221  1.00  0.00     0.227 C 
HETATM   19  C   UNL     1      53.522  22.325   4.984  1.00  0.00     0.250 C 
HETATM   20  C   UNL     1      53.590  19.265   5.683  1.00  0.00     0.283 C 
HETATM   21  C   UNL     1      56.431  19.188   6.792  1.00  0.00     0.250 C 
HETATM   22  C   UNL     1      53.705  24.742   7.292  1.00  0.00     0.283 C 
HETATM   23  C   UNL     1      54.863  24.184  10.027  1.00  0.00     0.250 C 
HETATM   24  C   UNL     1      56.977  21.828   9.128  1.00  0.00     0.283 C 
HETATM   25  C   UNL     1      51.369  23.604   5.406  1.00  0.00     0.153 C 
HETATM   26  C   UNL     1      55.082  17.376   7.930  1.00  0.00     0.153 C 
HETATM   27  C   UNL     1      57.152  24.745  10.717  1.00  0.00     0.153 C 
ENDROOT
BRANCH  15  28
HETATM   28  C   UNL     1      52.293  21.355   3.028  1.00  0.00     0.016 C 
HETATM   29  C   UNL     1      53.236  20.615   2.081  1.00  0.00     0.012 C 
HETATM   30  C   UNL     1      50.849  20.909   2.800  1.00  0.00     0.012 C 
ENDBRANCH  15  28
BRANCH  14  31
HETATM   31  C   UNL     1      53.859  16.814   5.325  1.00  0.00     0.014 C 
HETATM   32  C   UNL     1      52.995  16.924   4.066  1.00  0.00     0.012 C 
BRANCH  31  33
HETATM   33  C   UNL     1      54.820  15.620   5.197  1.00  0.00     0.002 C 
HETATM   34  C   UNL     1      54.174  14.280   5.525  1.00  0.00     0.005 C 
ENDBRANCH  31  33
ENDBRANCH  14  31
BRANCH  13  35
HETATM   35  C   UNL     1      53.065  25.991   5.191  1.00  0.00     0.014 C 
HETATM   36  C   UNL     1      54.076  27.116   5.427  1.00  0.00     0.012 C 
BRANCH  35  37
HETATM   37  C   UNL     1      52.748  25.884   3.689  1.00  0.00     0.002 C 
HETATM   38  C   UNL     1      51.535  26.699   3.263  1.00  0.00     0.005 C 
ENDBRANCH  35  37
ENDBRANCH  13  35
BRANCH  17  39
HETATM   39  C   UNL     1      58.345  19.041   8.396  1.00  0.00     0.016 C 
HETATM   40  C   UNL     1      58.830  18.272   7.169  1.00  0.00     0.012 C 
HETATM   41  C   UNL     1      58.338  18.136   9.627  1.00  0.00     0.012 C 
ENDBRANCH  17  39
BRANCH  18  42
HETATM   42  C   UNL     1      52.495  23.295   9.798  1.00  0.00     0.016 C 
HETATM   43  C   UNL     1      51.520  22.578   8.865  1.00  0.00     0.012 C 
HETATM   44  C   UNL     1      52.469  22.662  11.188  1.00  0.00     0.012 C 
ENDBRANCH  18  42
BRANCH  16  45
HETATM   45  C   UNL     1      58.191  23.801   8.196  1.00  0.00     0.010 C 
HETATM   46  C   UNL     1      58.043  24.445   6.818  1.00  0.00     0.012 C 
HETATM   47  C   UNL     1      59.224  22.676   8.151  1.00  0.00     0.012 C 
ENDBRANCH  16  45
TORSDOF 8
ENDMDL
MODEL 16
REMARK VINA RESULT:    -4.485      2.490      8.495
REMARK INTER + INTRA:          -5.673
REMARK INTER:                  -7.075
REMARK INTRA:                   1.401
REMARK UNBOUND:                 0.910
REMARK  8 active torsions:
REMARK  status: ('A' for Active; 'I' for Inactive)
REMARK    1  A    between atoms: C_13  and  C_15 
REMARK    2  A    between atoms: C_14  and  C_16 
REMARK    3  A    between atoms: C_15  and  C_22 
REMARK    4  A    between atoms: C_16  and  C_23 
REMARK    5  A    between atoms: C_17  and  C_21 
REMARK    6  A    between atoms: C_18  and  C_24 
REMARK    7  A    between atoms: C_19  and  C_27 
REMARK    8  A    between atoms: C_20  and  C_30 
ROOT
HETATM    1  O   UNL     1      53.136  18.653   5.157  1.00  0.00    -0.304 OA
HETATM    2  O   UNL     1      55.445  22.258   7.420  1.00  0.00    -0.304 OA
HETATM    3  O   UNL     1      51.452  22.431   8.099  1.00  0.00    -0.304 OA
HETATM    4  O   UNL     1      53.944  19.456   7.533  1.00  0.00    -0.270 OA
HETATM    5  O   UNL     1      53.169  20.758   4.212  1.00  0.00    -0.263 OA
HETATM    6  O   UNL     1      50.704  20.085   7.291  1.00  0.00    -0.270 OA
HETATM    7  O   UNL     1      57.118  22.573   8.969  1.00  0.00    -0.263 OA
HETATM    8  O   UNL     1      56.039  25.465   8.538  1.00  0.00    -0.270 OA
HETATM    9  O   UNL     1      51.693  24.725   8.099  1.00  0.00    -0.263 OA
HETATM   10  N   UNL     1      56.174  19.751   6.964  1.00  0.00    -0.340 N 
HETATM   11  N   UNL     1      50.512  20.869   5.115  1.00  0.00    -0.340 N 
HETATM   12  N   UNL     1      54.145  24.427   9.380  1.00  0.00    -0.340 N 
HETATM   13  C   UNL     1      56.502  20.319   8.292  1.00  0.00     0.190 C 
HETATM   14  C   UNL     1      51.054  19.606   4.576  1.00  0.00     0.190 C 
HETATM   15  C   UNL     1      54.564  18.679   5.354  1.00  0.00     0.227 C 
HETATM   16  C   UNL     1      53.191  23.297   9.399  1.00  0.00     0.190 C 
HETATM   17  C   UNL     1      50.458  22.449   7.052  1.00  0.00     0.227 C 
HETATM   18  C   UNL     1      55.185  23.650   7.212  1.00  0.00     0.227 C 
HETATM   19  C   UNL     1      54.859  19.332   6.710  1.00  0.00     0.250 C 
HETATM   20  C   UNL     1      52.568  19.769   4.609  1.00  0.00     0.283 C 
HETATM   21  C   UNL     1      50.540  21.028   6.508  1.00  0.00     0.250 C 
HETATM   22  C   UNL     1      56.440  21.846   8.254  1.00  0.00     0.283 C 
HETATM   23  C   UNL     1      55.177  24.585   8.442  1.00  0.00     0.250 C 
HETATM   24  C   UNL     1      52.034  23.610   8.465  1.00  0.00     0.283 C 
HETATM   25  C   UNL     1      57.255  19.738   5.973  1.00  0.00     0.153 C 
HETATM   26  C   UNL     1      50.118  21.927   4.182  1.00  0.00     0.153 C 
HETATM   27  C   UNL     1      54.002  25.450  10.416  1.00  0.00     0.153 C 
ENDROOT
BRANCH  15  28
HETATM   28  C   UNL     1      55.040  17.232   5.354  1.00  0.00     0.016 C 
HETATM   29  C   UNL     1      53.930  16.299   5.835  1.00  0.00     0.012 C 
HETATM   30  C   UNL     1      55.518  16.822   3.962  1.00  0.00     0.012 C 
ENDBRANCH  15  28
BRANCH  14  31
HETATM   31  C   UNL     1      50.608  19.218   3.173  1.00  0.00     0.014 C 
HETATM   32  C   UNL     1      51.563  18.170   2.598  1.00  0.00     0.012 C 
BRANCH  31  33
HETATM   33  C   UNL     1      49.166  18.681   3.145  1.00  0.00     0.002 C 
HETATM   34  C   UNL     1      48.885  17.633   4.214  1.00  0.00     0.005 C 
ENDBRANCH  31  33
ENDBRANCH  14  31
BRANCH  13  35
HETATM   35  C   UNL     1      57.837  19.826   8.850  1.00  0.00     0.014 C 
HETATM   36  C   UNL     1      57.730  18.344   9.218  1.00  0.00     0.012 C 
BRANCH  35  37
HETATM   37  C   UNL     1      58.999  20.035   7.862  1.00  0.00     0.002 C 
HETATM   38  C   UNL     1      60.138  19.042   8.044  1.00  0.00     0.005 C 
ENDBRANCH  35  37
ENDBRANCH  13  35
BRANCH  17  39
HETATM   39  C   UNL     1      49.084  22.722   7.637  1.00  0.00     0.016 C 
HETATM   40  C   UNL     1      48.589  24.104   7.220  1.00  0.00     0.012 C 
HETATM   41  C   UNL     1      49.114  22.598   9.159  1.00  0.00     0.012 C 
ENDBRANCH  17  39
BRANCH  18  42
HETATM   42  C   UNL     1      56.157  24.145   6.140  1.00  0.00     0.016 C 
HETATM   43  C   UNL     1      56.408  23.058   5.094  1.00  0.00     0.012 C 
HETATM   44  C   UNL     1      55.628  25.414   5.475  1.00  0.00     0.012 C 
ENDBRANCH  18  42
BRANCH  16  45
HETATM   45  C   UNL     1      52.661  22.922  10.782  1.00  0.00     0.010 C 
HETATM   46  C   UNL     1      53.803  22.830  11.793  1.00  0.00     0.012 C 
HETATM   47  C   UNL     1      51.891  21.603  10.726  1.00  0.00     0.012 C 
ENDBRANCH  16  45
TORSDOF 8
ENDMDL
MODEL 17
REMARK VINA RESULT:    -4.469      7.231     10.454
REMARK INTER + INTRA:          -5.649
REMARK INTER:                  -6.494
REMARK INTRA:                   0.845
REMARK UNBOUND:                 0.910
REMARK  8 active torsions:
REMARK  status: ('A' for Active; 'I' for Inactive)
REMARK    1  A    between atoms: C_13  and  C_15 
REMARK    2  A    between atoms: C_14  and  C_16 
REMARK    3  A    between atoms: C_15  and  C_22 
REMARK    4  A    between atoms: C_16  and  C_23 
REMARK    5  A    between atoms: C_17  and  C_21 
REMARK    6  A    between atoms: C_18  and  C_24 
REMARK    7  A    between atoms: C_19  and  C_27 
REMARK    8  A    between atoms: C_20  and  C_30 
ROOT
HETATM    1  O   UNL     1      45.310  16.666   3.831  1.00  0.00    -0.304 OA
HETATM    2  O   UNL     1      46.953  14.280  -0.049  1.00  0.00    -0.304 OA
HETATM    3  O   UNL     1      49.999  15.993   2.007  1.00  0.00    -0.304 OA
HETATM    4  O   UNL     1      46.557  14.463   3.102  1.00  0.00    -0.270 OA
HETATM    5  O   UNL     1      45.820  17.832   1.905  1.00  0.00    -0.263 OA
HETATM    6  O   UNL     1      48.824  16.591   4.238  1.00  0.00    -0.270 OA
HETATM    7  O   UNL     1      46.923  12.162  -0.950  1.00  0.00    -0.263 OA
HETATM    8  O   UNL     1      48.843  13.691  -2.872  1.00  0.00    -0.270 OA
HETATM    9  O   UNL     1      51.011  16.320  -0.040  1.00  0.00    -0.263 OA
HETATM   10  N   UNL     1      44.947  13.738   1.597  1.00  0.00    -0.340 N 
HETATM   11  N   UNL     1      48.101  18.608   3.346  1.00  0.00    -0.340 N 
HETATM   12  N   UNL     1      50.015  13.861  -0.878  1.00  0.00    -0.340 N 
HETATM   13  C   UNL     1      45.785  12.599   1.155  1.00  0.00     0.190 C 
HETATM   14  C   UNL     1      46.802  18.486   4.036  1.00  0.00     0.190 C 
HETATM   15  C   UNL     1      44.517  15.717   3.090  1.00  0.00     0.227 C 
HETATM   16  C   UNL     1      50.064  14.150   0.570  1.00  0.00     0.190 C 
HETATM   17  C   UNL     1      50.048  17.394   2.352  1.00  0.00     0.227 C 
HETATM   18  C   UNL     1      47.710  14.871  -1.110  1.00  0.00     0.227 C 
HETATM   19  C   UNL     1      45.435  14.591   2.599  1.00  0.00     0.250 C 
HETATM   20  C   UNL     1      45.930  17.649   3.111  1.00  0.00     0.283 C 
HETATM   21  C   UNL     1      48.961  17.502   3.414  1.00  0.00     0.250 C 
HETATM   22  C   UNL     1      46.580  12.970  -0.097  1.00  0.00     0.283 C 
HETATM   23  C   UNL     1      48.894  14.073  -1.698  1.00  0.00     0.250 C 
HETATM   24  C   UNL     1      50.433  15.611   0.771  1.00  0.00     0.283 C 
HETATM   25  C   UNL     1      43.679  13.930   0.887  1.00  0.00     0.153 C 
HETATM   26  C   UNL     1      48.360  19.791   2.523  1.00  0.00     0.153 C 
HETATM   27  C   UNL     1      51.220  13.312  -1.501  1.00  0.00     0.153 C 
ENDROOT
BRANCH  15  28
HETATM   28  C   UNL     1      43.475  15.161   4.051  1.00  0.00     0.016 C 
HETATM   29  C   UNL     1      44.145  14.547   5.279  1.00  0.00     0.012 C 
HETATM   30  C   UNL     1      42.491  16.253   4.470  1.00  0.00     0.012 C 
ENDBRANCH  15  28
BRANCH  14  31
HETATM   31  C   UNL     1      46.089  19.788   4.378  1.00  0.00     0.014 C 
HETATM   32  C   UNL     1      44.823  19.487   5.183  1.00  0.00     0.012 C 
BRANCH  31  33
HETATM   33  C   UNL     1      46.989  20.758   5.163  1.00  0.00     0.002 C 
HETATM   34  C   UNL     1      46.212  21.783   5.980  1.00  0.00     0.005 C 
ENDBRANCH  31  33
ENDBRANCH  14  31
BRANCH  13  35
HETATM   35  C   UNL     1      44.995  11.306   0.953  1.00  0.00     0.014 C 
HETATM   36  C   UNL     1      45.936  10.103   1.046  1.00  0.00     0.012 C 
BRANCH  35  37
HETATM   37  C   UNL     1      43.852  11.152   1.972  1.00  0.00     0.002 C 
HETATM   38  C   UNL     1      44.333  10.953   3.402  1.00  0.00     0.005 C 
ENDBRANCH  35  37
ENDBRANCH  13  35
BRANCH  17  39
HETATM   39  C   UNL     1      51.405  17.744   2.935  1.00  0.00     0.016 C 
HETATM   40  C   UNL     1      52.255  18.489   1.908  1.00  0.00     0.012 C 
HETATM   41  C   UNL     1      52.124  16.485   3.414  1.00  0.00     0.012 C 
ENDBRANCH  17  39
BRANCH  18  42
HETATM   42  C   UNL     1      46.723  15.293  -2.200  1.00  0.00     0.016 C 
HETATM   43  C   UNL     1      45.415  15.789  -1.583  1.00  0.00     0.012 C 
HETATM   44  C   UNL     1      47.334  16.369  -3.094  1.00  0.00     0.012 C 
ENDBRANCH  18  42
BRANCH  16  45
HETATM   45  C   UNL     1      51.005  13.257   1.377  1.00  0.00     0.010 C 
HETATM   46  C   UNL     1      50.522  13.129   2.821  1.00  0.00     0.012 C 
HETATM   47  C   UNL     1      52.433  13.800   1.337  1.00  0.00     0.012 C 
ENDBRANCH  16  45
TORSDOF 8
ENDMDL
MODEL 18
REMARK VINA RESULT:    -4.380      2.459      5.569
REMARK INTER + INTRA:          -5.518
REMARK INTER:                  -6.762
REMARK INTRA:                   1.243
REMARK UNBOUND:                 0.910
REMARK  8 active torsions:
REMARK  status: ('A' for Active; 'I' for Inactive)
REMARK    1  A    between atoms: C_13  and  C_15 
REMARK    2  A    between atoms: C_14  and  C_16 
REMARK    3  A    between atoms: C_15  and  C_22 
REMARK    4  A    between atoms: C_16  and  C_23 
REMARK    5  A    between atoms: C_17  and  C_21 
REMARK    6  A    between atoms: C_18  and  C_24 
REMARK    7  A    between atoms: C_19  and  C_27 
REMARK    8  A    between atoms: C_20  and  C_30 
ROOT
HETATM    1  O   UNL     1      50.853  22.574   7.923  1.00  0.00    -0.304 OA
HETATM    2  O   UNL     1      54.390  24.717   5.404  1.00  0.00    -0.304 OA
HETATM    3  O   UNL     1      55.779  23.276   8.930  1.00  0.00    -0.304 OA
HETATM    4  O   UNL     1      52.983  22.067   6.459  1.00  0.00    -0.270 OA
HETATM    5  O   UNL     1      51.478  24.734   8.445  1.00  0.00    -0.263 OA
HETATM    6  O   UNL     1      53.828  21.725   9.641  1.00  0.00    -0.270 OA
HETATM    7  O   UNL     1      55.426  24.566   3.354  1.00  0.00    -0.263 OA
HETATM    8  O   UNL     1      57.150  26.703   4.830  1.00  0.00    -0.270 OA
HETATM    9  O   UNL     1      57.190  25.100   8.960  1.00  0.00    -0.263 OA
HETATM   10  N   UNL     1      52.315  23.279   4.597  1.00  0.00    -0.340 N 
HETATM   11  N   UNL     1      52.736  23.514  10.638  1.00  0.00    -0.340 N 
HETATM   12  N   UNL     1      57.485  24.865   6.203  1.00  0.00    -0.340 N 
HETATM   13  C   UNL     1      53.606  23.049   3.907  1.00  0.00     0.190 C 
HETATM   14  C   UNL     1      51.426  23.018  10.172  1.00  0.00     0.190 C 
HETATM   15  C   UNL     1      50.742  22.905   6.525  1.00  0.00     0.227 C 
HETATM   16  C   UNL     1      56.966  23.709   6.963  1.00  0.00     0.190 C 
HETATM   17  C   UNL     1      55.199  23.594  10.214  1.00  0.00     0.227 C 
HETATM   18  C   UNL     1      55.169  25.823   5.872  1.00  0.00     0.227 C 
HETATM   19  C   UNL     1      52.113  22.714   5.866  1.00  0.00     0.250 C 
HETATM   20  C   UNL     1      51.262  23.573   8.763  1.00  0.00     0.283 C 
HETATM   21  C   UNL     1      53.874  22.845  10.162  1.00  0.00     0.250 C 
HETATM   22  C   UNL     1      54.560  24.220   4.148  1.00  0.00     0.283 C 
HETATM   23  C   UNL     1      56.684  25.830   5.571  1.00  0.00     0.250 C 
HETATM   24  C   UNL     1      56.689  24.140   8.394  1.00  0.00     0.283 C 
HETATM   25  C   UNL     1      51.358  24.158   3.917  1.00  0.00     0.153 C 
HETATM   26  C   UNL     1      52.787  24.740  11.438  1.00  0.00     0.153 C 
HETATM   27  C   UNL     1      58.937  25.012   6.103  1.00  0.00     0.153 C 
ENDROOT
BRANCH  15  28
HETATM   28  C   UNL     1      49.730  21.941   5.919  1.00  0.00     0.016 C 
HETATM   29  C   UNL     1      50.203  20.496   6.071  1.00  0.00     0.012 C 
HETATM   30  C   UNL     1      48.357  22.125   6.562  1.00  0.00     0.012 C 
ENDBRANCH  15  28
BRANCH  14  31
HETATM   31  C   UNL     1      50.217  23.393  11.018  1.00  0.00     0.014 C 
HETATM   32  C   UNL     1      49.242  24.227  10.183  1.00  0.00     0.012 C 
BRANCH  31  33
HETATM   33  C   UNL     1      49.495  22.158  11.585  1.00  0.00     0.002 C 
HETATM   34  C   UNL     1      49.416  20.995  10.606  1.00  0.00     0.005 C 
ENDBRANCH  31  33
ENDBRANCH  14  31
BRANCH  13  35
HETATM   35  C   UNL     1      53.453  22.749   2.417  1.00  0.00     0.014 C 
HETATM   36  C   UNL     1      54.731  22.097   1.884  1.00  0.00     0.012 C 
BRANCH  35  37
HETATM   37  C   UNL     1      52.245  21.842   2.122  1.00  0.00     0.002 C 
HETATM   38  C   UNL     1      52.631  20.444   1.662  1.00  0.00     0.005 C 
ENDBRANCH  35  37
ENDBRANCH  13  35
BRANCH  17  39
HETATM   39  C   UNL     1      56.075  23.060  11.333  1.00  0.00     0.016 C 
HETATM   40  C   UNL     1      55.248  22.824  12.594  1.00  0.00     0.012 C 
HETATM   41  C   UNL     1      57.227  24.022  11.618  1.00  0.00     0.012 C 
ENDBRANCH  17  39
BRANCH  18  42
HETATM   42  C   UNL     1      54.495  27.103   5.378  1.00  0.00     0.016 C 
HETATM   43  C   UNL     1      52.976  26.933   5.336  1.00  0.00     0.012 C 
HETATM   44  C   UNL     1      54.875  28.289   6.262  1.00  0.00     0.012 C 
ENDBRANCH  18  42
BRANCH  16  45
HETATM   45  C   UNL     1      57.863  22.473   6.953  1.00  0.00     0.010 C 
HETATM   46  C   UNL     1      57.242  21.361   6.107  1.00  0.00     0.012 C 
HETATM   47  C   UNL     1      58.121  21.980   8.376  1.00  0.00     0.012 C 
ENDBRANCH  16  45
TORSDOF 8
ENDMDL
MODEL 19
REMARK VINA RESULT:    -4.369      2.155      8.376
REMARK INTER + INTRA:          -5.502
REMARK INTER:                  -6.024
REMARK INTRA:                   0.522
REMARK UNBOUND:                 0.910
REMARK  8 active torsions:
REMARK  status: ('A' for Active; 'I' for Inactive)
REMARK    1  A    between atoms: C_13  and  C_15 
REMARK    2  A    between atoms: C_14  and  C_16 
REMARK    3  A    between atoms: C_15  and  C_22 
REMARK    4  A    between atoms: C_16  and  C_23 
REMARK    5  A    between atoms: C_17  and  C_21 
REMARK    6  A    between atoms: C_18  and  C_24 
REMARK    7  A    between atoms: C_19  and  C_27 
REMARK    8  A    between atoms: C_20  and  C_30 
ROOT
HETATM    1  O   UNL     1      52.849  21.492   3.247  1.00  0.00    -0.304 OA
HETATM    2  O   UNL     1      54.871  22.176   7.594  1.00  0.00    -0.304 OA
HETATM    3  O   UNL     1      50.864  22.785   7.736  1.00  0.00    -0.304 OA
HETATM    4  O   UNL     1      53.133  20.385   5.621  1.00  0.00    -0.270 OA
HETATM    5  O   UNL     1      53.303  23.636   3.970  1.00  0.00    -0.263 OA
HETATM    6  O   UNL     1      50.119  21.745   5.483  1.00  0.00    -0.270 OA
HETATM    7  O   UNL     1      56.143  21.038   9.137  1.00  0.00    -0.263 OA
HETATM    8  O   UNL     1      55.473  23.688  10.634  1.00  0.00    -0.270 OA
HETATM    9  O   UNL     1      51.310  24.419   9.303  1.00  0.00    -0.263 OA
HETATM   10  N   UNL     1      55.452  20.454   5.665  1.00  0.00    -0.340 N 
HETATM   11  N   UNL     1      50.530  23.751   4.393  1.00  0.00    -0.340 N 
HETATM   12  N   UNL     1      53.344  22.821  10.330  1.00  0.00    -0.340 N 
HETATM   13  C   UNL     1      55.502  19.951   7.057  1.00  0.00     0.190 C 
HETATM   14  C   UNL     1      51.065  23.041   3.215  1.00  0.00     0.190 C 
HETATM   15  C   UNL     1      54.184  21.059   3.577  1.00  0.00     0.227 C 
HETATM   16  C   UNL     1      52.313  22.196   9.475  1.00  0.00     0.190 C 
HETATM   17  C   UNL     1      50.158  23.693   6.864  1.00  0.00     0.227 C 
HETATM   18  C   UNL     1      54.798  23.392   8.344  1.00  0.00     0.227 C 
HETATM   19  C   UNL     1      54.203  20.608   5.043  1.00  0.00     0.250 C 
HETATM   20  C   UNL     1      52.535  22.793   3.526  1.00  0.00     0.283 C 
HETATM   21  C   UNL     1      50.236  22.975   5.523  1.00  0.00     0.250 C 
HETATM   22  C   UNL     1      55.593  21.113   8.046  1.00  0.00     0.283 C 
HETATM   23  C   UNL     1      54.581  23.299   9.871  1.00  0.00     0.250 C 
HETATM   24  C   UNL     1      51.448  23.287   8.863  1.00  0.00     0.283 C 
HETATM   25  C   UNL     1      56.734  20.828   5.058  1.00  0.00     0.153 C 
HETATM   26  C   UNL     1      50.471  25.215   4.372  1.00  0.00     0.153 C 
HETATM   27  C   UNL     1      53.052  22.948  11.758  1.00  0.00     0.153 C 
ENDROOT
BRANCH  15  28
HETATM   28  C   UNL     1      54.510  19.885   2.663  1.00  0.00     0.016 C 
HETATM   29  C   UNL     1      53.231  19.270   2.098  1.00  0.00     0.012 C 
HETATM   30  C   UNL     1      55.438  20.324   1.532  1.00  0.00     0.012 C 
ENDBRANCH  15  28
BRANCH  14  31
HETATM   31  C   UNL     1      50.935  23.751   1.874  1.00  0.00     0.014 C 
HETATM   32  C   UNL     1      52.011  23.240   0.913  1.00  0.00     0.012 C 
BRANCH  31  33
HETATM   33  C   UNL     1      49.542  23.566   1.247  1.00  0.00     0.002 C 
HETATM   34  C   UNL     1      48.926  22.201   1.523  1.00  0.00     0.005 C 
ENDBRANCH  31  33
ENDBRANCH  14  31
BRANCH  13  35
HETATM   35  C   UNL     1      56.612  18.927   7.293  1.00  0.00     0.014 C 
HETATM   36  C   UNL     1      56.248  18.031   8.480  1.00  0.00     0.012 C 
BRANCH  35  37
HETATM   37  C   UNL     1      56.885  18.060   6.051  1.00  0.00     0.002 C 
HETATM   38  C   UNL     1      58.059  17.107   6.219  1.00  0.00     0.005 C 
ENDBRANCH  35  37
ENDBRANCH  13  35
BRANCH  17  39
HETATM   39  C   UNL     1      48.715  23.836   7.313  1.00  0.00     0.016 C 
HETATM   40  C   UNL     1      48.522  25.133   8.094  1.00  0.00     0.012 C 
HETATM   41  C   UNL     1      48.293  22.634   8.157  1.00  0.00     0.012 C 
ENDBRANCH  17  39
BRANCH  18  42
HETATM   42  C   UNL     1      56.041  24.217   8.005  1.00  0.00     0.016 C 
HETATM   43  C   UNL     1      56.381  24.097   6.520  1.00  0.00     0.012 C 
HETATM   44  C   UNL     1      55.839  25.681   8.391  1.00  0.00     0.012 C 
ENDBRANCH  18  42
BRANCH  16  45
HETATM   45  C   UNL     1      51.433  21.161  10.173  1.00  0.00     0.010 C 
HETATM   46  C   UNL     1      51.079  20.021   9.219  1.00  0.00     0.012 C 
HETATM   47  C   UNL     1      50.164  21.811  10.723  1.00  0.00     0.012 C 
ENDBRANCH  16  45
TORSDOF 8
ENDMDL
MODEL 20
REMARK VINA RESULT:    -4.343     13.688     18.687
REMARK INTER + INTRA:          -5.464
REMARK INTER:                  -6.327
REMARK INTRA:                   0.863
REMARK UNBOUND:                 0.910
REMARK  8 active torsions:
REMARK  status: ('A' for Active; 'I' for Inactive)
REMARK    1  A    between atoms: C_13  and  C_15 
REMARK    2  A    between atoms: C_14  and  C_16 
REMARK    3  A    between atoms: C_15  and  C_22 
REMARK    4  A    between atoms: C_16  and  C_23 
REMARK    5  A    between atoms: C_17  and  C_21 
REMARK    6  A    between atoms: C_18  and  C_24 
REMARK    7  A    between atoms: C_19  and  C_27 
REMARK    8  A    between atoms: C_20  and  C_30 
ROOT
HETATM    1  O   UNL     1      42.507   7.420  -2.827  1.00  0.00    -0.304 OA
HETATM    2  O   UNL     1      46.594   9.772  -1.725  1.00  0.00    -0.304 OA
HETATM    3  O   UNL     1      43.335  11.888  -0.566  1.00  0.00    -0.304 OA
HETATM    4  O   UNL     1      44.083   8.046  -0.811  1.00  0.00    -0.270 OA
HETATM    5  O   UNL     1      43.250   9.122  -4.198  1.00  0.00    -0.263 OA
HETATM    6  O   UNL     1      41.479  10.089  -0.743  1.00  0.00    -0.270 OA
HETATM    7  O   UNL     1      48.529   9.459  -0.519  1.00  0.00    -0.263 OA
HETATM    8  O   UNL     1      48.760  12.436  -1.412  1.00  0.00    -0.270 OA
HETATM    9  O   UNL     1      44.550  13.778  -1.092  1.00  0.00    -0.263 OA
HETATM   10  N   UNL     1      46.032   7.182  -1.725  1.00  0.00    -0.340 N 
HETATM   11  N   UNL     1      41.179  10.584  -2.990  1.00  0.00    -0.340 N 
HETATM   12  N   UNL     1      46.838  12.529  -0.119  1.00  0.00    -0.340 N 
HETATM   13  C   UNL     1      46.858   7.694  -0.607  1.00  0.00     0.190 C 
HETATM   14  C   UNL     1      40.981   9.157  -3.313  1.00  0.00     0.190 C 
HETATM   15  C   UNL     1      43.807   6.797  -2.835  1.00  0.00     0.227 C 
HETATM   16  C   UNL     1      45.516  11.994   0.271  1.00  0.00     0.190 C 
HETATM   17  C   UNL     1      42.247  12.237  -1.448  1.00  0.00     0.227 C 
HETATM   18  C   UNL     1      46.931  11.083  -2.190  1.00  0.00     0.227 C 
HETATM   19  C   UNL     1      44.646   7.402  -1.703  1.00  0.00     0.250 C 
HETATM   20  C   UNL     1      42.379   8.591  -3.521  1.00  0.00     0.283 C 
HETATM   21  C   UNL     1      41.578  10.888  -1.681  1.00  0.00     0.250 C 
HETATM   22  C   UNL     1      47.464   9.051  -0.964  1.00  0.00     0.283 C 
HETATM   23  C   UNL     1      47.602  12.061  -1.200  1.00  0.00     0.250 C 
HETATM   24  C   UNL     1      44.439  12.691  -0.544  1.00  0.00     0.283 C 
HETATM   25  C   UNL     1      46.753   6.535  -2.827  1.00  0.00     0.153 C 
HETATM   26  C   UNL     1      41.095  11.573  -4.067  1.00  0.00     0.153 C 
HETATM   27  C   UNL     1      47.388  13.623   0.682  1.00  0.00     0.153 C 
ENDROOT
BRANCH  15  28
HETATM   28  C   UNL     1      43.589   5.310  -2.588  1.00  0.00     0.016 C 
HETATM   29  C   UNL     1      42.584   5.092  -1.458  1.00  0.00     0.012 C 
HETATM   30  C   UNL     1      43.117   4.615  -3.865  1.00  0.00     0.012 C 
ENDBRANCH  15  28
BRANCH  14  31
HETATM   31  C   UNL     1      40.115   8.848  -4.527  1.00  0.00     0.014 C 
HETATM   32  C   UNL     1      40.348   7.403  -4.973  1.00  0.00     0.012 C 
BRANCH  31  33
HETATM   33  C   UNL     1      38.618   9.074  -4.250  1.00  0.00     0.002 C 
HETATM   34  C   UNL     1      38.003  10.183  -5.092  1.00  0.00     0.005 C 
ENDBRANCH  31  33
ENDBRANCH  14  31
BRANCH  13  35
HETATM   35  C   UNL     1      47.928   6.708  -0.141  1.00  0.00     0.014 C 
HETATM   36  C   UNL     1      49.204   6.899  -0.966  1.00  0.00     0.012 C 
BRANCH  35  37
HETATM   37  C   UNL     1      48.250   6.854   1.357  1.00  0.00     0.002 C 
HETATM   38  C   UNL     1      49.740   6.827   1.665  1.00  0.00     0.005 C 
ENDBRANCH  35  37
ENDBRANCH  13  35
BRANCH  17  39
HETATM   39  C   UNL     1      41.296  13.197  -0.756  1.00  0.00     0.016 C 
HETATM   40  C   UNL     1      39.854  12.717  -0.896  1.00  0.00     0.012 C 
HETATM   41  C   UNL     1      41.451  14.607  -1.322  1.00  0.00     0.012 C 
ENDBRANCH  17  39
BRANCH  18  42
HETATM   42  C   UNL     1      47.760  10.920  -3.464  1.00  0.00     0.016 C 
HETATM   43  C   UNL     1      47.274   9.719  -4.276  1.00  0.00     0.012 C 
HETATM   44  C   UNL     1      47.708  12.192  -4.308  1.00  0.00     0.012 C 
ENDBRANCH  18  42
BRANCH  16  45
HETATM   45  C   UNL     1      45.192  12.093   1.760  1.00  0.00     0.010 C 
HETATM   46  C   UNL     1      44.696  10.750   2.296  1.00  0.00     0.012 C 
HETATM   47  C   UNL     1      44.154  13.185   2.016  1.00  0.00     0.012 C 
ENDBRANCH  16  45
TORSDOF 8
ENDMDL
