MODEL 1
REMARK VINA RESULT:    -7.745      0.000      0.000
REMARK INTER + INTRA:          -9.936
REMARK INTER:                 -11.367
REMARK INTRA:                   1.431
REMARK UNBOUND:                 1.431
REMARK  8 active torsions:
REMARK  status: ('A' for Active; 'I' for Inactive)
REMARK    1  A    between atoms: C_13  and  C_15 
REMARK    2  A    between atoms: C_14  and  C_16 
REMARK    3  A    between atoms: C_15  and  C_22 
REMARK    4  A    between atoms: C_16  and  C_23 
REMARK    5  A    between atoms: C_17  and  C_21 
REMARK    6  A    between atoms: C_18  and  C_24 
REMARK    7  A    between atoms: C_19  and  C_27 
REMARK    8  A    between atoms: C_20  and  C_30 
ROOT
HETATM    1  O   UNL     1      26.637  26.195  30.242  1.00  0.00    -0.304 OA
HETATM    2  O   UNL     1      28.359  21.888  31.631  1.00  0.00    -0.304 OA
HETATM    3  O   UNL     1      25.993  23.506  34.499  1.00  0.00    -0.304 OA
HETATM    4  O   UNL     1      25.947  23.676  30.580  1.00  0.00    -0.270 OA
HETATM    5  O   UNL     1      28.458  26.096  31.658  1.00  0.00    -0.263 OA
HETATM    6  O   UNL     1      24.821  25.399  33.173  1.00  0.00    -0.270 OA
HETATM    7  O   UNL     1      28.370  19.694  30.935  1.00  0.00    -0.263 OA
HETATM    8  O   UNL     1      29.736  19.525  33.731  1.00  0.00    -0.270 OA
HETATM    9  O   UNL     1      27.409  22.515  36.027  1.00  0.00    -0.263 OA
HETATM   10  N   UNL     1      27.612  22.768  29.245  1.00  0.00    -0.340 N 
HETATM   11  N   UNL     1      26.588  26.837  33.616  1.00  0.00    -0.340 N 
HETATM   12  N   UNL     1      27.643  20.324  34.329  1.00  0.00    -0.340 N 
HETATM   13  C   UNL     1      27.230  21.382  29.604  1.00  0.00     0.190 C 
HETATM   14  C   UNL     1      26.501  27.415  32.261  1.00  0.00     0.190 C 
HETATM   15  C   UNL     1      27.245  25.255  29.335  1.00  0.00     0.227 C 
HETATM   16  C   UNL     1      26.512  21.255  34.134  1.00  0.00     0.190 C 
HETATM   17  C   UNL     1      26.185  24.827  35.048  1.00  0.00     0.227 C 
HETATM   18  C   UNL     1      29.148  21.665  32.804  1.00  0.00     0.227 C 
HETATM   19  C   UNL     1      26.877  23.836  29.781  1.00  0.00     0.250 C 
HETATM   20  C   UNL     1      27.337  26.500  31.377  1.00  0.00     0.283 C 
HETATM   21  C   UNL     1      25.781  25.720  33.882  1.00  0.00     0.250 C 
HETATM   22  C   UNL     1      28.085  20.873  30.765  1.00  0.00     0.283 C 
HETATM   23  C   UNL     1      28.867  20.400  33.645  1.00  0.00     0.250 C 
HETATM   24  C   UNL     1      26.714  22.472  35.023  1.00  0.00     0.283 C 
HETATM   25  C   UNL     1      28.799  22.920  28.396  1.00  0.00     0.153 C 
HETATM   26  C   UNL     1      27.594  27.355  34.546  1.00  0.00     0.153 C 
HETATM   27  C   UNL     1      27.472  19.245  35.302  1.00  0.00     0.153 C 
ENDROOT
BRANCH  15  28
HETATM   28  C   UNL     1      26.671  25.536  27.952  1.00  0.00     0.016 C 
HETATM   29  C   UNL     1      25.762  26.763  27.985  1.00  0.00     0.012 C 
HETATM   30  C   UNL     1      27.791  25.726  26.931  1.00  0.00     0.012 C 
ENDBRANCH  15  28
BRANCH  14  31
HETATM   31  C   UNL     1      26.973  28.855  32.104  1.00  0.00     0.014 C 
HETATM   32  C   UNL     1      26.736  29.323  30.667  1.00  0.00     0.012 C 
BRANCH  31  33
HETATM   33  C   UNL     1      26.274  29.810  33.087  1.00  0.00     0.002 C 
HETATM   34  C   UNL     1      24.775  29.938  32.850  1.00  0.00     0.005 C 
ENDBRANCH  31  33
ENDBRANCH  14  31
BRANCH  13  35
HETATM   35  C   UNL     1      27.263  20.417  28.419  1.00  0.00     0.014 C 
HETATM   36  C   UNL     1      28.686  19.888  28.220  1.00  0.00     0.012 C 
BRANCH  35  37
HETATM   37  C   UNL     1      26.290  19.237  28.595  1.00  0.00     0.002 C 
HETATM   38  C   UNL     1      26.677  18.004  27.792  1.00  0.00     0.005 C 
ENDBRANCH  35  37
ENDBRANCH  13  35
BRANCH  17  39
HETATM   39  C   UNL     1      25.262  25.042  36.234  1.00  0.00     0.016 C 
HETATM   40  C   UNL     1      25.990  24.743  37.542  1.00  0.00     0.012 C 
HETATM   41  C   UNL     1      24.012  24.173  36.105  1.00  0.00     0.012 C 
ENDBRANCH  17  39
BRANCH  18  42
HETATM   42  C   UNL     1      30.618  21.748  32.392  1.00  0.00     0.016 C 
HETATM   43  C   UNL     1      30.825  22.838  31.341  1.00  0.00     0.012 C 
HETATM   44  C   UNL     1      31.506  22.004  33.609  1.00  0.00     0.012 C 
ENDBRANCH  18  42
BRANCH  16  45
HETATM   45  C   UNL     1      25.129  20.653  34.377  1.00  0.00     0.010 C 
HETATM   46  C   UNL     1      24.118  21.199  33.369  1.00  0.00     0.012 C 
HETATM   47  C   UNL     1      24.662  20.929  35.805  1.00  0.00     0.012 C 
ENDBRANCH  16  45
TORSDOF 8
ENDMDL
MODEL 2
REMARK VINA RESULT:    -7.581      1.989      6.371
REMARK INTER + INTRA:          -9.695
REMARK INTER:                 -10.157
REMARK INTRA:                   0.462
REMARK UNBOUND:                 1.431
REMARK  8 active torsions:
REMARK  status: ('A' for Active; 'I' for Inactive)
REMARK    1  A    between atoms: C_13  and  C_15 
REMARK    2  A    between atoms: C_14  and  C_16 
REMARK    3  A    between atoms: C_15  and  C_22 
REMARK    4  A    between atoms: C_16  and  C_23 
REMARK    5  A    between atoms: C_17  and  C_21 
REMARK    6  A    between atoms: C_18  and  C_24 
REMARK    7  A    between atoms: C_19  and  C_27 
REMARK    8  A    between atoms: C_20  and  C_30 
ROOT
HETATM    1  O   UNL     1      26.673  25.199  32.936  1.00  0.00    -0.304 OA
HETATM    2  O   UNL     1      27.958  20.640  31.931  1.00  0.00    -0.304 OA
HETATM    3  O   UNL     1      29.156  23.172  29.000  1.00  0.00    -0.304 OA
HETATM    4  O   UNL     1      28.744  23.572  32.880  1.00  0.00    -0.270 OA
HETATM    5  O   UNL     1      25.397  23.950  31.474  1.00  0.00    -0.263 OA
HETATM    6  O   UNL     1      28.861  25.466  30.169  1.00  0.00    -0.270 OA
HETATM    7  O   UNL     1      29.182  18.918  32.846  1.00  0.00    -0.263 OA
HETATM    8  O   UNL     1      28.434  17.800  30.034  1.00  0.00    -0.270 OA
HETATM    9  O   UNL     1      28.741  21.443  27.530  1.00  0.00    -0.263 OA
HETATM   10  N   UNL     1      27.825  21.933  34.241  1.00  0.00    -0.340 N 
HETATM   11  N   UNL     1      26.635  25.539  29.519  1.00  0.00    -0.340 N 
HETATM   12  N   UNL     1      29.695  19.651  29.433  1.00  0.00    -0.340 N 
HETATM   13  C   UNL     1      28.982  21.029  34.038  1.00  0.00     0.190 C 
HETATM   14  C   UNL     1      26.242  26.135  30.810  1.00  0.00     0.190 C 
HETATM   15  C   UNL     1      26.660  24.138  33.912  1.00  0.00     0.227 C 
HETATM   16  C   UNL     1      30.036  21.083  29.572  1.00  0.00     0.190 C 
HETATM   17  C   UNL     1      28.272  24.083  28.313  1.00  0.00     0.227 C 
HETATM   18  C   UNL     1      27.561  19.920  30.760  1.00  0.00     0.227 C 
HETATM   19  C   UNL     1      27.833  23.194  33.625  1.00  0.00     0.250 C 
HETATM   20  C   UNL     1      26.033  24.957  31.752  1.00  0.00     0.283 C 
HETATM   21  C   UNL     1      27.964  25.109  29.396  1.00  0.00     0.250 C 
HETATM   22  C   UNL     1      28.700  20.042  32.905  1.00  0.00     0.283 C 
HETATM   23  C   UNL     1      28.607  19.024  30.061  1.00  0.00     0.250 C 
HETATM   24  C   UNL     1      29.235  21.883  28.558  1.00  0.00     0.283 C 
HETATM   25  C   UNL     1      26.708  21.399  35.027  1.00  0.00     0.153 C 
HETATM   26  C   UNL     1      25.604  25.298  28.506  1.00  0.00     0.153 C 
HETATM   27  C   UNL     1      30.556  18.830  28.581  1.00  0.00     0.153 C 
ENDROOT
BRANCH  15  28
HETATM   28  C   UNL     1      26.832  24.789  35.279  1.00  0.00     0.016 C 
HETATM   29  C   UNL     1      27.342  26.221  35.134  1.00  0.00     0.012 C 
HETATM   30  C   UNL     1      25.517  24.765  36.057  1.00  0.00     0.012 C 
ENDBRANCH  15  28
BRANCH  14  31
HETATM   31  C   UNL     1      25.000  27.016  30.804  1.00  0.00     0.014 C 
HETATM   32  C   UNL     1      24.575  27.321  32.242  1.00  0.00     0.012 C 
BRANCH  31  33
HETATM   33  C   UNL     1      25.219  28.331  30.034  1.00  0.00     0.002 C 
HETATM   34  C   UNL     1      26.458  29.097  30.478  1.00  0.00     0.005 C 
ENDBRANCH  31  33
ENDBRANCH  14  31
BRANCH  13  35
HETATM   35  C   UNL     1      29.419  20.308  35.313  1.00  0.00     0.014 C 
HETATM   36  C   UNL     1      30.723  19.547  35.057  1.00  0.00     0.012 C 
BRANCH  35  37
HETATM   37  C   UNL     1      29.604  21.272  36.498  1.00  0.00     0.002 C 
HETATM   38  C   UNL     1      30.503  22.458  36.184  1.00  0.00     0.005 C 
ENDBRANCH  35  37
ENDBRANCH  13  35
BRANCH  17  39
HETATM   39  C   UNL     1      28.991  24.733  27.146  1.00  0.00     0.016 C 
HETATM   40  C   UNL     1      30.360  25.251  27.580  1.00  0.00     0.012 C 
HETATM   41  C   UNL     1      28.150  25.866  26.560  1.00  0.00     0.012 C 
ENDBRANCH  17  39
BRANCH  18  42
HETATM   42  C   UNL     1      26.295  19.136  31.108  1.00  0.00     0.016 C 
HETATM   43  C   UNL     1      25.419  19.927  32.078  1.00  0.00     0.012 C 
HETATM   44  C   UNL     1      25.512  18.786  29.844  1.00  0.00     0.012 C 
ENDBRANCH  18  42
BRANCH  16  45
HETATM   45  C   UNL     1      31.522  21.410  29.442  1.00  0.00     0.010 C 
HETATM   46  C   UNL     1      31.965  22.364  30.550  1.00  0.00     0.012 C 
HETATM   47  C   UNL     1      31.826  22.009  28.069  1.00  0.00     0.012 C 
ENDBRANCH  16  45
TORSDOF 8
ENDMDL
MODEL 3
REMARK VINA RESULT:    -7.520      2.056      6.403
REMARK INTER + INTRA:          -9.605
REMARK INTER:                 -10.213
REMARK INTRA:                   0.607
REMARK UNBOUND:                 1.431
REMARK  8 active torsions:
REMARK  status: ('A' for Active; 'I' for Inactive)
REMARK    1  A    between atoms: C_13  and  C_15 
REMARK    2  A    between atoms: C_14  and  C_16 
REMARK    3  A    between atoms: C_15  and  C_22 
REMARK    4  A    between atoms: C_16  and  C_23 
REMARK    5  A    between atoms: C_17  and  C_21 
REMARK    6  A    between atoms: C_18  and  C_24 
REMARK    7  A    between atoms: C_19  and  C_27 
REMARK    8  A    between atoms: C_20  and  C_30 
ROOT
HETATM    1  O   UNL     1      26.864  25.354  30.529  1.00  0.00    -0.304 OA
HETATM    2  O   UNL     1      27.258  21.328  33.190  1.00  0.00    -0.304 OA
HETATM    3  O   UNL     1      30.680  22.063  31.142  1.00  0.00    -0.304 OA
HETATM    4  O   UNL     1      27.955  24.397  32.728  1.00  0.00    -0.270 OA
HETATM    5  O   UNL     1      26.589  23.293  29.528  1.00  0.00    -0.263 OA
HETATM    6  O   UNL     1      30.299  24.515  30.394  1.00  0.00    -0.270 OA
HETATM    7  O   UNL     1      27.088  20.648  35.382  1.00  0.00    -0.263 OA
HETATM    8  O   UNL     1      28.104  18.073  33.950  1.00  0.00    -0.270 OA
HETATM    9  O   UNL     1      30.898  19.774  30.962  1.00  0.00    -0.263 OA
HETATM   10  N   UNL     1      25.989  23.605  33.670  1.00  0.00    -0.340 N 
HETATM   11  N   UNL     1      29.158  23.788  28.508  1.00  0.00    -0.340 N 
HETATM   12  N   UNL     1      29.872  19.515  33.536  1.00  0.00    -0.340 N 
HETATM   13  C   UNL     1      26.711  22.981  34.804  1.00  0.00     0.190 C 
HETATM   14  C   UNL     1      28.188  24.895  28.627  1.00  0.00     0.190 C 
HETATM   15  C   UNL     1      25.943  25.007  31.582  1.00  0.00     0.227 C 
HETATM   16  C   UNL     1      30.393  20.830  33.108  1.00  0.00     0.190 C 
HETATM   17  C   UNL     1      30.734  22.267  29.714  1.00  0.00     0.227 C 
HETATM   18  C   UNL     1      27.556  20.030  32.665  1.00  0.00     0.227 C 
HETATM   19  C   UNL     1      26.722  24.309  32.703  1.00  0.00     0.250 C 
HETATM   20  C   UNL     1      27.120  24.394  29.590  1.00  0.00     0.283 C 
HETATM   21  C   UNL     1      30.073  23.631  29.560  1.00  0.00     0.250 C 
HETATM   22  C   UNL     1      26.996  21.507  34.514  1.00  0.00     0.283 C 
HETATM   23  C   UNL     1      28.525  19.125  33.457  1.00  0.00     0.250 C 
HETATM   24  C   UNL     1      30.692  20.784  31.618  1.00  0.00     0.283 C 
HETATM   25  C   UNL     1      24.542  23.370  33.608  1.00  0.00     0.153 C 
HETATM   26  C   UNL     1      29.024  22.843  27.397  1.00  0.00     0.153 C 
HETATM   27  C   UNL     1      30.829  18.553  34.082  1.00  0.00     0.153 C 
ENDROOT
BRANCH  15  28
HETATM   28  C   UNL     1      25.341  26.309  32.094  1.00  0.00     0.016 C 
HETATM   29  C   UNL     1      26.435  27.339  32.366  1.00  0.00     0.012 C 
HETATM   30  C   UNL     1      24.322  26.861  31.098  1.00  0.00     0.012 C 
ENDBRANCH  15  28
BRANCH  14  31
HETATM   31  C   UNL     1      27.536  25.369  27.336  1.00  0.00     0.014 C 
HETATM   32  C   UNL     1      26.445  26.394  27.654  1.00  0.00     0.012 C 
BRANCH  31  33
HETATM   33  C   UNL     1      28.554  25.978  26.356  1.00  0.00     0.002 C 
HETATM   34  C   UNL     1      27.914  26.798  25.243  1.00  0.00     0.005 C 
ENDBRANCH  31  33
ENDBRANCH  14  31
BRANCH  13  35
HETATM   35  C   UNL     1      26.003  23.161  36.147  1.00  0.00     0.014 C 
HETATM   36  C   UNL     1      26.973  22.849  37.290  1.00  0.00     0.012 C 
BRANCH  35  37
HETATM   37  C   UNL     1      25.430  24.578  36.323  1.00  0.00     0.002 C 
HETATM   38  C   UNL     1      24.119  24.613  37.094  1.00  0.00     0.005 C 
ENDBRANCH  35  37
ENDBRANCH  13  35
BRANCH  17  39
HETATM   39  C   UNL     1      32.177  22.313  29.245  1.00  0.00     0.016 C 
HETATM   40  C   UNL     1      32.446  23.596  28.462  1.00  0.00     0.012 C 
HETATM   41  C   UNL     1      32.504  21.087  28.395  1.00  0.00     0.012 C 
ENDBRANCH  17  39
BRANCH  18  42
HETATM   42  C   UNL     1      26.225  19.325  32.398  1.00  0.00     0.016 C 
HETATM   43  C   UNL     1      25.178  20.320  31.895  1.00  0.00     0.012 C 
HETATM   44  C   UNL     1      26.408  18.189  31.394  1.00  0.00     0.012 C 
ENDBRANCH  18  42
BRANCH  16  45
HETATM   45  C   UNL     1      31.620  21.320  33.874  1.00  0.00     0.010 C 
HETATM   46  C   UNL     1      31.241  22.436  34.846  1.00  0.00     0.012 C 
HETATM   47  C   UNL     1      32.705  21.798  32.909  1.00  0.00     0.012 C 
ENDBRANCH  16  45
TORSDOF 8
ENDMDL
MODEL 4
REMARK VINA RESULT:    -7.148      2.249      6.683
REMARK INTER + INTRA:          -9.060
REMARK INTER:                  -9.894
REMARK INTRA:                   0.834
REMARK UNBOUND:                 1.431
REMARK  8 active torsions:
REMARK  status: ('A' for Active; 'I' for Inactive)
REMARK    1  A    between atoms: C_13  and  C_15 
REMARK    2  A    between atoms: C_14  and  C_16 
REMARK    3  A    between atoms: C_15  and  C_22 
REMARK    4  A    between atoms: C_16  and  C_23 
REMARK    5  A    between atoms: C_17  and  C_21 
REMARK    6  A    between atoms: C_18  and  C_24 
REMARK    7  A    between atoms: C_19  and  C_27 
REMARK    8  A    between atoms: C_20  and  C_30 
ROOT
HETATM    1  O   UNL     1      30.170  21.648  29.445  1.00  0.00    -0.304 OA
HETATM    2  O   UNL     1      26.470  23.343  32.069  1.00  0.00    -0.304 OA
HETATM    3  O   UNL     1      29.765  22.809  34.370  1.00  0.00    -0.304 OA
HETATM    4  O   UNL     1      29.258  23.825  30.616  1.00  0.00    -0.270 OA
HETATM    5  O   UNL     1      28.917  20.192  30.725  1.00  0.00    -0.263 OA
HETATM    6  O   UNL     1      31.599  22.524  32.561  1.00  0.00    -0.270 OA
HETATM    7  O   UNL     1      25.033  25.140  32.123  1.00  0.00    -0.263 OA
HETATM    8  O   UNL     1      24.322  23.624  34.752  1.00  0.00    -0.270 OA
HETATM    9  O   UNL     1      28.315  22.224  36.066  1.00  0.00    -0.263 OA
HETATM   10  N   UNL     1      27.189  23.838  29.566  1.00  0.00    -0.340 N 
HETATM   11  N   UNL     1      31.149  20.252  32.427  1.00  0.00    -0.340 N 
HETATM   12  N   UNL     1      26.539  24.166  35.160  1.00  0.00    -0.340 N 
HETATM   13  C   UNL     1      26.718  24.988  30.374  1.00  0.00     0.190 C 
HETATM   14  C   UNL     1      31.340  20.266  30.963  1.00  0.00     0.190 C 
HETATM   15  C   UNL     1      28.981  22.218  28.863  1.00  0.00     0.227 C 
HETATM   16  C   UNL     1      27.951  24.239  34.730  1.00  0.00     0.190 C 
HETATM   17  C   UNL     1      30.497  21.567  34.451  1.00  0.00     0.227 C 
HETATM   18  C   UNL     1      25.911  22.685  33.211  1.00  0.00     0.227 C 
HETATM   19  C   UNL     1      28.493  23.359  29.763  1.00  0.00     0.250 C 
HETATM   20  C   UNL     1      29.991  20.670  30.383  1.00  0.00     0.283 C 
HETATM   21  C   UNL     1      31.156  21.493  33.080  1.00  0.00     0.250 C 
HETATM   22  C   UNL     1      25.934  24.502  31.594  1.00  0.00     0.283 C 
HETATM   23  C   UNL     1      25.512  23.546  34.430  1.00  0.00     0.250 C 
HETATM   24  C   UNL     1      28.668  22.971  35.165  1.00  0.00     0.283 C 
HETATM   25  C   UNL     1      26.210  23.233  28.657  1.00  0.00     0.153 C 
HETATM   26  C   UNL     1      30.823  18.986  33.087  1.00  0.00     0.153 C 
HETATM   27  C   UNL     1      26.188  24.786  36.438  1.00  0.00     0.153 C 
ENDROOT
BRANCH  15  28
HETATM   28  C   UNL     1      29.371  22.761  27.494  1.00  0.00     0.016 C 
HETATM   29  C   UNL     1      30.010  24.142  27.624  1.00  0.00     0.012 C 
HETATM   30  C   UNL     1      30.320  21.797  26.783  1.00  0.00     0.012 C 
ENDBRANCH  15  28
BRANCH  14  31
HETATM   31  C   UNL     1      31.805  18.965  30.325  1.00  0.00     0.014 C 
HETATM   32  C   UNL     1      30.888  18.607  29.153  1.00  0.00     0.012 C 
BRANCH  31  33
HETATM   33  C   UNL     1      33.265  19.039  29.842  1.00  0.00     0.002 C 
HETATM   34  C   UNL     1      33.812  20.459  29.774  1.00  0.00     0.005 C 
ENDBRANCH  31  33
ENDBRANCH  14  31
BRANCH  13  35
HETATM   35  C   UNL     1      25.919  26.010  29.567  1.00  0.00     0.014 C 
HETATM   36  C   UNL     1      25.943  27.366  30.277  1.00  0.00     0.012 C 
BRANCH  35  37
HETATM   37  C   UNL     1      26.449  26.167  28.130  1.00  0.00     0.002 C 
HETATM   38  C   UNL     1      26.033  27.471  27.466  1.00  0.00     0.005 C 
ENDBRANCH  35  37
ENDBRANCH  13  35
BRANCH  17  39
HETATM   39  C   UNL     1      31.544  21.644  35.547  1.00  0.00     0.016 C 
HETATM   40  C   UNL     1      32.867  21.052  35.069  1.00  0.00     0.012 C 
HETATM   41  C   UNL     1      31.058  20.927  36.805  1.00  0.00     0.012 C 
ENDBRANCH  17  39
BRANCH  18  42
HETATM   42  C   UNL     1      24.741  21.830  32.722  1.00  0.00     0.016 C 
HETATM   43  C   UNL     1      25.130  21.046  31.470  1.00  0.00     0.012 C 
HETATM   44  C   UNL     1      24.269  20.882  33.823  1.00  0.00     0.012 C 
ENDBRANCH  18  42
BRANCH  16  45
HETATM   45  C   UNL     1      28.715  25.467  35.223  1.00  0.00     0.010 C 
HETATM   46  C   UNL     1      29.235  26.289  34.044  1.00  0.00     0.012 C 
HETATM   47  C   UNL     1      29.868  25.056  36.138  1.00  0.00     0.012 C 
ENDBRANCH  16  45
TORSDOF 8
ENDMDL
MODEL 5
REMARK VINA RESULT:    -7.002      2.022      6.273
REMARK INTER + INTRA:          -8.845
REMARK INTER:                  -9.840
REMARK INTRA:                   0.995
REMARK UNBOUND:                 1.431
REMARK  8 active torsions:
REMARK  status: ('A' for Active; 'I' for Inactive)
REMARK    1  A    between atoms: C_13  and  C_15 
REMARK    2  A    between atoms: C_14  and  C_16 
REMARK    3  A    between atoms: C_15  and  C_22 
REMARK    4  A    between atoms: C_16  and  C_23 
REMARK    5  A    between atoms: C_17  and  C_21 
REMARK    6  A    between atoms: C_18  and  C_24 
REMARK    7  A    between atoms: C_19  and  C_27 
REMARK    8  A    between atoms: C_20  and  C_30 
ROOT
HETATM    1  O   UNL     1      26.000  25.255  32.392  1.00  0.00    -0.304 OA
HETATM    2  O   UNL     1      27.612  20.689  32.441  1.00  0.00    -0.304 OA
HETATM    3  O   UNL     1      29.578  22.900  29.669  1.00  0.00    -0.304 OA
HETATM    4  O   UNL     1      28.025  23.758  33.166  1.00  0.00    -0.270 OA
HETATM    5  O   UNL     1      25.240  23.759  30.807  1.00  0.00    -0.263 OA
HETATM    6  O   UNL     1      28.906  25.301  30.374  1.00  0.00    -0.270 OA
HETATM    7  O   UNL     1      28.542  19.171  33.899  1.00  0.00    -0.263 OA
HETATM    8  O   UNL     1      28.685  17.667  31.173  1.00  0.00    -0.270 OA
HETATM    9  O   UNL     1      29.652  20.979  28.393  1.00  0.00    -0.263 OA
HETATM   10  N   UNL     1      26.775  22.252  34.411  1.00  0.00    -0.340 N 
HETATM   11  N   UNL     1      26.972  25.161  29.099  1.00  0.00    -0.340 N 
HETATM   12  N   UNL     1      30.032  19.499  30.719  1.00  0.00    -0.340 N 
HETATM   13  C   UNL     1      27.956  21.399  34.680  1.00  0.00     0.190 C 
HETATM   14  C   UNL     1      26.202  25.890  30.125  1.00  0.00     0.190 C 
HETATM   15  C   UNL     1      25.717  24.326  33.457  1.00  0.00     0.227 C 
HETATM   16  C   UNL     1      30.288  20.954  30.753  1.00  0.00     0.190 C 
HETATM   17  C   UNL     1      28.921  23.664  28.635  1.00  0.00     0.227 C 
HETATM   18  C   UNL     1      27.595  19.806  31.314  1.00  0.00     0.227 C 
HETATM   19  C   UNL     1      26.941  23.424  33.657  1.00  0.00     0.250 C 
HETATM   20  C   UNL     1      25.745  24.830  31.117  1.00  0.00     0.283 C 
HETATM   21  C   UNL     1      28.286  24.798  29.430  1.00  0.00     0.250 C 
HETATM   22  C   UNL     1      28.042  20.263  33.661  1.00  0.00     0.283 C 
HETATM   23  C   UNL     1      28.818  18.892  31.082  1.00  0.00     0.250 C 
HETATM   24  C   UNL     1      29.810  21.573  29.449  1.00  0.00     0.283 C 
HETATM   25  C   UNL     1      25.485  21.756  34.902  1.00  0.00     0.153 C 
HETATM   26  C   UNL     1      26.294  24.734  27.872  1.00  0.00     0.153 C 
HETATM   27  C   UNL     1      31.122  18.630  30.276  1.00  0.00     0.153 C 
ENDROOT
BRANCH  15  28
HETATM   28  C   UNL     1      25.463  25.152  34.712  1.00  0.00     0.016 C 
HETATM   29  C   UNL     1      26.385  26.369  34.752  1.00  0.00     0.012 C 
HETATM   30  C   UNL     1      24.000  25.585  34.785  1.00  0.00     0.012 C 
ENDBRANCH  15  28
BRANCH  14  31
HETATM   31  C   UNL     1      25.001  26.689  29.635  1.00  0.00     0.014 C 
HETATM   32  C   UNL     1      24.073  27.000  30.812  1.00  0.00     0.012 C 
BRANCH  31  33
HETATM   33  C   UNL     1      25.414  27.995  28.935  1.00  0.00     0.002 C 
HETATM   34  C   UNL     1      25.655  29.152  29.897  1.00  0.00     0.005 C 
ENDBRANCH  31  33
ENDBRANCH  14  31
BRANCH  13  35
HETATM   35  C   UNL     1      28.009  20.870  36.113  1.00  0.00     0.014 C 
HETATM   36  C   UNL     1      28.130  22.040  37.093  1.00  0.00     0.012 C 
BRANCH  35  37
HETATM   37  C   UNL     1      26.778  20.018  36.470  1.00  0.00     0.002 C 
HETATM   38  C   UNL     1      26.576  19.838  37.968  1.00  0.00     0.005 C 
ENDBRANCH  35  37
ENDBRANCH  13  35
BRANCH  17  39
HETATM   39  C   UNL     1      29.942  24.204  27.650  1.00  0.00     0.016 C 
HETATM   40  C   UNL     1      31.120  24.832  28.390  1.00  0.00     0.012 C 
HETATM   41  C   UNL     1      29.296  25.218  26.709  1.00  0.00     0.012 C 
ENDBRANCH  17  39
BRANCH  18  42
HETATM   42  C   UNL     1      26.298  18.998  31.382  1.00  0.00     0.016 C 
HETATM   43  C   UNL     1      25.161  19.848  31.951  1.00  0.00     0.012 C 
HETATM   44  C   UNL     1      25.925  18.460  30.003  1.00  0.00     0.012 C 
ENDBRANCH  18  42
BRANCH  16  45
HETATM   45  C   UNL     1      31.739  21.349  31.018  1.00  0.00     0.010 C 
HETATM   46  C   UNL     1      31.825  22.350  32.170  1.00  0.00     0.012 C 
HETATM   47  C   UNL     1      32.381  21.928  29.758  1.00  0.00     0.012 C 
ENDBRANCH  16  45
TORSDOF 8
ENDMDL
MODEL 6
REMARK VINA RESULT:    -6.976      2.490      6.325
REMARK INTER + INTRA:          -8.807
REMARK INTER:                  -9.689
REMARK INTRA:                   0.881
REMARK UNBOUND:                 1.431
REMARK  8 active torsions:
REMARK  status: ('A' for Active; 'I' for Inactive)
REMARK    1  A    between atoms: C_13  and  C_15 
REMARK    2  A    between atoms: C_14  and  C_16 
REMARK    3  A    between atoms: C_15  and  C_22 
REMARK    4  A    between atoms: C_16  and  C_23 
REMARK    5  A    between atoms: C_17  and  C_21 
REMARK    6  A    between atoms: C_18  and  C_24 
REMARK    7  A    between atoms: C_19  and  C_27 
REMARK    8  A    between atoms: C_20  and  C_30 
ROOT
HETATM    1  O   UNL     1      30.795  23.094  30.007  1.00  0.00    -0.304 OA
HETATM    2  O   UNL     1      26.333  22.188  31.658  1.00  0.00    -0.304 OA
HETATM    3  O   UNL     1      29.119  21.480  34.518  1.00  0.00    -0.304 OA
HETATM    4  O   UNL     1      28.906  24.058  31.570  1.00  0.00    -0.270 OA
HETATM    5  O   UNL     1      30.023  20.919  30.077  1.00  0.00    -0.263 OA
HETATM    6  O   UNL     1      31.196  22.641  33.493  1.00  0.00    -0.270 OA
HETATM    7  O   UNL     1      24.315  23.258  31.940  1.00  0.00    -0.263 OA
HETATM    8  O   UNL     1      23.822  20.505  33.316  1.00  0.00    -0.270 OA
HETATM    9  O   UNL     1      27.751  19.763  35.227  1.00  0.00    -0.263 OA
HETATM   10  N   UNL     1      27.217  24.040  29.979  1.00  0.00    -0.340 N 
HETATM   11  N   UNL     1      31.717  20.715  32.307  1.00  0.00    -0.340 N 
HETATM   12  N   UNL     1      25.535  21.340  34.638  1.00  0.00    -0.340 N 
HETATM   13  C   UNL     1      26.196  24.457  30.968  1.00  0.00     0.190 C 
HETATM   14  C   UNL     1      32.136  21.510  31.136  1.00  0.00     0.190 C 
HETATM   15  C   UNL     1      29.597  23.536  29.338  1.00  0.00     0.227 C 
HETATM   16  C   UNL     1      26.853  21.993  34.784  1.00  0.00     0.190 C 
HETATM   17  C   UNL     1      30.258  20.612  34.334  1.00  0.00     0.227 C 
HETATM   18  C   UNL     1      25.894  20.927  32.170  1.00  0.00     0.227 C 
HETATM   19  C   UNL     1      28.549  23.895  30.397  1.00  0.00     0.250 C 
HETATM   20  C   UNL     1      30.860  21.771  30.347  1.00  0.00     0.283 C 
HETATM   21  C   UNL     1      31.117  21.413  33.365  1.00  0.00     0.250 C 
HETATM   22  C   UNL     1      25.472  23.237  31.540  1.00  0.00     0.283 C 
HETATM   23  C   UNL     1      24.982  20.920  33.417  1.00  0.00     0.250 C 
HETATM   24  C   UNL     1      27.928  20.923  34.885  1.00  0.00     0.283 C 
HETATM   25  C   UNL     1      26.732  23.733  28.629  1.00  0.00     0.153 C 
HETATM   26  C   UNL     1      31.812  19.255  32.245  1.00  0.00     0.153 C 
HETATM   27  C   UNL     1      24.751  21.118  35.853  1.00  0.00     0.153 C 
ENDROOT
BRANCH  15  28
HETATM   28  C   UNL     1      29.970  24.771  28.528  1.00  0.00     0.016 C 
HETATM   29  C   UNL     1      31.484  24.977  28.524  1.00  0.00     0.012 C 
HETATM   30  C   UNL     1      29.442  24.660  27.099  1.00  0.00     0.012 C 
ENDBRANCH  15  28
BRANCH  14  31
HETATM   31  C   UNL     1      33.183  20.881  30.226  1.00  0.00     0.014 C 
HETATM   32  C   UNL     1      32.977  21.364  28.789  1.00  0.00     0.012 C 
BRANCH  31  33
HETATM   33  C   UNL     1      34.619  21.196  30.682  1.00  0.00     0.002 C 
HETATM   34  C   UNL     1      35.530  19.977  30.713  1.00  0.00     0.005 C 
ENDBRANCH  31  33
ENDBRANCH  14  31
BRANCH  13  35
HETATM   35  C   UNL     1      25.209  25.489  30.424  1.00  0.00     0.014 C 
HETATM   36  C   UNL     1      24.345  26.032  31.564  1.00  0.00     0.012 C 
BRANCH  35  37
HETATM   37  C   UNL     1      25.914  26.653  29.705  1.00  0.00     0.002 C 
HETATM   38  C   UNL     1      26.749  27.525  30.632  1.00  0.00     0.005 C 
ENDBRANCH  35  37
ENDBRANCH  13  35
BRANCH  17  39
HETATM   39  C   UNL     1      30.981  20.409  35.653  1.00  0.00     0.016 C 
HETATM   40  C   UNL     1      30.980  21.698  36.470  1.00  0.00     0.012 C 
HETATM   41  C   UNL     1      32.410  19.927  35.412  1.00  0.00     0.012 C 
ENDBRANCH  17  39
BRANCH  18  42
HETATM   42  C   UNL     1      25.263  20.153  31.012  1.00  0.00     0.016 C 
HETATM   43  C   UNL     1      25.692  20.746  29.669  1.00  0.00     0.012 C 
HETATM   44  C   UNL     1      25.633  18.673  31.086  1.00  0.00     0.012 C 
ENDBRANCH  18  42
BRANCH  16  45
HETATM   45  C   UNL     1      26.968  22.963  35.958  1.00  0.00     0.010 C 
HETATM   46  C   UNL     1      27.761  24.206  35.557  1.00  0.00     0.012 C 
HETATM   47  C   UNL     1      27.617  22.281  37.162  1.00  0.00     0.012 C 
ENDBRANCH  16  45
TORSDOF 8
ENDMDL
MODEL 7
REMARK VINA RESULT:    -6.961      2.461      6.198
REMARK INTER + INTRA:          -8.786
REMARK INTER:                  -9.064
REMARK INTRA:                   0.278
REMARK UNBOUND:                 1.431
REMARK  8 active torsions:
REMARK  status: ('A' for Active; 'I' for Inactive)
REMARK    1  A    between atoms: C_13  and  C_15 
REMARK    2  A    between atoms: C_14  and  C_16 
REMARK    3  A    between atoms: C_15  and  C_22 
REMARK    4  A    between atoms: C_16  and  C_23 
REMARK    5  A    between atoms: C_17  and  C_21 
REMARK    6  A    between atoms: C_18  and  C_24 
REMARK    7  A    between atoms: C_19  and  C_27 
REMARK    8  A    between atoms: C_20  and  C_30 
ROOT
HETATM    1  O   UNL     1      28.616  24.877  30.169  1.00  0.00    -0.304 OA
HETATM    2  O   UNL     1      26.465  20.864  31.818  1.00  0.00    -0.304 OA
HETATM    3  O   UNL     1      30.487  20.662  32.290  1.00  0.00    -0.304 OA
HETATM    4  O   UNL     1      27.927  23.632  32.386  1.00  0.00    -0.270 OA
HETATM    5  O   UNL     1      28.573  22.981  28.853  1.00  0.00    -0.263 OA
HETATM    6  O   UNL     1      31.162  23.133  31.899  1.00  0.00    -0.270 OA
HETATM    7  O   UNL     1      24.868  20.231  33.350  1.00  0.00    -0.263 OA
HETATM    8  O   UNL     1      25.970  17.493  32.348  1.00  0.00    -0.270 OA
HETATM    9  O   UNL     1      30.281  18.402  31.874  1.00  0.00    -0.263 OA
HETATM   10  N   UNL     1      25.679  23.395  31.864  1.00  0.00    -0.340 N 
HETATM   11  N   UNL     1      31.268  22.768  29.610  1.00  0.00    -0.340 N 
HETATM   12  N   UNL     1      27.884  18.402  33.289  1.00  0.00    -0.340 N 
HETATM   13  C   UNL     1      25.419  22.584  33.077  1.00  0.00     0.190 C 
HETATM   14  C   UNL     1      30.684  24.096  29.337  1.00  0.00     0.190 C 
HETATM   15  C   UNL     1      27.199  24.782  30.416  1.00  0.00     0.227 C 
HETATM   16  C   UNL     1      28.820  19.530  33.477  1.00  0.00     0.190 C 
HETATM   17  C   UNL     1      31.433  20.860  31.217  1.00  0.00     0.227 C 
HETATM   18  C   UNL     1      26.736  19.541  31.346  1.00  0.00     0.227 C 
HETATM   19  C   UNL     1      26.974  23.884  31.639  1.00  0.00     0.250 C 
HETATM   20  C   UNL     1      29.176  23.895  29.401  1.00  0.00     0.283 C 
HETATM   21  C   UNL     1      31.305  22.354  30.949  1.00  0.00     0.250 C 
HETATM   22  C   UNL     1      25.502  21.092  32.754  1.00  0.00     0.283 C 
HETATM   23  C   UNL     1      26.813  18.396  32.380  1.00  0.00     0.250 C 
HETATM   24  C   UNL     1      29.940  19.422  32.454  1.00  0.00     0.283 C 
HETATM   25  C   UNL     1      24.554  23.565  30.939  1.00  0.00     0.153 C 
HETATM   26  C   UNL     1      31.636  21.909  28.482  1.00  0.00     0.153 C 
HETATM   27  C   UNL     1      28.088  17.209  34.110  1.00  0.00     0.153 C 
ENDROOT
BRANCH  15  28
HETATM   28  C   UNL     1      26.701  26.192  30.703  1.00  0.00     0.016 C 
HETATM   29  C   UNL     1      27.663  26.924  31.637  1.00  0.00     0.012 C 
HETATM   30  C   UNL     1      26.518  26.975  29.404  1.00  0.00     0.012 C 
ENDBRANCH  15  28
BRANCH  14  31
HETATM   31  C   UNL     1      31.061  24.746  28.013  1.00  0.00     0.014 C 
HETATM   32  C   UNL     1      29.841  25.454  27.419  1.00  0.00     0.012 C 
BRANCH  31  33
HETATM   33  C   UNL     1      32.223  25.743  28.161  1.00  0.00     0.002 C 
HETATM   34  C   UNL     1      33.572  25.176  27.738  1.00  0.00     0.005 C 
ENDBRANCH  31  33
ENDBRANCH  14  31
BRANCH  13  35
HETATM   35  C   UNL     1      24.103  22.935  33.771  1.00  0.00     0.014 C 
HETATM   36  C   UNL     1      24.077  22.323  35.174  1.00  0.00     0.012 C 
BRANCH  35  37
HETATM   37  C   UNL     1      23.873  24.454  33.861  1.00  0.00     0.002 C 
HETATM   38  C   UNL     1      24.743  25.140  34.905  1.00  0.00     0.005 C 
ENDBRANCH  35  37
ENDBRANCH  13  35
BRANCH  17  39
HETATM   39  C   UNL     1      32.836  20.516  31.685  1.00  0.00     0.016 C 
HETATM   40  C   UNL     1      33.731  21.752  31.651  1.00  0.00     0.012 C 
HETATM   41  C   UNL     1      33.429  19.401  30.826  1.00  0.00     0.012 C 
ENDBRANCH  17  39
BRANCH  18  42
HETATM   42  C   UNL     1      25.725  19.230  30.242  1.00  0.00     0.016 C 
HETATM   43  C   UNL     1      25.454  20.471  29.392  1.00  0.00     0.012 C 
HETATM   44  C   UNL     1      26.219  18.080  29.366  1.00  0.00     0.012 C 
ENDBRANCH  18  42
BRANCH  16  45
HETATM   45  C   UNL     1      29.406  19.657  34.882  1.00  0.00     0.010 C 
HETATM   46  C   UNL     1      29.107  21.036  35.470  1.00  0.00     0.012 C 
HETATM   47  C   UNL     1      30.912  19.399  34.866  1.00  0.00     0.012 C 
ENDBRANCH  16  45
TORSDOF 8
ENDMDL
MODEL 8
REMARK VINA RESULT:    -6.904      2.388      7.302
REMARK INTER + INTRA:          -8.702
REMARK INTER:                 -10.229
REMARK INTRA:                   1.527
REMARK UNBOUND:                 1.431
REMARK  8 active torsions:
REMARK  status: ('A' for Active; 'I' for Inactive)
REMARK    1  A    between atoms: C_13  and  C_15 
REMARK    2  A    between atoms: C_14  and  C_16 
REMARK    3  A    between atoms: C_15  and  C_22 
REMARK    4  A    between atoms: C_16  and  C_23 
REMARK    5  A    between atoms: C_17  and  C_21 
REMARK    6  A    between atoms: C_18  and  C_24 
REMARK    7  A    between atoms: C_19  and  C_27 
REMARK    8  A    between atoms: C_20  and  C_30 
ROOT
HETATM    1  O   UNL     1      26.910  19.722  31.058  1.00  0.00    -0.304 OA
HETATM    2  O   UNL     1      25.846  23.573  33.795  1.00  0.00    -0.304 OA
HETATM    3  O   UNL     1      28.519  21.156  35.654  1.00  0.00    -0.304 OA
HETATM    4  O   UNL     1      27.871  22.031  31.886  1.00  0.00    -0.270 OA
HETATM    5  O   UNL     1      25.378  19.516  32.772  1.00  0.00    -0.263 OA
HETATM    6  O   UNL     1      29.270  19.637  33.693  1.00  0.00    -0.270 OA
HETATM    7  O   UNL     1      25.911  25.871  33.693  1.00  0.00    -0.263 OA
HETATM    8  O   UNL     1      25.071  25.347  36.648  1.00  0.00    -0.270 OA
HETATM    9  O   UNL     1      27.484  21.762  37.624  1.00  0.00    -0.263 OA
HETATM   10  N   UNL     1      26.087  23.329  31.166  1.00  0.00    -0.340 N 
HETATM   11  N   UNL     1      27.486  18.206  34.086  1.00  0.00    -0.340 N 
HETATM   12  N   UNL     1      27.156  24.333  36.613  1.00  0.00    -0.340 N 
HETATM   13  C   UNL     1      26.648  24.553  31.786  1.00  0.00     0.190 C 
HETATM   14  C   UNL     1      27.284  18.005  32.637  1.00  0.00     0.190 C 
HETATM   15  C   UNL     1      26.240  20.894  30.551  1.00  0.00     0.227 C 
HETATM   16  C   UNL     1      28.148  23.442  35.978  1.00  0.00     0.190 C 
HETATM   17  C   UNL     1      28.308  19.745  35.876  1.00  0.00     0.227 C 
HETATM   18  C   UNL     1      25.296  23.508  35.114  1.00  0.00     0.227 C 
HETATM   19  C   UNL     1      26.806  22.128  31.265  1.00  0.00     0.250 C 
HETATM   20  C   UNL     1      26.393  19.156  32.190  1.00  0.00     0.283 C 
HETATM   21  C   UNL     1      28.423  19.178  34.467  1.00  0.00     0.250 C 
HETATM   22  C   UNL     1      26.056  24.770  33.179  1.00  0.00     0.283 C 
HETATM   23  C   UNL     1      25.830  24.491  36.179  1.00  0.00     0.250 C 
HETATM   24  C   UNL     1      27.996  22.042  36.551  1.00  0.00     0.283 C 
HETATM   25  C   UNL     1      24.763  23.456  30.550  1.00  0.00     0.153 C 
HETATM   26  C   UNL     1      26.613  17.502  35.028  1.00  0.00     0.153 C 
HETATM   27  C   UNL     1      27.589  25.107  37.777  1.00  0.00     0.153 C 
ENDROOT
BRANCH  15  28
HETATM   28  C   UNL     1      26.539  20.968  29.060  1.00  0.00     0.016 C 
HETATM   29  C   UNL     1      27.770  21.833  28.798  1.00  0.00     0.012 C 
HETATM   30  C   UNL     1      26.736  19.568  28.479  1.00  0.00     0.012 C 
ENDBRANCH  15  28
BRANCH  14  31
HETATM   31  C   UNL     1      26.665  16.680  32.214  1.00  0.00     0.014 C 
HETATM   32  C   UNL     1      25.949  16.850  30.872  1.00  0.00     0.012 C 
BRANCH  31  33
HETATM   33  C   UNL     1      27.709  15.554  32.110  1.00  0.00     0.002 C 
HETATM   34  C   UNL     1      27.466  14.407  33.081  1.00  0.00     0.005 C 
ENDBRANCH  31  33
ENDBRANCH  14  31
BRANCH  13  35
HETATM   35  C   UNL     1      26.496  25.798  30.913  1.00  0.00     0.014 C 
HETATM   36  C   UNL     1      27.304  25.630  29.624  1.00  0.00     0.012 C 
BRANCH  35  37
HETATM   37  C   UNL     1      25.026  26.100  30.570  1.00  0.00     0.002 C 
HETATM   38  C   UNL     1      24.800  27.511  30.049  1.00  0.00     0.005 C 
ENDBRANCH  35  37
ENDBRANCH  13  35
BRANCH  17  39
HETATM   39  C   UNL     1      29.400  19.186  36.771  1.00  0.00     0.016 C 
HETATM   40  C   UNL     1      30.362  18.318  35.964  1.00  0.00     0.012 C 
HETATM   41  C   UNL     1      28.793  18.387  37.922  1.00  0.00     0.012 C 
ENDBRANCH  17  39
BRANCH  18  42
HETATM   42  C   UNL     1      23.775  23.597  34.983  1.00  0.00     0.016 C 
HETATM   43  C   UNL     1      23.262  22.598  33.947  1.00  0.00     0.012 C 
HETATM   44  C   UNL     1      23.102  23.360  36.333  1.00  0.00     0.012 C 
ENDBRANCH  18  42
BRANCH  16  45
HETATM   45  C   UNL     1      29.600  23.901  36.097  1.00  0.00     0.010 C 
HETATM   46  C   UNL     1      29.855  25.121  35.213  1.00  0.00     0.012 C 
HETATM   47  C   UNL     1      30.558  22.767  35.730  1.00  0.00     0.012 C 
ENDBRANCH  16  45
TORSDOF 8
ENDMDL
MODEL 9
REMARK VINA RESULT:    -6.903      2.045      4.501
REMARK INTER + INTRA:          -8.700
REMARK INTER:                 -10.219
REMARK INTRA:                   1.519
REMARK UNBOUND:                 1.431
REMARK  8 active torsions:
REMARK  status: ('A' for Active; 'I' for Inactive)
REMARK    1  A    between atoms: C_13  and  C_15 
REMARK    2  A    between atoms: C_14  and  C_16 
REMARK    3  A    between atoms: C_15  and  C_22 
REMARK    4  A    between atoms: C_16  and  C_23 
REMARK    5  A    between atoms: C_17  and  C_21 
REMARK    6  A    between atoms: C_18  and  C_24 
REMARK    7  A    between atoms: C_19  and  C_27 
REMARK    8  A    between atoms: C_20  and  C_30 
ROOT
HETATM    1  O   UNL     1      27.595  22.013  29.355  1.00  0.00    -0.304 OA
HETATM    2  O   UNL     1      27.695  21.216  34.130  1.00  0.00    -0.304 OA
HETATM    3  O   UNL     1      25.121  24.209  33.204  1.00  0.00    -0.304 OA
HETATM    4  O   UNL     1      26.215  20.944  31.327  1.00  0.00    -0.270 OA
HETATM    5  O   UNL     1      28.859  23.384  30.714  1.00  0.00    -0.263 OA
HETATM    6  O   UNL     1      24.893  23.900  30.642  1.00  0.00    -0.270 OA
HETATM    7  O   UNL     1      27.336  19.510  35.633  1.00  0.00    -0.263 OA
HETATM    8  O   UNL     1      27.777  21.972  37.493  1.00  0.00    -0.270 OA
HETATM    9  O   UNL     1      25.750  25.178  35.202  1.00  0.00    -0.263 OA
HETATM   10  N   UNL     1      27.895  19.537  32.088  1.00  0.00    -0.340 N 
HETATM   11  N   UNL     1      26.773  25.214  30.291  1.00  0.00    -0.340 N 
HETATM   12  N   UNL     1      25.878  22.643  36.343  1.00  0.00    -0.340 N 
HETATM   13  C   UNL     1      27.086  19.096  33.249  1.00  0.00     0.190 C 
HETATM   14  C   UNL     1      27.219  24.340  29.188  1.00  0.00     0.190 C 
HETATM   15  C   UNL     1      28.169  20.832  29.949  1.00  0.00     0.227 C 
HETATM   16  C   UNL     1      25.125  22.818  35.084  1.00  0.00     0.190 C 
HETATM   17  C   UNL     1      25.485  25.371  32.428  1.00  0.00     0.227 C 
HETATM   18  C   UNL     1      28.040  22.197  35.113  1.00  0.00     0.227 C 
HETATM   19  C   UNL     1      27.339  20.451  31.180  1.00  0.00     0.250 C 
HETATM   20  C   UNL     1      28.004  23.218  29.855  1.00  0.00     0.283 C 
HETATM   21  C   UNL     1      25.666  24.781  31.035  1.00  0.00     0.250 C 
HETATM   22  C   UNL     1      27.422  19.929  34.486  1.00  0.00     0.283 C 
HETATM   23  C   UNL     1      27.222  22.241  36.422  1.00  0.00     0.250 C 
HETATM   24  C   UNL     1      25.376  24.217  34.545  1.00  0.00     0.283 C 
HETATM   25  C   UNL     1      29.269  19.028  32.019  1.00  0.00     0.153 C 
HETATM   26  C   UNL     1      27.578  26.388  30.636  1.00  0.00     0.153 C 
HETATM   27  C   UNL     1      25.171  22.907  37.597  1.00  0.00     0.153 C 
ENDROOT
BRANCH  15  28
HETATM   28  C   UNL     1      28.095  19.727  28.904  1.00  0.00     0.016 C 
HETATM   29  C   UNL     1      26.645  19.321  28.649  1.00  0.00     0.012 C 
HETATM   30  C   UNL     1      28.764  20.169  27.603  1.00  0.00     0.012 C 
ENDBRANCH  15  28
BRANCH  14  31
HETATM   31  C   UNL     1      28.069  24.990  28.106  1.00  0.00     0.014 C 
HETATM   32  C   UNL     1      29.107  23.989  27.592  1.00  0.00     0.012 C 
BRANCH  31  33
HETATM   33  C   UNL     1      27.222  25.513  26.932  1.00  0.00     0.002 C 
HETATM   34  C   UNL     1      26.648  26.903  27.166  1.00  0.00     0.005 C 
ENDBRANCH  31  33
ENDBRANCH  14  31
BRANCH  13  35
HETATM   35  C   UNL     1      27.199  17.599  33.534  1.00  0.00     0.014 C 
HETATM   36  C   UNL     1      26.378  17.245  34.777  1.00  0.00     0.012 C 
BRANCH  35  37
HETATM   37  C   UNL     1      26.740  16.738  32.344  1.00  0.00     0.002 C 
HETATM   38  C   UNL     1      27.724  15.638  31.973  1.00  0.00     0.005 C 
ENDBRANCH  35  37
ENDBRANCH  13  35
BRANCH  17  39
HETATM   39  C   UNL     1      24.355  26.384  32.439  1.00  0.00     0.016 C 
HETATM   40  C   UNL     1      23.983  26.789  31.015  1.00  0.00     0.012 C 
HETATM   41  C   UNL     1      24.743  27.611  33.262  1.00  0.00     0.012 C 
ENDBRANCH  17  39
BRANCH  18  42
HETATM   42  C   UNL     1      29.537  22.059  35.394  1.00  0.00     0.016 C 
HETATM   43  C   UNL     1      30.287  21.631  34.133  1.00  0.00     0.012 C 
HETATM   44  C   UNL     1      30.107  23.368  35.937  1.00  0.00     0.012 C 
ENDBRANCH  18  42
BRANCH  16  45
HETATM   45  C   UNL     1      23.623  22.558  35.186  1.00  0.00     0.010 C 
HETATM   46  C   UNL     1      22.971  23.538  36.162  1.00  0.00     0.012 C 
HETATM   47  C   UNL     1      23.351  21.117  35.616  1.00  0.00     0.012 C 
ENDBRANCH  16  45
TORSDOF 8
ENDMDL
MODEL 10
REMARK VINA RESULT:    -6.763      2.789      7.154
REMARK INTER + INTRA:          -8.495
REMARK INTER:                  -9.240
REMARK INTRA:                   0.746
REMARK UNBOUND:                 1.431
REMARK  8 active torsions:
REMARK  status: ('A' for Active; 'I' for Inactive)
REMARK    1  A    between atoms: C_13  and  C_15 
REMARK    2  A    between atoms: C_14  and  C_16 
REMARK    3  A    between atoms: C_15  and  C_22 
REMARK    4  A    between atoms: C_16  and  C_23 
REMARK    5  A    between atoms: C_17  and  C_21 
REMARK    6  A    between atoms: C_18  and  C_24 
REMARK    7  A    between atoms: C_19  and  C_27 
REMARK    8  A    between atoms: C_20  and  C_30 
ROOT
HETATM    1  O   UNL     1      28.713  22.770  34.203  1.00  0.00    -0.304 OA
HETATM    2  O   UNL     1      31.041  20.292  30.755  1.00  0.00    -0.304 OA
HETATM    3  O   UNL     1      28.885  23.334  29.161  1.00  0.00    -0.304 OA
HETATM    4  O   UNL     1      30.776  22.892  32.569  1.00  0.00    -0.270 OA
HETATM    5  O   UNL     1      27.575  21.184  32.971  1.00  0.00    -0.263 OA
HETATM    6  O   UNL     1      28.342  24.726  31.278  1.00  0.00    -0.270 OA
HETATM    7  O   UNL     1      33.182  19.675  30.178  1.00  0.00    -0.263 OA
HETATM    8  O   UNL     1      31.512  18.696  27.735  1.00  0.00    -0.270 OA
HETATM    9  O   UNL     1      28.523  21.944  27.355  1.00  0.00    -0.263 OA
HETATM   10  N   UNL     1      31.754  20.897  33.235  1.00  0.00    -0.340 N 
HETATM   11  N   UNL     1      26.468  23.421  31.686  1.00  0.00    -0.340 N 
HETATM   12  N   UNL     1      31.118  20.978  27.631  1.00  0.00    -0.340 N 
HETATM   13  C   UNL     1      32.800  20.988  32.190  1.00  0.00     0.190 C 
HETATM   14  C   UNL     1      26.718  23.458  33.140  1.00  0.00     0.190 C 
HETATM   15  C   UNL     1      29.782  21.843  34.478  1.00  0.00     0.227 C 
HETATM   16  C   UNL     1      30.765  22.259  28.278  1.00  0.00     0.190 C 
HETATM   17  C   UNL     1      27.475  23.532  29.401  1.00  0.00     0.227 C 
HETATM   18  C   UNL     1      30.406  19.638  29.652  1.00  0.00     0.227 C 
HETATM   19  C   UNL     1      30.807  21.926  33.340  1.00  0.00     0.250 C 
HETATM   20  C   UNL     1      27.693  22.320  33.412  1.00  0.00     0.283 C 
HETATM   21  C   UNL     1      27.457  23.973  30.859  1.00  0.00     0.250 C 
HETATM   22  C   UNL     1      32.387  20.202  30.945  1.00  0.00     0.283 C 
HETATM   23  C   UNL     1      31.078  19.725  28.263  1.00  0.00     0.250 C 
HETATM   24  C   UNL     1      29.262  22.469  28.175  1.00  0.00     0.283 C 
HETATM   25  C   UNL     1      31.748  19.675  34.047  1.00  0.00     0.153 C 
HETATM   26  C   UNL     1      25.297  22.698  31.185  1.00  0.00     0.153 C 
HETATM   27  C   UNL     1      31.542  21.022  26.231  1.00  0.00     0.153 C 
ENDROOT
BRANCH  15  28
HETATM   28  C   UNL     1      30.420  22.276  35.791  1.00  0.00     0.016 C 
HETATM   29  C   UNL     1      30.029  23.713  36.133  1.00  0.00     0.012 C 
HETATM   30  C   UNL     1      30.021  21.330  36.923  1.00  0.00     0.012 C 
ENDBRANCH  15  28
BRANCH  14  31
HETATM   31  C   UNL     1      25.500  23.318  34.044  1.00  0.00     0.014 C 
HETATM   32  C   UNL     1      25.949  22.985  35.469  1.00  0.00     0.012 C 
BRANCH  31  33
HETATM   33  C   UNL     1      24.631  24.588  34.054  1.00  0.00     0.002 C 
HETATM   34  C   UNL     1      23.538  24.570  35.114  1.00  0.00     0.005 C 
ENDBRANCH  31  33
ENDBRANCH  14  31
BRANCH  13  35
HETATM   35  C   UNL     1      34.186  20.572  32.680  1.00  0.00     0.014 C 
HETATM   36  C   UNL     1      35.215  20.778  31.565  1.00  0.00     0.012 C 
BRANCH  35  37
HETATM   37  C   UNL     1      34.622  21.346  33.937  1.00  0.00     0.002 C 
HETATM   38  C   UNL     1      35.872  20.782  34.597  1.00  0.00     0.005 C 
ENDBRANCH  35  37
ENDBRANCH  13  35
BRANCH  17  39
HETATM   39  C   UNL     1      26.939  24.630  28.500  1.00  0.00     0.016 C 
HETATM   40  C   UNL     1      26.733  25.919  29.291  1.00  0.00     0.012 C 
HETATM   41  C   UNL     1      25.634  24.192  27.839  1.00  0.00     0.012 C 
ENDBRANCH  17  39
BRANCH  18  42
HETATM   42  C   UNL     1      30.154  18.186  30.060  1.00  0.00     0.016 C 
HETATM   43  C   UNL     1      29.796  18.096  31.544  1.00  0.00     0.012 C 
HETATM   44  C   UNL     1      29.050  17.568  29.205  1.00  0.00     0.012 C 
ENDBRANCH  18  42
BRANCH  16  45
HETATM   45  C   UNL     1      31.502  23.483  27.738  1.00  0.00     0.010 C 
HETATM   46  C   UNL     1      32.871  23.625  28.402  1.00  0.00     0.012 C 
HETATM   47  C   UNL     1      30.673  24.750  27.945  1.00  0.00     0.012 C 
ENDBRANCH  16  45
TORSDOF 8
ENDMDL
MODEL 11
REMARK VINA RESULT:    -6.369     18.682     22.564
REMARK INTER + INTRA:          -7.917
REMARK INTER:                  -8.870
REMARK INTRA:                   0.953
REMARK UNBOUND:                 1.431
REMARK  8 active torsions:
REMARK  status: ('A' for Active; 'I' for Inactive)
REMARK    1  A    between atoms: C_13  and  C_15 
REMARK    2  A    between atoms: C_14  and  C_16 
REMARK    3  A    between atoms: C_15  and  C_22 
REMARK    4  A    between atoms: C_16  and  C_23 
REMARK    5  A    between atoms: C_17  and  C_21 
REMARK    6  A    between atoms: C_18  and  C_24 
REMARK    7  A    between atoms: C_19  and  C_27 
REMARK    8  A    between atoms: C_20  and  C_30 
ROOT
HETATM    1  O   UNL     1      31.294  10.742  12.675  1.00  0.00    -0.304 OA
HETATM    2  O   UNL     1      34.045  10.601  16.658  1.00  0.00    -0.304 OA
HETATM    3  O   UNL     1      30.801   8.198  17.039  1.00  0.00    -0.304 OA
HETATM    4  O   UNL     1      33.019   9.234  13.975  1.00  0.00    -0.270 OA
HETATM    5  O   UNL     1      30.703  12.003  14.515  1.00  0.00    -0.263 OA
HETATM    6  O   UNL     1      29.982   8.068  14.584  1.00  0.00    -0.270 OA
HETATM    7  O   UNL     1      36.204  10.106  17.284  1.00  0.00    -0.263 OA
HETATM    8  O   UNL     1      34.791  10.569  20.024  1.00  0.00    -0.270 OA
HETATM    9  O   UNL     1      30.808   8.780  19.272  1.00  0.00    -0.263 OA
HETATM   10  N   UNL     1      34.708  10.819  14.100  1.00  0.00    -0.340 N 
HETATM   11  N   UNL     1      28.751  10.015  14.866  1.00  0.00    -0.340 N 
HETATM   12  N   UNL     1      33.590   8.752  19.229  1.00  0.00    -0.340 N 
HETATM   13  C   UNL     1      35.553   9.943  14.946  1.00  0.00     0.190 C 
HETATM   14  C   UNL     1      29.099  10.472  13.506  1.00  0.00     0.190 C 
HETATM   15  C   UNL     1      32.646  11.240  12.722  1.00  0.00     0.227 C 
HETATM   16  C   UNL     1      32.856   8.062  18.147  1.00  0.00     0.190 C 
HETATM   17  C   UNL     1      29.443   8.643  16.838  1.00  0.00     0.227 C 
HETATM   18  C   UNL     1      33.594  10.945  17.972  1.00  0.00     0.227 C 
HETATM   19  C   UNL     1      33.466  10.342  13.656  1.00  0.00     0.250 C 
HETATM   20  C   UNL     1      30.440  11.180  13.648  1.00  0.00     0.283 C 
HETATM   21  C   UNL     1      29.396   8.860  15.331  1.00  0.00     0.250 C 
HETATM   22  C   UNL     1      35.343  10.260  16.426  1.00  0.00     0.283 C 
HETATM   23  C   UNL     1      34.063  10.073  19.157  1.00  0.00     0.250 C 
HETATM   24  C   UNL     1      31.377   8.395  18.261  1.00  0.00     0.283 C 
HETATM   25  C   UNL     1      35.217  12.172  13.850  1.00  0.00     0.153 C 
HETATM   26  C   UNL     1      27.882  10.853  15.695  1.00  0.00     0.153 C 
HETATM   27  C   UNL     1      33.843   8.003  20.460  1.00  0.00     0.153 C 
ENDROOT
BRANCH  15  28
HETATM   28  C   UNL     1      33.198  11.165  11.304  1.00  0.00     0.016 C 
HETATM   29  C   UNL     1      32.377  10.196  10.456  1.00  0.00     0.012 C 
HETATM   30  C   UNL     1      33.223  12.550  10.661  1.00  0.00     0.012 C 
ENDBRANCH  15  28
BRANCH  14  31
HETATM   31  C   UNL     1      28.100  11.395  12.822  1.00  0.00     0.014 C 
HETATM   32  C   UNL     1      28.815  12.234  11.760  1.00  0.00     0.012 C 
BRANCH  31  33
HETATM   33  C   UNL     1      26.935  10.622  12.179  1.00  0.00     0.002 C 
HETATM   34  C   UNL     1      27.322   9.233  11.689  1.00  0.00     0.005 C 
ENDBRANCH  31  33
ENDBRANCH  14  31
BRANCH  13  35
HETATM   35  C   UNL     1      37.034   9.980  14.569  1.00  0.00     0.014 C 
HETATM   36  C   UNL     1      37.813  10.789  15.610  1.00  0.00     0.012 C 
BRANCH  35  37
HETATM   37  C   UNL     1      37.643   8.573  14.442  1.00  0.00     0.002 C 
HETATM   38  C   UNL     1      38.601   8.219  15.570  1.00  0.00     0.005 C 
ENDBRANCH  35  37
ENDBRANCH  13  35
BRANCH  17  39
HETATM   39  C   UNL     1      28.468   7.558  17.256  1.00  0.00     0.016 C 
HETATM   40  C   UNL     1      27.731   7.002  16.040  1.00  0.00     0.012 C 
HETATM   41  C   UNL     1      27.475   8.095  18.286  1.00  0.00     0.012 C 
ENDBRANCH  17  39
BRANCH  18  42
HETATM   42  C   UNL     1      33.922  12.421  18.200  1.00  0.00     0.016 C 
HETATM   43  C   UNL     1      33.693  13.229  16.922  1.00  0.00     0.012 C 
HETATM   44  C   UNL     1      33.090  12.988  19.347  1.00  0.00     0.012 C 
ENDBRANCH  18  42
BRANCH  16  45
HETATM   45  C   UNL     1      33.050   6.548  18.098  1.00  0.00     0.010 C 
HETATM   46  C   UNL     1      34.410   6.196  17.498  1.00  0.00     0.012 C 
HETATM   47  C   UNL     1      31.927   5.885  17.300  1.00  0.00     0.012 C 
ENDBRANCH  16  45
TORSDOF 8
ENDMDL
MODEL 12
REMARK VINA RESULT:    -6.245     17.670     22.014
REMARK INTER + INTRA:          -7.734
REMARK INTER:                  -8.417
REMARK INTRA:                   0.683
REMARK UNBOUND:                 1.431
REMARK  8 active torsions:
REMARK  status: ('A' for Active; 'I' for Inactive)
REMARK    1  A    between atoms: C_13  and  C_15 
REMARK    2  A    between atoms: C_14  and  C_16 
REMARK    3  A    between atoms: C_15  and  C_22 
REMARK    4  A    between atoms: C_16  and  C_23 
REMARK    5  A    between atoms: C_17  and  C_21 
REMARK    6  A    between atoms: C_18  and  C_24 
REMARK    7  A    between atoms: C_19  and  C_27 
REMARK    8  A    between atoms: C_20  and  C_30 
ROOT
HETATM    1  O   UNL     1      37.813   3.855  25.040  1.00  0.00    -0.304 OA
HETATM    2  O   UNL     1      38.935   8.562  24.856  1.00  0.00    -0.304 OA
HETATM    3  O   UNL     1      37.821   7.474  28.599  1.00  0.00    -0.304 OA
HETATM    4  O   UNL     1      39.681   5.589  25.706  1.00  0.00    -0.270 OA
HETATM    5  O   UNL     1      36.128   5.425  24.886  1.00  0.00    -0.263 OA
HETATM    6  O   UNL     1      37.922   4.891  28.421  1.00  0.00    -0.270 OA
HETATM    7  O   UNL     1      40.700   9.926  24.289  1.00  0.00    -0.263 OA
HETATM    8  O   UNL     1      38.637  11.943  25.467  1.00  0.00    -0.270 OA
HETATM    9  O   UNL     1      36.892   9.578  28.783  1.00  0.00    -0.263 OA
HETATM   10  N   UNL     1      39.976   6.482  23.585  1.00  0.00    -0.340 N 
HETATM   11  N   UNL     1      35.750   4.837  27.605  1.00  0.00    -0.340 N 
HETATM   12  N   UNL     1      39.025  10.602  27.319  1.00  0.00    -0.340 N 
HETATM   13  C   UNL     1      40.919   7.512  24.082  1.00  0.00     0.190 C 
HETATM   14  C   UNL     1      36.096   3.757  26.660  1.00  0.00     0.190 C 
HETATM   15  C   UNL     1      38.525   4.458  23.941  1.00  0.00     0.227 C 
HETATM   16  C   UNL     1      39.167   9.269  27.942  1.00  0.00     0.190 C 
HETATM   17  C   UNL     1      36.579   6.805  28.906  1.00  0.00     0.227 C 
HETATM   18  C   UNL     1      38.044   9.627  25.204  1.00  0.00     0.227 C 
HETATM   19  C   UNL     1      39.438   5.558  24.494  1.00  0.00     0.250 C 
HETATM   20  C   UNL     1      36.649   4.460  25.428  1.00  0.00     0.283 C 
HETATM   21  C   UNL     1      36.808   5.418  28.319  1.00  0.00     0.250 C 
HETATM   22  C   UNL     1      40.182   8.819  24.372  1.00  0.00     0.283 C 
HETATM   23  C   UNL     1      38.610  10.826  25.996  1.00  0.00     0.250 C 
HETATM   24  C   UNL     1      37.818   8.835  28.494  1.00  0.00     0.283 C 
HETATM   25  C   UNL     1      39.615   6.557  22.165  1.00  0.00     0.153 C 
HETATM   26  C   UNL     1      34.373   5.335  27.640  1.00  0.00     0.153 C 
HETATM   27  C   UNL     1      39.343  11.771  28.140  1.00  0.00     0.153 C 
ENDROOT
BRANCH  15  28
HETATM   28  C   UNL     1      39.359   3.359  23.295  1.00  0.00     0.016 C 
HETATM   29  C   UNL     1      40.741   3.281  23.940  1.00  0.00     0.012 C 
HETATM   30  C   UNL     1      38.646   2.012  23.394  1.00  0.00     0.012 C 
ENDBRANCH  15  28
BRANCH  14  31
HETATM   31  C   UNL     1      34.966   2.820  26.255  1.00  0.00     0.014 C 
HETATM   32  C   UNL     1      35.144   2.398  24.795  1.00  0.00     0.012 C 
BRANCH  31  33
HETATM   33  C   UNL     1      34.891   1.573  27.153  1.00  0.00     0.002 C 
HETATM   34  C   UNL     1      36.210   1.228  27.830  1.00  0.00     0.005 C 
ENDBRANCH  31  33
ENDBRANCH  14  31
BRANCH  13  35
HETATM   35  C   UNL     1      42.115   7.736  23.158  1.00  0.00     0.014 C 
HETATM   36  C   UNL     1      43.229   8.461  23.918  1.00  0.00     0.012 C 
BRANCH  35  37
HETATM   37  C   UNL     1      42.657   6.421  22.570  1.00  0.00     0.002 C 
HETATM   38  C   UNL     1      43.910   5.912  23.268  1.00  0.00     0.005 C 
ENDBRANCH  35  37
ENDBRANCH  13  35
BRANCH  17  39
HETATM   39  C   UNL     1      36.382   6.727  30.409  1.00  0.00     0.016 C 
HETATM   40  C   UNL     1      36.279   5.272  30.862  1.00  0.00     0.012 C 
HETATM   41  C   UNL     1      35.139   7.509  30.829  1.00  0.00     0.012 C 
ENDBRANCH  17  39
BRANCH  18  42
HETATM   42  C   UNL     1      37.348  10.083  23.921  1.00  0.00     0.016 C 
HETATM   43  C   UNL     1      37.007   8.884  23.035  1.00  0.00     0.012 C 
HETATM   44  C   UNL     1      36.088  10.884  24.245  1.00  0.00     0.012 C 
ENDBRANCH  18  42
BRANCH  16  45
HETATM   45  C   UNL     1      40.233   9.174  29.031  1.00  0.00     0.010 C 
HETATM   46  C   UNL     1      41.584   8.786  28.432  1.00  0.00     0.012 C 
HETATM   47  C   UNL     1      39.819   8.173  30.108  1.00  0.00     0.012 C 
ENDBRANCH  16  45
TORSDOF 8
ENDMDL
MODEL 13
REMARK VINA RESULT:    -6.239     15.294     19.926
REMARK INTER + INTRA:          -7.725
REMARK INTER:                  -8.539
REMARK INTRA:                   0.813
REMARK UNBOUND:                 1.431
REMARK  8 active torsions:
REMARK  status: ('A' for Active; 'I' for Inactive)
REMARK    1  A    between atoms: C_13  and  C_15 
REMARK    2  A    between atoms: C_14  and  C_16 
REMARK    3  A    between atoms: C_15  and  C_22 
REMARK    4  A    between atoms: C_16  and  C_23 
REMARK    5  A    between atoms: C_17  and  C_21 
REMARK    6  A    between atoms: C_18  and  C_24 
REMARK    7  A    between atoms: C_19  and  C_27 
REMARK    8  A    between atoms: C_20  and  C_30 
ROOT
HETATM    1  O   UNL     1      42.688  10.444  29.641  1.00  0.00    -0.304 OA
HETATM    2  O   UNL     1      41.772  15.188  29.313  1.00  0.00    -0.304 OA
HETATM    3  O   UNL     1      44.091  14.370  32.536  1.00  0.00    -0.304 OA
HETATM    4  O   UNL     1      43.783  12.746  28.979  1.00  0.00    -0.270 OA
HETATM    5  O   UNL     1      41.029  11.379  30.945  1.00  0.00    -0.263 OA
HETATM    6  O   UNL     1      44.843  11.946  32.011  1.00  0.00    -0.270 OA
HETATM    7  O   UNL     1      42.041  16.930  27.832  1.00  0.00    -0.263 OA
HETATM    8  O   UNL     1      40.955  18.364  30.378  1.00  0.00    -0.270 OA
HETATM    9  O   UNL     1      42.978  16.089  33.597  1.00  0.00    -0.263 OA
HETATM   10  N   UNL     1      42.172  13.366  27.429  1.00  0.00    -0.340 N 
HETATM   11  N   UNL     1      42.920  11.108  33.002  1.00  0.00    -0.340 N 
HETATM   12  N   UNL     1      42.943  17.494  31.196  1.00  0.00    -0.340 N 
HETATM   13  C   UNL     1      42.792  14.697  27.225  1.00  0.00     0.190 C 
HETATM   14  C   UNL     1      42.802  10.061  31.969  1.00  0.00     0.190 C 
HETATM   15  C   UNL     1      42.158  11.068  28.454  1.00  0.00     0.227 C 
HETATM   16  C   UNL     1      43.897  16.376  31.350  1.00  0.00     0.190 C 
HETATM   17  C   UNL     1      43.745  13.403  33.551  1.00  0.00     0.227 C 
HETATM   18  C   UNL     1      41.127  15.965  30.326  1.00  0.00     0.227 C 
HETATM   19  C   UNL     1      42.777  12.465  28.319  1.00  0.00     0.250 C 
HETATM   20  C   UNL     1      42.046  10.711  30.818  1.00  0.00     0.283 C 
HETATM   21  C   UNL     1      43.908  12.084  32.807  1.00  0.00     0.250 C 
HETATM   22  C   UNL     1      42.126  15.742  28.120  1.00  0.00     0.283 C 
HETATM   23  C   UNL     1      41.669  17.383  30.616  1.00  0.00     0.250 C 
HETATM   24  C   UNL     1      43.585  15.633  32.640  1.00  0.00     0.283 C 
HETATM   25  C   UNL     1      40.910  13.118  26.725  1.00  0.00     0.153 C 
HETATM   26  C   UNL     1      41.926  11.158  34.078  1.00  0.00     0.153 C 
HETATM   27  C   UNL     1      43.359  18.810  31.680  1.00  0.00     0.153 C 
ENDROOT
BRANCH  15  28
HETATM   28  C   UNL     1      42.565  10.198  27.273  1.00  0.00     0.016 C 
HETATM   29  C   UNL     1      43.778   9.340  27.628  1.00  0.00     0.012 C 
HETATM   30  C   UNL     1      41.399   9.317  26.825  1.00  0.00     0.012 C 
ENDBRANCH  15  28
BRANCH  14  31
HETATM   31  C   UNL     1      42.103   8.773  32.382  1.00  0.00     0.014 C 
HETATM   32  C   UNL     1      41.418   8.144  31.166  1.00  0.00     0.012 C 
BRANCH  31  33
HETATM   33  C   UNL     1      43.070   7.760  33.019  1.00  0.00     0.002 C 
HETATM   34  C   UNL     1      42.374   6.546  33.618  1.00  0.00     0.005 C 
ENDBRANCH  31  33
ENDBRANCH  14  31
BRANCH  13  35
HETATM   35  C   UNL     1      42.809  15.140  25.763  1.00  0.00     0.014 C 
HETATM   36  C   UNL     1      41.789  16.262  25.549  1.00  0.00     0.012 C 
BRANCH  35  37
HETATM   37  C   UNL     1      44.202  15.611  25.308  1.00  0.00     0.002 C 
HETATM   38  C   UNL     1      45.320  15.212  26.260  1.00  0.00     0.005 C 
ENDBRANCH  35  37
ENDBRANCH  13  35
BRANCH  17  39
HETATM   39  C   UNL     1      44.720  13.489  34.712  1.00  0.00     0.016 C 
HETATM   40  C   UNL     1      46.158  13.538  34.202  1.00  0.00     0.012 C 
HETATM   41  C   UNL     1      44.527  12.310  35.663  1.00  0.00     0.012 C 
ENDBRANCH  17  39
BRANCH  18  42
HETATM   42  C   UNL     1      39.632  15.992  30.005  1.00  0.00     0.016 C 
HETATM   43  C   UNL     1      39.196  14.681  29.352  1.00  0.00     0.012 C 
HETATM   44  C   UNL     1      38.814  16.259  31.267  1.00  0.00     0.012 C 
ENDBRANCH  18  42
BRANCH  16  45
HETATM   45  C   UNL     1      45.371  16.774  31.319  1.00  0.00     0.010 C 
HETATM   46  C   UNL     1      46.176  15.799  30.459  1.00  0.00     0.012 C 
HETATM   47  C   UNL     1      45.945  16.836  32.734  1.00  0.00     0.012 C 
ENDBRANCH  16  45
TORSDOF 8
ENDMDL
MODEL 14
REMARK VINA RESULT:    -6.143     15.623     20.542
REMARK INTER + INTRA:          -7.585
REMARK INTER:                  -7.912
REMARK INTRA:                   0.327
REMARK UNBOUND:                 1.431
REMARK  8 active torsions:
REMARK  status: ('A' for Active; 'I' for Inactive)
REMARK    1  A    between atoms: C_13  and  C_15 
REMARK    2  A    between atoms: C_14  and  C_16 
REMARK    3  A    between atoms: C_15  and  C_22 
REMARK    4  A    between atoms: C_16  and  C_23 
REMARK    5  A    between atoms: C_17  and  C_21 
REMARK    6  A    between atoms: C_18  and  C_24 
REMARK    7  A    between atoms: C_19  and  C_27 
REMARK    8  A    between atoms: C_20  and  C_30 
ROOT
HETATM    1  O   UNL     1      30.920  14.698  18.022  1.00  0.00    -0.304 OA
HETATM    2  O   UNL     1      30.880  10.306  15.983  1.00  0.00    -0.304 OA
HETATM    3  O   UNL     1      28.165  12.754  14.228  1.00  0.00    -0.304 OA
HETATM    4  O   UNL     1      31.673  13.385  15.867  1.00  0.00    -0.270 OA
HETATM    5  O   UNL     1      29.300  13.171  18.632  1.00  0.00    -0.263 OA
HETATM    6  O   UNL     1      28.918  15.064  15.128  1.00  0.00    -0.270 OA
HETATM    7  O   UNL     1      32.311   8.852  14.917  1.00  0.00    -0.263 OA
HETATM    8  O   UNL     1      29.554   7.428  14.624  1.00  0.00    -0.270 OA
HETATM    9  O   UNL     1      26.850  10.877  13.968  1.00  0.00    -0.263 OA
HETATM   10  N   UNL     1      32.879  11.739  16.971  1.00  0.00    -0.340 N 
HETATM   11  N   UNL     1      27.631  14.768  17.036  1.00  0.00    -0.340 N 
HETATM   12  N   UNL     1      29.145   9.389  13.456  1.00  0.00    -0.340 N 
HETATM   13  C   UNL     1      33.136  10.997  15.715  1.00  0.00     0.190 C 
HETATM   14  C   UNL     1      28.669  15.399  17.875  1.00  0.00     0.190 C 
HETATM   15  C   UNL     1      31.964  13.724  18.219  1.00  0.00     0.227 C 
HETATM   16  C   UNL     1      29.212  10.861  13.339  1.00  0.00     0.190 C 
HETATM   17  C   UNL     1      27.145  13.474  14.953  1.00  0.00     0.227 C 
HETATM   18  C   UNL     1      29.735   9.451  15.913  1.00  0.00     0.227 C 
HETATM   19  C   UNL     1      32.151  12.938  16.915  1.00  0.00     0.250 C 
HETATM   20  C   UNL     1      29.636  14.278  18.232  1.00  0.00     0.283 C 
HETATM   21  C   UNL     1      27.961  14.525  15.695  1.00  0.00     0.250 C 
HETATM   22  C   UNL     1      32.093   9.897  15.518  1.00  0.00     0.283 C 
HETATM   23  C   UNL     1      29.489   8.662  14.607  1.00  0.00     0.250 C 
HETATM   24  C   UNL     1      27.919  11.460  13.871  1.00  0.00     0.283 C 
HETATM   25  C   UNL     1      33.353  11.112  18.209  1.00  0.00     0.153 C 
HETATM   26  C   UNL     1      26.392  14.306  17.667  1.00  0.00     0.153 C 
HETATM   27  C   UNL     1      28.690   8.638  12.286  1.00  0.00     0.153 C 
ENDROOT
BRANCH  15  28
HETATM   28  C   UNL     1      33.235  14.494  18.554  1.00  0.00     0.016 C 
HETATM   29  C   UNL     1      33.375  15.721  17.654  1.00  0.00     0.012 C 
HETATM   30  C   UNL     1      33.244  14.906  20.025  1.00  0.00     0.012 C 
ENDBRANCH  15  28
BRANCH  14  31
HETATM   31  C   UNL     1      28.190  16.089  19.145  1.00  0.00     0.014 C 
HETATM   32  C   UNL     1      29.320  16.113  20.178  1.00  0.00     0.012 C 
BRANCH  31  33
HETATM   33  C   UNL     1      27.695  17.522  18.880  1.00  0.00     0.002 C 
HETATM   34  C   UNL     1      28.462  18.238  17.777  1.00  0.00     0.005 C 
ENDBRANCH  31  33
ENDBRANCH  14  31
BRANCH  13  35
HETATM   35  C   UNL     1      34.558  10.445  15.616  1.00  0.00     0.014 C 
HETATM   36  C   UNL     1      34.871  10.077  14.163  1.00  0.00     0.012 C 
BRANCH  35  37
HETATM   37  C   UNL     1      35.611  11.438  16.139  1.00  0.00     0.002 C 
HETATM   38  C   UNL     1      37.002  10.837  16.272  1.00  0.00     0.005 C 
ENDBRANCH  35  37
ENDBRANCH  13  35
BRANCH  17  39
HETATM   39  C   UNL     1      26.177  14.130  13.985  1.00  0.00     0.016 C 
HETATM   40  C   UNL     1      26.195  15.647  14.153  1.00  0.00     0.012 C 
HETATM   41  C   UNL     1      24.765  13.584  14.186  1.00  0.00     0.012 C 
ENDBRANCH  17  39
BRANCH  18  42
HETATM   42  C   UNL     1      29.779   8.522  17.127  1.00  0.00     0.016 C 
HETATM   43  C   UNL     1      30.333   9.255  18.349  1.00  0.00     0.012 C 
HETATM   44  C   UNL     1      28.392   7.957  17.425  1.00  0.00     0.012 C 
ENDBRANCH  18  42
BRANCH  16  45
HETATM   45  C   UNL     1      29.493  11.387  11.933  1.00  0.00     0.010 C 
HETATM   46  C   UNL     1      30.864  12.058  11.871  1.00  0.00     0.012 C 
HETATM   47  C   UNL     1      28.401  12.361  11.492  1.00  0.00     0.012 C 
ENDBRANCH  16  45
TORSDOF 8
ENDMDL
MODEL 15
REMARK VINA RESULT:    -6.135      2.730      7.319
REMARK INTER + INTRA:          -7.573
REMARK INTER:                  -7.891
REMARK INTRA:                   0.319
REMARK UNBOUND:                 1.431
REMARK  8 active torsions:
REMARK  status: ('A' for Active; 'I' for Inactive)
REMARK    1  A    between atoms: C_13  and  C_15 
REMARK    2  A    between atoms: C_14  and  C_16 
REMARK    3  A    between atoms: C_15  and  C_22 
REMARK    4  A    between atoms: C_16  and  C_23 
REMARK    5  A    between atoms: C_17  and  C_21 
REMARK    6  A    between atoms: C_18  and  C_24 
REMARK    7  A    between atoms: C_19  and  C_27 
REMARK    8  A    between atoms: C_20  and  C_30 
ROOT
HETATM    1  O   UNL     1      27.282  18.332  30.599  1.00  0.00    -0.304 OA
HETATM    2  O   UNL     1      27.293  22.844  32.355  1.00  0.00    -0.304 OA
HETATM    3  O   UNL     1      28.913  20.243  35.010  1.00  0.00    -0.304 OA
HETATM    4  O   UNL     1      28.861  20.382  31.090  1.00  0.00    -0.270 OA
HETATM    5  O   UNL     1      25.640  18.982  32.085  1.00  0.00    -0.263 OA
HETATM    6  O   UNL     1      29.288  18.164  33.509  1.00  0.00    -0.270 OA
HETATM    7  O   UNL     1      28.091  24.935  31.818  1.00  0.00    -0.263 OA
HETATM    8  O   UNL     1      26.908  25.372  34.669  1.00  0.00    -0.270 OA
HETATM    9  O   UNL     1      27.979  21.560  36.657  1.00  0.00    -0.263 OA
HETATM   10  N   UNL     1      27.641  21.945  29.886  1.00  0.00    -0.340 N 
HETATM   11  N   UNL     1      27.118  17.449  33.915  1.00  0.00    -0.340 N 
HETATM   12  N   UNL     1      28.561  23.812  35.129  1.00  0.00    -0.340 N 
HETATM   13  C   UNL     1      28.512  23.059  30.329  1.00  0.00     0.190 C 
HETATM   14  C   UNL     1      26.972  16.990  32.519  1.00  0.00     0.190 C 
HETATM   15  C   UNL     1      27.059  19.499  29.784  1.00  0.00     0.227 C 
HETATM   16  C   UNL     1      29.264  22.547  34.827  1.00  0.00     0.190 C 
HETATM   17  C   UNL     1      28.250  19.046  35.470  1.00  0.00     0.227 C 
HETATM   18  C   UNL     1      26.653  23.248  33.570  1.00  0.00     0.227 C 
HETATM   19  C   UNL     1      27.932  20.642  30.317  1.00  0.00     0.250 C 
HETATM   20  C   UNL     1      26.528  18.217  31.735  1.00  0.00     0.283 C 
HETATM   21  C   UNL     1      28.283  18.163  34.229  1.00  0.00     0.250 C 
HETATM   22  C   UNL     1      27.917  23.753  31.554  1.00  0.00     0.283 C 
HETATM   23  C   UNL     1      27.390  24.248  34.488  1.00  0.00     0.250 C 
HETATM   24  C   UNL     1      28.632  21.424  35.633  1.00  0.00     0.283 C 
HETATM   25  C   UNL     1      26.475  22.311  29.074  1.00  0.00     0.153 C 
HETATM   26  C   UNL     1      25.999  17.267  34.842  1.00  0.00     0.153 C 
HETATM   27  C   UNL     1      29.128  24.669  36.170  1.00  0.00     0.153 C 
ENDROOT
BRANCH  15  28
HETATM   28  C   UNL     1      27.477  19.138  28.365  1.00  0.00     0.016 C 
HETATM   29  C   UNL     1      28.955  18.757  28.319  1.00  0.00     0.012 C 
HETATM   30  C   UNL     1      26.613  18.001  27.821  1.00  0.00     0.012 C 
ENDBRANCH  15  28
BRANCH  14  31
HETATM   31  C   UNL     1      25.998  15.845  32.278  1.00  0.00     0.014 C 
HETATM   32  C   UNL     1      25.540  15.856  30.818  1.00  0.00     0.012 C 
BRANCH  31  33
HETATM   33  C   UNL     1      26.609  14.475  32.623  1.00  0.00     0.002 C 
HETATM   34  C   UNL     1      25.804  13.690  33.649  1.00  0.00     0.005 C 
ENDBRANCH  31  33
ENDBRANCH  14  31
BRANCH  13  35
HETATM   35  C   UNL     1      28.830  24.059  29.218  1.00  0.00     0.014 C 
HETATM   36  C   UNL     1      30.172  24.739  29.501  1.00  0.00     0.012 C 
BRANCH  35  37
HETATM   37  C   UNL     1      28.863  23.401  27.827  1.00  0.00     0.002 C 
HETATM   38  C   UNL     1      30.179  22.704  27.514  1.00  0.00     0.005 C 
ENDBRANCH  35  37
ENDBRANCH  13  35
BRANCH  17  39
HETATM   39  C   UNL     1      29.037  18.412  36.602  1.00  0.00     0.016 C 
HETATM   40  C   UNL     1      29.497  17.009  36.216  1.00  0.00     0.012 C 
HETATM   41  C   UNL     1      28.200  18.369  37.880  1.00  0.00     0.012 C 
ENDBRANCH  17  39
BRANCH  18  42
HETATM   42  C   UNL     1      25.253  23.747  33.209  1.00  0.00     0.016 C 
HETATM   43  C   UNL     1      24.734  23.042  31.956  1.00  0.00     0.012 C 
HETATM   44  C   UNL     1      24.289  23.542  34.376  1.00  0.00     0.012 C 
ENDBRANCH  18  42
BRANCH  16  45
HETATM   45  C   UNL     1      30.773  22.574  35.060  1.00  0.00     0.010 C 
HETATM   46  C   UNL     1      31.519  22.060  33.829  1.00  0.00     0.012 C 
HETATM   47  C   UNL     1      31.145  21.752  36.292  1.00  0.00     0.012 C 
ENDBRANCH  16  45
TORSDOF 8
ENDMDL
MODEL 16
REMARK VINA RESULT:    -6.066     16.494     21.807
REMARK INTER + INTRA:          -7.471
REMARK INTER:                  -9.051
REMARK INTRA:                   1.580
REMARK UNBOUND:                 1.431
REMARK  8 active torsions:
REMARK  status: ('A' for Active; 'I' for Inactive)
REMARK    1  A    between atoms: C_13  and  C_15 
REMARK    2  A    between atoms: C_14  and  C_16 
REMARK    3  A    between atoms: C_15  and  C_22 
REMARK    4  A    between atoms: C_16  and  C_23 
REMARK    5  A    between atoms: C_17  and  C_21 
REMARK    6  A    between atoms: C_18  and  C_24 
REMARK    7  A    between atoms: C_19  and  C_27 
REMARK    8  A    between atoms: C_20  and  C_30 
ROOT
HETATM    1  O   UNL     1      34.225  12.290  18.030  1.00  0.00    -0.304 OA
HETATM    2  O   UNL     1      33.984   8.246  20.683  1.00  0.00    -0.304 OA
HETATM    3  O   UNL     1      36.756   7.899  17.744  1.00  0.00    -0.304 OA
HETATM    4  O   UNL     1      35.498  10.930  19.893  1.00  0.00    -0.270 OA
HETATM    5  O   UNL     1      33.022  10.482  17.248  1.00  0.00    -0.263 OA
HETATM    6  O   UNL     1      37.014  10.369  17.004  1.00  0.00    -0.270 OA
HETATM    7  O   UNL     1      34.207   7.566  22.871  1.00  0.00    -0.263 OA
HETATM    8  O   UNL     1      33.884   4.865  21.349  1.00  0.00    -0.270 OA
HETATM    9  O   UNL     1      36.149   5.677  17.628  1.00  0.00    -0.263 OA
HETATM   10  N   UNL     1      33.719  10.792  21.376  1.00  0.00    -0.340 N 
HETATM   11  N   UNL     1      35.226  10.144  15.542  1.00  0.00    -0.340 N 
HETATM   12  N   UNL     1      35.843   5.658  20.394  1.00  0.00    -0.340 N 
HETATM   13  C   UNL     1      34.477   9.915  22.299  1.00  0.00     0.190 C 
HETATM   14  C   UNL     1      34.747  11.503  15.865  1.00  0.00     0.190 C 
HETATM   15  C   UNL     1      33.567  12.221  19.311  1.00  0.00     0.227 C 
HETATM   16  C   UNL     1      36.629   6.745  19.774  1.00  0.00     0.190 C 
HETATM   17  C   UNL     1      36.480   8.137  16.347  1.00  0.00     0.227 C 
HETATM   18  C   UNL     1      33.681   6.948  20.164  1.00  0.00     0.227 C 
HETATM   19  C   UNL     1      34.348  11.256  20.210  1.00  0.00     0.250 C 
HETATM   20  C   UNL     1      33.882  11.342  17.107  1.00  0.00     0.283 C 
HETATM   21  C   UNL     1      36.290   9.647  16.310  1.00  0.00     0.250 C 
HETATM   22  C   UNL     1      34.169   8.444  22.018  1.00  0.00     0.283 C 
HETATM   23  C   UNL     1      34.476   5.739  20.706  1.00  0.00     0.250 C 
HETATM   24  C   UNL     1      36.476   6.668  18.263  1.00  0.00     0.283 C 
HETATM   25  C   UNL     1      32.318  11.051  21.723  1.00  0.00     0.153 C 
HETATM   26  C   UNL     1      34.489   9.347  14.559  1.00  0.00     0.153 C 
HETATM   27  C   UNL     1      36.540   4.411  20.706  1.00  0.00     0.153 C 
ENDROOT
BRANCH  15  28
HETATM   28  C   UNL     1      33.592  13.625  19.901  1.00  0.00     0.016 C 
HETATM   29  C   UNL     1      34.888  13.861  20.675  1.00  0.00     0.012 C 
HETATM   30  C   UNL     1      33.427  14.674  18.803  1.00  0.00     0.012 C 
ENDBRANCH  15  28
BRANCH  14  31
HETATM   31  C   UNL     1      33.960  12.222  14.778  1.00  0.00     0.014 C 
HETATM   32  C   UNL     1      32.889  13.109  15.417  1.00  0.00     0.012 C 
BRANCH  31  33
HETATM   33  C   UNL     1      34.864  13.071  13.866  1.00  0.00     0.002 C 
HETATM   34  C   UNL     1      36.230  12.449  13.613  1.00  0.00     0.005 C 
ENDBRANCH  31  33
ENDBRANCH  14  31
BRANCH  13  35
HETATM   35  C   UNL     1      34.266  10.259  23.773  1.00  0.00     0.014 C 
HETATM   36  C   UNL     1      35.209   9.423  24.642  1.00  0.00     0.012 C 
BRANCH  35  37
HETATM   37  C   UNL     1      34.481  11.756  24.063  1.00  0.00     0.002 C 
HETATM   38  C   UNL     1      33.462  12.342  25.029  1.00  0.00     0.005 C 
ENDBRANCH  35  37
ENDBRANCH  13  35
BRANCH  17  39
HETATM   39  C   UNL     1      37.670   7.724  15.500  1.00  0.00     0.016 C 
HETATM   40  C   UNL     1      38.951   7.741  16.330  1.00  0.00     0.012 C 
HETATM   41  C   UNL     1      37.806   8.638  14.284  1.00  0.00     0.012 C 
ENDBRANCH  17  39
BRANCH  18  42
HETATM   42  C   UNL     1      32.173   6.735  20.307  1.00  0.00     0.016 C 
HETATM   43  C   UNL     1      31.418   8.042  20.066  1.00  0.00     0.012 C 
HETATM   44  C   UNL     1      31.687   5.652  19.345  1.00  0.00     0.012 C 
ENDBRANCH  18  42
BRANCH  16  45
HETATM   45  C   UNL     1      38.110   6.768  20.149  1.00  0.00     0.010 C 
HETATM   46  C   UNL     1      38.845   5.585  19.519  1.00  0.00     0.012 C 
HETATM   47  C   UNL     1      38.284   6.757  21.667  1.00  0.00     0.012 C 
ENDBRANCH  16  45
TORSDOF 8
ENDMDL
MODEL 17
REMARK VINA RESULT:    -6.065      2.759      6.545
REMARK INTER + INTRA:          -7.471
REMARK INTER:                  -8.101
REMARK INTRA:                   0.630
REMARK UNBOUND:                 1.431
REMARK  8 active torsions:
REMARK  status: ('A' for Active; 'I' for Inactive)
REMARK    1  A    between atoms: C_13  and  C_15 
REMARK    2  A    between atoms: C_14  and  C_16 
REMARK    3  A    between atoms: C_15  and  C_22 
REMARK    4  A    between atoms: C_16  and  C_23 
REMARK    5  A    between atoms: C_17  and  C_21 
REMARK    6  A    between atoms: C_18  and  C_24 
REMARK    7  A    between atoms: C_19  and  C_27 
REMARK    8  A    between atoms: C_20  and  C_30 
ROOT
HETATM    1  O   UNL     1      28.812  23.192  30.265  1.00  0.00    -0.304 OA
HETATM    2  O   UNL     1      27.183  20.239  33.740  1.00  0.00    -0.304 OA
HETATM    3  O   UNL     1      31.221  20.577  33.888  1.00  0.00    -0.304 OA
HETATM    4  O   UNL     1      28.363  23.058  32.858  1.00  0.00    -0.270 OA
HETATM    5  O   UNL     1      28.913  20.907  29.961  1.00  0.00    -0.263 OA
HETATM    6  O   UNL     1      31.608  22.634  32.361  1.00  0.00    -0.270 OA
HETATM    7  O   UNL     1      25.735  20.264  35.530  1.00  0.00    -0.263 OA
HETATM    8  O   UNL     1      27.078  17.463  35.782  1.00  0.00    -0.270 OA
HETATM    9  O   UNL     1      31.240  18.371  34.563  1.00  0.00    -0.263 OA
HETATM   10  N   UNL     1      26.132  22.442  32.705  1.00  0.00    -0.340 N 
HETATM   11  N   UNL     1      31.647  21.267  30.486  1.00  0.00    -0.340 N 
HETATM   12  N   UNL     1      28.924  18.843  36.032  1.00  0.00    -0.340 N 
HETATM   13  C   UNL     1      26.017  22.263  34.171  1.00  0.00     0.190 C 
HETATM   14  C   UNL     1      30.912  22.272  29.695  1.00  0.00     0.190 C 
HETATM   15  C   UNL     1      27.426  23.116  30.655  1.00  0.00     0.227 C 
HETATM   16  C   UNL     1      29.742  19.998  35.604  1.00  0.00     0.190 C 
HETATM   17  C   UNL     1      32.090  20.330  32.762  1.00  0.00     0.227 C 
HETATM   18  C   UNL     1      27.573  18.872  33.897  1.00  0.00     0.227 C 
HETATM   19  C   UNL     1      27.356  22.867  32.166  1.00  0.00     0.250 C 
HETATM   20  C   UNL     1      29.439  22.012  29.979  1.00  0.00     0.283 C 
HETATM   21  C   UNL     1      31.790  21.519  31.859  1.00  0.00     0.250 C 
HETATM   22  C   UNL     1      26.245  20.800  34.554  1.00  0.00     0.283 C 
HETATM   23  C   UNL     1      27.820  18.340  35.326  1.00  0.00     0.250 C 
HETATM   24  C   UNL     1      30.818  19.515  34.645  1.00  0.00     0.283 C 
HETATM   25  C   UNL     1      24.954  22.082  31.908  1.00  0.00     0.153 C 
HETATM   26  C   UNL     1      32.054  20.015  29.842  1.00  0.00     0.153 C 
HETATM   27  C   UNL     1      29.293  18.180  37.283  1.00  0.00     0.153 C 
ENDROOT
BRANCH  15  28
HETATM   28  C   UNL     1      26.793  24.459  30.315  1.00  0.00     0.016 C 
HETATM   29  C   UNL     1      27.866  25.535  30.153  1.00  0.00     0.012 C 
HETATM   30  C   UNL     1      25.948  24.352  29.047  1.00  0.00     0.012 C 
ENDBRANCH  15  28
BRANCH  14  31
HETATM   31  C   UNL     1      31.156  22.267  28.192  1.00  0.00     0.014 C 
HETATM   32  C   UNL     1      29.822  22.388  27.452  1.00  0.00     0.012 C 
BRANCH  31  33
HETATM   33  C   UNL     1      32.104  23.396  27.749  1.00  0.00     0.002 C 
HETATM   34  C   UNL     1      31.623  24.785  28.145  1.00  0.00     0.005 C 
ENDBRANCH  31  33
ENDBRANCH  14  31
BRANCH  13  35
HETATM   35  C   UNL     1      24.704  22.794  34.746  1.00  0.00     0.014 C 
HETATM   36  C   UNL     1      24.911  23.226  36.200  1.00  0.00     0.012 C 
BRANCH  35  37
HETATM   37  C   UNL     1      24.138  23.970  33.929  1.00  0.00     0.002 C 
HETATM   38  C   UNL     1      24.064  25.273  34.711  1.00  0.00     0.005 C 
ENDBRANCH  35  37
ENDBRANCH  13  35
BRANCH  17  39
HETATM   39  C   UNL     1      33.541  20.345  33.206  1.00  0.00     0.016 C 
HETATM   40  C   UNL     1      33.774  21.442  34.242  1.00  0.00     0.012 C 
HETATM   41  C   UNL     1      34.468  20.534  32.006  1.00  0.00     0.012 C 
ENDBRANCH  17  39
BRANCH  18  42
HETATM   42  C   UNL     1      26.552  18.013  33.149  1.00  0.00     0.016 C 
HETATM   43  C   UNL     1      26.175  18.659  31.816  1.00  0.00     0.012 C 
HETATM   44  C   UNL     1      27.093  16.602  32.926  1.00  0.00     0.012 C 
ENDBRANCH  18  42
BRANCH  16  45
HETATM   45  C   UNL     1      30.374  20.800  36.740  1.00  0.00     0.010 C 
HETATM   46  C   UNL     1      30.326  22.297  36.436  1.00  0.00     0.012 C 
HETATM   47  C   UNL     1      31.814  20.350  36.983  1.00  0.00     0.012 C 
ENDBRANCH  16  45
TORSDOF 8
ENDMDL
MODEL 18
REMARK VINA RESULT:    -6.028     15.239     20.222
REMARK INTER + INTRA:          -7.416
REMARK INTER:                  -8.081
REMARK INTRA:                   0.665
REMARK UNBOUND:                 1.431
REMARK  8 active torsions:
REMARK  status: ('A' for Active; 'I' for Inactive)
REMARK    1  A    between atoms: C_13  and  C_15 
REMARK    2  A    between atoms: C_14  and  C_16 
REMARK    3  A    between atoms: C_15  and  C_22 
REMARK    4  A    between atoms: C_16  and  C_23 
REMARK    5  A    between atoms: C_17  and  C_21 
REMARK    6  A    between atoms: C_18  and  C_24 
REMARK    7  A    between atoms: C_19  and  C_27 
REMARK    8  A    between atoms: C_20  and  C_30 
ROOT
HETATM    1  O   UNL     1      33.491  11.035  15.063  1.00  0.00    -0.304 OA
HETATM    2  O   UNL     1      29.236  11.507  17.326  1.00  0.00    -0.304 OA
HETATM    3  O   UNL     1      32.195  13.369  19.380  1.00  0.00    -0.304 OA
HETATM    4  O   UNL     1      31.564  12.762  15.557  1.00  0.00    -0.270 OA
HETATM    5  O   UNL     1      32.986   9.655  16.843  1.00  0.00    -0.263 OA
HETATM    6  O   UNL     1      34.080  13.428  17.603  1.00  0.00    -0.270 OA
HETATM    7  O   UNL     1      27.118  12.316  16.931  1.00  0.00    -0.263 OA
HETATM    8  O   UNL     1      27.009  11.576  19.957  1.00  0.00    -0.270 OA
HETATM    9  O   UNL     1      31.069  12.742  21.294  1.00  0.00    -0.263 OA
HETATM   10  N   UNL     1      29.829  11.455  14.743  1.00  0.00    -0.340 N 
HETATM   11  N   UNL     1      34.778  11.307  18.236  1.00  0.00    -0.340 N 
HETATM   12  N   UNL     1      28.661  13.203  19.977  1.00  0.00    -0.340 N 
HETATM   13  C   UNL     1      28.804  12.432  15.182  1.00  0.00     0.190 C 
HETATM   14  C   UNL     1      35.054  10.942  16.833  1.00  0.00     0.190 C 
HETATM   15  C   UNL     1      32.225  10.752  14.436  1.00  0.00     0.227 C 
HETATM   16  C   UNL     1      29.897  13.796  19.425  1.00  0.00     0.190 C 
HETATM   17  C   UNL     1      33.421  12.723  19.787  1.00  0.00     0.227 C 
HETATM   18  C   UNL     1      28.970  11.067  18.661  1.00  0.00     0.227 C 
HETATM   19  C   UNL     1      31.183  11.744  14.967  1.00  0.00     0.250 C 
HETATM   20  C   UNL     1      33.726  10.448  16.275  1.00  0.00     0.283 C 
HETATM   21  C   UNL     1      34.141  12.538  18.458  1.00  0.00     0.250 C 
HETATM   22  C   UNL     1      28.253  12.052  16.556  1.00  0.00     0.283 C 
HETATM   23  C   UNL     1      28.114  11.974  19.574  1.00  0.00     0.250 C 
HETATM   24  C   UNL     1      31.094  13.235  20.176  1.00  0.00     0.283 C 
HETATM   25  C   UNL     1      29.331  10.204  14.162  1.00  0.00     0.153 C 
HETATM   26  C   UNL     1      35.043  10.326  19.290  1.00  0.00     0.153 C 
HETATM   27  C   UNL     1      27.957  13.953  21.018  1.00  0.00     0.153 C 
ENDROOT
BRANCH  15  28
HETATM   28  C   UNL     1      32.417  10.945  12.937  1.00  0.00     0.016 C 
HETATM   29  C   UNL     1      33.761  11.611  12.647  1.00  0.00     0.012 C 
HETATM   30  C   UNL     1      32.312   9.609  12.204  1.00  0.00     0.012 C 
ENDBRANCH  15  28
BRANCH  14  31
HETATM   31  C   UNL     1      36.132   9.892  16.603  1.00  0.00     0.014 C 
HETATM   32  C   UNL     1      35.589   8.785  15.696  1.00  0.00     0.012 C 
BRANCH  31  33
HETATM   33  C   UNL     1      37.410  10.490  15.989  1.00  0.00     0.002 C 
HETATM   34  C   UNL     1      37.198  11.090  14.606  1.00  0.00     0.005 C 
ENDBRANCH  31  33
ENDBRANCH  14  31
BRANCH  13  35
HETATM   35  C   UNL     1      27.682  12.633  14.164  1.00  0.00     0.014 C 
HETATM   36  C   UNL     1      26.911  13.915  14.489  1.00  0.00     0.012 C 
BRANCH  35  37
HETATM   37  C   UNL     1      28.205  12.693  12.718  1.00  0.00     0.002 C 
HETATM   38  C   UNL     1      27.100  12.734  11.672  1.00  0.00     0.005 C 
ENDBRANCH  35  37
ENDBRANCH  13  35
BRANCH  17  39
HETATM   39  C   UNL     1      34.214  13.634  20.706  1.00  0.00     0.016 C 
HETATM   40  C   UNL     1      34.118  13.153  22.152  1.00  0.00     0.012 C 
HETATM   41  C   UNL     1      33.725  15.076  20.586  1.00  0.00     0.012 C 
ENDBRANCH  17  39
BRANCH  18  42
HETATM   42  C   UNL     1      28.390   9.655  18.574  1.00  0.00     0.016 C 
HETATM   43  C   UNL     1      29.044   8.872  17.435  1.00  0.00     0.012 C 
HETATM   44  C   UNL     1      28.565   8.916  19.899  1.00  0.00     0.012 C 
ENDBRANCH  18  42
BRANCH  16  45
HETATM   45  C   UNL     1      29.942  15.322  19.434  1.00  0.00     0.010 C 
HETATM   46  C   UNL     1      30.713  15.847  18.223  1.00  0.00     0.012 C 
HETATM   47  C   UNL     1      30.567  15.838  20.729  1.00  0.00     0.012 C 
ENDBRANCH  16  45
TORSDOF 8
ENDMDL
MODEL 19
REMARK VINA RESULT:    -5.848      2.309      4.305
REMARK INTER + INTRA:          -7.151
REMARK INTER:                  -8.789
REMARK INTRA:                   1.637
REMARK UNBOUND:                 1.431
REMARK  8 active torsions:
REMARK  status: ('A' for Active; 'I' for Inactive)
REMARK    1  A    between atoms: C_13  and  C_15 
REMARK    2  A    between atoms: C_14  and  C_16 
REMARK    3  A    between atoms: C_15  and  C_22 
REMARK    4  A    between atoms: C_16  and  C_23 
REMARK    5  A    between atoms: C_17  and  C_21 
REMARK    6  A    between atoms: C_18  and  C_24 
REMARK    7  A    between atoms: C_19  and  C_27 
REMARK    8  A    between atoms: C_20  and  C_30 
ROOT
HETATM    1  O   UNL     1      26.525  21.722  29.978  1.00  0.00    -0.304 OA
HETATM    2  O   UNL     1      30.120  20.077  32.774  1.00  0.00    -0.304 OA
HETATM    3  O   UNL     1      28.119  23.095  34.597  1.00  0.00    -0.304 OA
HETATM    4  O   UNL     1      27.013  20.265  32.118  1.00  0.00    -0.270 OA
HETATM    5  O   UNL     1      28.528  22.868  30.055  1.00  0.00    -0.263 OA
HETATM    6  O   UNL     1      25.992  23.247  33.125  1.00  0.00    -0.270 OA
HETATM    7  O   UNL     1      30.832  18.115  33.746  1.00  0.00    -0.263 OA
HETATM    8  O   UNL     1      32.813  20.214  34.923  1.00  0.00    -0.270 OA
HETATM    9  O   UNL     1      30.151  23.708  35.502  1.00  0.00    -0.263 OA
HETATM   10  N   UNL     1      28.503  18.804  31.104  1.00  0.00    -0.340 N 
HETATM   11  N   UNL     1      27.083  24.669  31.651  1.00  0.00    -0.340 N 
HETATM   12  N   UNL     1      30.803  21.014  35.756  1.00  0.00    -0.340 N 
HETATM   13  C   UNL     1      28.814  18.132  32.388  1.00  0.00     0.190 C 
HETATM   14  C   UNL     1      26.430  24.026  30.495  1.00  0.00     0.190 C 
HETATM   15  C   UNL     1      27.206  20.474  29.740  1.00  0.00     0.227 C 
HETATM   16  C   UNL     1      29.385  21.387  35.571  1.00  0.00     0.190 C 
HETATM   17  C   UNL     1      27.898  24.391  33.999  1.00  0.00     0.227 C 
HETATM   18  C   UNL     1      31.202  20.875  33.264  1.00  0.00     0.227 C 
HETATM   19  C   UNL     1      27.564  19.847  31.093  1.00  0.00     0.250 C 
HETATM   20  C   UNL     1      27.308  22.830  30.149  1.00  0.00     0.283 C 
HETATM   21  C   UNL     1      26.888  24.069  32.904  1.00  0.00     0.250 C 
HETATM   22  C   UNL     1      30.065  18.738  33.022  1.00  0.00     0.283 C 
HETATM   23  C   UNL     1      31.676  20.652  34.717  1.00  0.00     0.250 C 
HETATM   24  C   UNL     1      29.301  22.869  35.242  1.00  0.00     0.283 C 
HETATM   25  C   UNL     1      29.271  18.364  29.934  1.00  0.00     0.153 C 
HETATM   26  C   UNL     1      27.998  25.789  31.418  1.00  0.00     0.153 C 
HETATM   27  C   UNL     1      31.332  21.022  37.120  1.00  0.00     0.153 C 
ENDROOT
BRANCH  15  28
HETATM   28  C   UNL     1      26.236  19.574  28.986  1.00  0.00     0.016 C 
HETATM   29  C   UNL     1      26.950  18.848  27.846  1.00  0.00     0.012 C 
HETATM   30  C   UNL     1      25.583  18.570  29.934  1.00  0.00     0.012 C 
ENDBRANCH  15  28
BRANCH  14  31
HETATM   31  C   UNL     1      26.230  24.891  29.258  1.00  0.00     0.014 C 
HETATM   32  C   UNL     1      25.957  24.001  28.043  1.00  0.00     0.012 C 
BRANCH  31  33
HETATM   33  C   UNL     1      25.083  25.903  29.433  1.00  0.00     0.002 C 
HETATM   34  C   UNL     1      25.390  27.278  28.854  1.00  0.00     0.005 C 
ENDBRANCH  31  33
ENDBRANCH  14  31
BRANCH  13  35
HETATM   35  C   UNL     1      28.928  16.613  32.266  1.00  0.00     0.014 C 
HETATM   36  C   UNL     1      30.403  16.206  32.216  1.00  0.00     0.012 C 
BRANCH  35  37
HETATM   37  C   UNL     1      28.224  15.876  33.420  1.00  0.00     0.002 C 
HETATM   38  C   UNL     1      27.176  16.720  34.131  1.00  0.00     0.005 C 
ENDBRANCH  35  37
ENDBRANCH  13  35
BRANCH  17  39
HETATM   39  C   UNL     1      27.302  25.345  35.017  1.00  0.00     0.016 C 
HETATM   40  C   UNL     1      25.823  25.039  35.238  1.00  0.00     0.012 C 
HETATM   41  C   UNL     1      27.489  26.793  34.570  1.00  0.00     0.012 C 
ENDBRANCH  17  39
BRANCH  18  42
HETATM   42  C   UNL     1      32.358  20.741  32.272  1.00  0.00     0.016 C 
HETATM   43  C   UNL     1      31.842  20.766  30.834  1.00  0.00     0.012 C 
HETATM   44  C   UNL     1      33.387  21.849  32.490  1.00  0.00     0.012 C 
ENDBRANCH  18  42
BRANCH  16  45
HETATM   45  C   UNL     1      28.471  21.061  36.750  1.00  0.00     0.010 C 
HETATM   46  C   UNL     1      27.363  20.098  36.325  1.00  0.00     0.012 C 
HETATM   47  C   UNL     1      27.871  22.337  37.340  1.00  0.00     0.012 C 
ENDBRANCH  16  45
TORSDOF 8
ENDMDL
MODEL 20
REMARK VINA RESULT:    -5.817     13.104     18.570
REMARK INTER + INTRA:          -7.106
REMARK INTER:                  -7.553
REMARK INTRA:                   0.447
REMARK UNBOUND:                 1.431
REMARK  8 active torsions:
REMARK  status: ('A' for Active; 'I' for Inactive)
REMARK    1  A    between atoms: C_13  and  C_15 
REMARK    2  A    between atoms: C_14  and  C_16 
REMARK    3  A    between atoms: C_15  and  C_22 
REMARK    4  A    between atoms: C_16  and  C_23 
REMARK    5  A    between atoms: C_17  and  C_21 
REMARK    6  A    between atoms: C_18  and  C_24 
REMARK    7  A    between atoms: C_19  and  C_27 
REMARK    8  A    between atoms: C_20  and  C_30 
ROOT
HETATM    1  O   UNL     1      29.262  14.217  15.623  1.00  0.00    -0.304 OA
HETATM    2  O   UNL     1      29.276  13.398  20.396  1.00  0.00    -0.304 OA
HETATM    3  O   UNL     1      32.953  12.788  18.801  1.00  0.00    -0.304 OA
HETATM    4  O   UNL     1      30.029  15.250  17.922  1.00  0.00    -0.270 OA
HETATM    5  O   UNL     1      29.133  12.051  16.410  1.00  0.00    -0.263 OA
HETATM    6  O   UNL     1      32.681  13.897  16.475  1.00  0.00    -0.270 OA
HETATM    7  O   UNL     1      28.795  14.488  22.366  1.00  0.00    -0.263 OA
HETATM    8  O   UNL     1      30.006  11.793  23.359  1.00  0.00    -0.270 OA
HETATM    9  O   UNL     1      33.196  11.106  20.361  1.00  0.00    -0.263 OA
HETATM   10  N   UNL     1      27.950  15.179  18.947  1.00  0.00    -0.340 N 
HETATM   11  N   UNL     1      31.820  11.925  15.607  1.00  0.00    -0.340 N 
HETATM   12  N   UNL     1      31.814  12.670  22.202  1.00  0.00    -0.340 N 
HETATM   13  C   UNL     1      28.503  15.639  20.243  1.00  0.00     0.190 C 
HETATM   14  C   UNL     1      30.843  12.671  14.791  1.00  0.00     0.190 C 
HETATM   15  C   UNL     1      28.201  14.639  16.503  1.00  0.00     0.227 C 
HETATM   16  C   UNL     1      32.390  13.322  21.007  1.00  0.00     0.190 C 
HETATM   17  C   UNL     1      33.210  11.908  17.686  1.00  0.00     0.227 C 
HETATM   18  C   UNL     1      29.645  12.159  21.009  1.00  0.00     0.227 C 
HETATM   19  C   UNL     1      28.812  15.044  17.849  1.00  0.00     0.250 C 
HETATM   20  C   UNL     1      29.649  12.908  15.705  1.00  0.00     0.283 C 
HETATM   21  C   UNL     1      32.577  12.667  16.527  1.00  0.00     0.250 C 
HETATM   22  C   UNL     1      28.827  14.446  21.142  1.00  0.00     0.283 C 
HETATM   23  C   UNL     1      30.493  12.205  22.300  1.00  0.00     0.250 C 
HETATM   24  C   UNL     1      32.898  12.251  20.055  1.00  0.00     0.283 C 
HETATM   25  C   UNL     1      26.527  14.823  18.935  1.00  0.00     0.153 C 
HETATM   26  C   UNL     1      31.846  10.463  15.523  1.00  0.00     0.153 C 
HETATM   27  C   UNL     1      32.685  12.499  23.365  1.00  0.00     0.153 C 
ENDROOT
BRANCH  15  28
HETATM   28  C   UNL     1      27.531  15.840  15.848  1.00  0.00     0.016 C 
HETATM   29  C   UNL     1      28.497  16.545  14.898  1.00  0.00     0.012 C 
HETATM   30  C   UNL     1      26.266  15.414  15.106  1.00  0.00     0.012 C 
ENDBRANCH  15  28
BRANCH  14  31
HETATM   31  C   UNL     1      30.381  12.003  13.503  1.00  0.00     0.014 C 
HETATM   32  C   UNL     1      28.989  12.515  13.126  1.00  0.00     0.012 C 
BRANCH  31  33
HETATM   33  C   UNL     1      31.358  12.239  12.338  1.00  0.00     0.002 C 
HETATM   34  C   UNL     1      30.703  12.150  10.966  1.00  0.00     0.005 C 
ENDBRANCH  31  33
ENDBRANCH  14  31
BRANCH  13  35
HETATM   35  C   UNL     1      27.612  16.654  20.957  1.00  0.00     0.014 C 
HETATM   36  C   UNL     1      28.338  17.206  22.187  1.00  0.00     0.012 C 
BRANCH  35  37
HETATM   37  C   UNL     1      27.189  17.814  20.038  1.00  0.00     0.002 C 
HETATM   38  C   UNL     1      27.804  19.151  20.424  1.00  0.00     0.005 C 
ENDBRANCH  35  37
ENDBRANCH  13  35
BRANCH  17  39
HETATM   39  C   UNL     1      34.705  11.752  17.473  1.00  0.00     0.016 C 
HETATM   40  C   UNL     1      35.067  11.998  16.011  1.00  0.00     0.012 C 
HETATM   41  C   UNL     1      35.168  10.365  17.915  1.00  0.00     0.012 C 
ENDBRANCH  17  39
BRANCH  18  42
HETATM   42  C   UNL     1      28.366  11.345  21.209  1.00  0.00     0.016 C 
HETATM   43  C   UNL     1      27.394  11.573  20.052  1.00  0.00     0.012 C 
HETATM   44  C   UNL     1      28.689   9.859  21.351  1.00  0.00     0.012 C 
ENDBRANCH  18  42
BRANCH  16  45
HETATM   45  C   UNL     1      33.496  14.336  21.293  1.00  0.00     0.010 C 
HETATM   46  C   UNL     1      33.184  15.677  20.630  1.00  0.00     0.012 C 
HETATM   47  C   UNL     1      34.849  13.808  20.818  1.00  0.00     0.012 C 
ENDBRANCH  16  45
TORSDOF 8
ENDMDL
