MODEL 1
REMARK VINA RESULT:    -5.245      0.000      0.000
REMARK INTER + INTRA:          -6.917
REMARK INTER:                  -7.699
REMARK INTRA:                   0.781
REMARK UNBOUND:                 0.781
REMARK  8 active torsions:
REMARK  status: ('A' for Active; 'I' for Inactive)
REMARK    1  A    between atoms: C_13  and  C_15 
REMARK    2  A    between atoms: C_14  and  C_16 
REMARK    3  A    between atoms: C_15  and  C_22 
REMARK    4  A    between atoms: C_16  and  C_23 
REMARK    5  A    between atoms: C_17  and  C_21 
REMARK    6  A    between atoms: C_18  and  C_24 
REMARK    7  A    between atoms: C_19  and  C_27 
REMARK    8  A    between atoms: C_20  and  C_30 
ROOT
HETATM    1  O   UNL     1      43.517   5.791  50.358  1.00  0.00    -0.304 OA
HETATM    2  O   UNL     1      48.201   6.708  49.540  1.00  0.00    -0.304 OA
HETATM    3  O   UNL     1      47.679   2.951  50.971  1.00  0.00    -0.304 OA
HETATM    4  O   UNL     1      45.491   5.274  48.692  1.00  0.00    -0.270 OA
HETATM    5  O   UNL     1      44.889   6.379  52.118  1.00  0.00    -0.263 OA
HETATM    6  O   UNL     1      45.121   2.654  50.679  1.00  0.00    -0.270 OA
HETATM    7  O   UNL     1      49.591   7.343  47.819  1.00  0.00    -0.263 OA
HETATM    8  O   UNL     1      51.598   6.742  50.127  1.00  0.00    -0.270 OA
HETATM    9  O   UNL     1      49.697   3.234  52.053  1.00  0.00    -0.263 OA
HETATM   10  N   UNL     1      46.029   7.484  48.233  1.00  0.00    -0.340 N 
HETATM   11  N   UNL     1      44.745   3.646  52.743  1.00  0.00    -0.340 N 
HETATM   12  N   UNL     1      50.632   4.652  49.849  1.00  0.00    -0.340 N 
HETATM   13  C   UNL     1      47.205   7.093  47.419  1.00  0.00     0.190 C 
HETATM   14  C   UNL     1      43.553   4.346  52.227  1.00  0.00     0.190 C 
HETATM   15  C   UNL     1      43.980   6.908  49.575  1.00  0.00     0.227 C 
HETATM   16  C   UNL     1      49.443   3.790  49.686  1.00  0.00     0.190 C 
HETATM   17  C   UNL     1      46.970   2.646  52.191  1.00  0.00     0.227 C 
HETATM   18  C   UNL     1      49.229   6.641  50.532  1.00  0.00     0.227 C 
HETATM   19  C   UNL     1      45.232   6.478  48.801  1.00  0.00     0.250 C 
HETATM   20  C   UNL     1      44.078   5.627  51.594  1.00  0.00     0.283 C 
HETATM   21  C   UNL     1      45.527   2.951  51.808  1.00  0.00     0.250 C 
HETATM   22  C   UNL     1      48.476   7.111  48.268  1.00  0.00     0.283 C 
HETATM   23  C   UNL     1      50.590   6.027  50.135  1.00  0.00     0.250 C 
HETATM   24  C   UNL     1      48.997   3.298  51.054  1.00  0.00     0.283 C 
HETATM   25  C   UNL     1      45.829   8.921  48.444  1.00  0.00     0.153 C 
HETATM   26  C   UNL     1      45.124   3.829  54.146  1.00  0.00     0.153 C 
HETATM   27  C   UNL     1      51.947   4.027  49.700  1.00  0.00     0.153 C 
ENDROOT
BRANCH  15  28
HETATM   28  C   UNL     1      42.862   7.267  48.605  1.00  0.00     0.016 C 
HETATM   29  C   UNL     1      43.127   6.662  47.228  1.00  0.00     0.012 C 
HETATM   30  C   UNL     1      41.510   6.800  49.143  1.00  0.00     0.012 C 
ENDBRANCH  15  28
BRANCH  14  31
HETATM   31  C   UNL     1      42.468   4.680  53.242  1.00  0.00     0.014 C 
HETATM   32  C   UNL     1      41.728   5.948  52.808  1.00  0.00     0.012 C 
BRANCH  31  33
HETATM   33  C   UNL     1      41.465   3.528  53.427  1.00  0.00     0.002 C 
HETATM   34  C   UNL     1      40.785   3.524  54.789  1.00  0.00     0.005 C 
ENDBRANCH  31  33
ENDBRANCH  14  31
BRANCH  13  35
HETATM   35  C   UNL     1      47.368   7.927  46.149  1.00  0.00     0.014 C 
HETATM   36  C   UNL     1      48.594   7.448  45.368  1.00  0.00     0.012 C 
BRANCH  35  37
HETATM   37  C   UNL     1      46.122   7.873  45.247  1.00  0.00     0.002 C 
HETATM   38  C   UNL     1      46.311   8.565  43.905  1.00  0.00     0.005 C 
ENDBRANCH  35  37
ENDBRANCH  13  35
BRANCH  17  39
HETATM   39  C   UNL     1      47.133   1.178  52.542  1.00  0.00     0.016 C 
HETATM   40  C   UNL     1      45.781   0.470  52.533  1.00  0.00     0.012 C 
HETATM   41  C   UNL     1      47.812   1.024  53.901  1.00  0.00     0.012 C 
ENDBRANCH  17  39
BRANCH  18  42
HETATM   42  C   UNL     1      49.399   8.044  51.117  1.00  0.00     0.016 C 
HETATM   43  C   UNL     1      48.050   8.759  51.205  1.00  0.00     0.012 C 
HETATM   44  C   UNL     1      50.061   7.980  52.491  1.00  0.00     0.012 C 
ENDBRANCH  18  42
BRANCH  16  45
HETATM   45  C   UNL     1      49.626   2.607  48.738  1.00  0.00     0.010 C 
HETATM   46  C   UNL     1      48.519   2.583  47.684  1.00  0.00     0.012 C 
HETATM   47  C   UNL     1      49.654   1.291  49.514  1.00  0.00     0.012 C 
ENDBRANCH  16  45
TORSDOF 8
ENDMDL
MODEL 2
REMARK VINA RESULT:    -5.100     11.426     14.463
REMARK INTER + INTRA:          -6.704
REMARK INTER:                  -7.546
REMARK INTRA:                   0.842
REMARK UNBOUND:                 0.781
REMARK  8 active torsions:
REMARK  status: ('A' for Active; 'I' for Inactive)
REMARK    1  A    between atoms: C_13  and  C_15 
REMARK    2  A    between atoms: C_14  and  C_16 
REMARK    3  A    between atoms: C_15  and  C_22 
REMARK    4  A    between atoms: C_16  and  C_23 
REMARK    5  A    between atoms: C_17  and  C_21 
REMARK    6  A    between atoms: C_18  and  C_24 
REMARK    7  A    between atoms: C_19  and  C_27 
REMARK    8  A    between atoms: C_20  and  C_30 
ROOT
HETATM    1  O   UNL     1      44.576  11.675  40.447  1.00  0.00    -0.304 OA
HETATM    2  O   UNL     1      47.488  15.137  38.720  1.00  0.00    -0.304 OA
HETATM    3  O   UNL     1      45.930  16.199  42.309  1.00  0.00    -0.304 OA
HETATM    4  O   UNL     1      46.962  12.749  40.754  1.00  0.00    -0.270 OA
HETATM    5  O   UNL     1      43.663  13.514  39.393  1.00  0.00    -0.263 OA
HETATM    6  O   UNL     1      44.996  13.930  43.142  1.00  0.00    -0.270 OA
HETATM    7  O   UNL     1      49.666  15.417  38.030  1.00  0.00    -0.263 OA
HETATM    8  O   UNL     1      48.548  18.325  37.942  1.00  0.00    -0.270 OA
HETATM    9  O   UNL     1      45.914  18.361  41.505  1.00  0.00    -0.263 OA
HETATM   10  N   UNL     1      47.647  12.496  38.553  1.00  0.00    -0.340 N 
HETATM   11  N   UNL     1      43.007  14.303  42.006  1.00  0.00    -0.340 N 
HETATM   12  N   UNL     1      48.318  17.850  40.200  1.00  0.00    -0.340 N 
HETATM   13  C   UNL     1      48.908  13.235  38.795  1.00  0.00     0.190 C 
HETATM   14  C   UNL     1      42.919  12.881  41.624  1.00  0.00     0.190 C 
HETATM   15  C   UNL     1      45.499  11.465  39.360  1.00  0.00     0.227 C 
HETATM   16  C   UNL     1      47.898  16.949  41.294  1.00  0.00     0.190 C 
HETATM   17  C   UNL     1      44.516  16.206  42.602  1.00  0.00     0.227 C 
HETATM   18  C   UNL     1      47.088  16.487  38.463  1.00  0.00     0.227 C 
HETATM   19  C   UNL     1      46.760  12.297  39.622  1.00  0.00     0.250 C 
HETATM   20  C   UNL     1      43.740  12.753  40.348  1.00  0.00     0.283 C 
HETATM   21  C   UNL     1      44.189  14.719  42.637  1.00  0.00     0.250 C 
HETATM   22  C   UNL     1      48.748  14.710  38.424  1.00  0.00     0.283 C 
HETATM   23  C   UNL     1      48.063  17.624  38.838  1.00  0.00     0.250 C 
HETATM   24  C   UNL     1      46.474  17.293  41.700  1.00  0.00     0.283 C 
HETATM   25  C   UNL     1      47.386  12.087  37.169  1.00  0.00     0.153 C 
HETATM   26  C   UNL     1      41.943  15.218  41.587  1.00  0.00     0.153 C 
HETATM   27  C   UNL     1      49.053  19.061  40.565  1.00  0.00     0.153 C 
ENDROOT
BRANCH  15  28
HETATM   28  C   UNL     1      45.843   9.981  39.349  1.00  0.00     0.016 C 
HETATM   29  C   UNL     1      45.378   9.310  40.640  1.00  0.00     0.012 C 
HETATM   30  C   UNL     1      45.221   9.293  38.135  1.00  0.00     0.012 C 
ENDBRANCH  15  28
BRANCH  14  31
HETATM   31  C   UNL     1      41.521  12.323  41.394  1.00  0.00     0.014 C 
HETATM   32  C   UNL     1      41.597  11.096  40.483  1.00  0.00     0.012 C 
BRANCH  31  33
HETATM   33  C   UNL     1      40.814  11.954  42.710  1.00  0.00     0.002 C 
HETATM   34  C   UNL     1      39.535  12.742  42.957  1.00  0.00     0.005 C 
ENDBRANCH  31  33
ENDBRANCH  14  31
BRANCH  13  35
HETATM   35  C   UNL     1      50.120  12.612  38.102  1.00  0.00     0.014 C 
HETATM   36  C   UNL     1      50.299  11.166  38.572  1.00  0.00     0.012 C 
BRANCH  35  37
HETATM   37  C   UNL     1      50.002  12.650  36.568  1.00  0.00     0.002 C 
HETATM   38  C   UNL     1      51.287  13.066  35.868  1.00  0.00     0.005 C 
ENDBRANCH  35  37
ENDBRANCH  13  35
BRANCH  17  39
HETATM   39  C   UNL     1      44.263  16.844  43.956  1.00  0.00     0.016 C 
HETATM   40  C   UNL     1      45.211  16.269  45.006  1.00  0.00     0.012 C 
HETATM   41  C   UNL     1      42.809  16.646  44.379  1.00  0.00     0.012 C 
ENDBRANCH  17  39
BRANCH  18  42
HETATM   42  C   UNL     1      46.667  16.571  36.995  1.00  0.00     0.016 C 
HETATM   43  C   UNL     1      45.997  15.271  36.550  1.00  0.00     0.012 C 
HETATM   44  C   UNL     1      45.733  17.758  36.769  1.00  0.00     0.012 C 
ENDBRANCH  18  42
BRANCH  16  45
HETATM   45  C   UNL     1      48.808  16.955  42.521  1.00  0.00     0.010 C 
HETATM   46  C   UNL     1      49.061  15.530  43.013  1.00  0.00     0.012 C 
HETATM   47  C   UNL     1      48.205  17.805  43.638  1.00  0.00     0.012 C 
ENDBRANCH  16  45
TORSDOF 8
ENDMDL
MODEL 3
REMARK VINA RESULT:    -5.077      9.077     14.360
REMARK INTER + INTRA:          -6.671
REMARK INTER:                  -7.156
REMARK INTRA:                   0.485
REMARK UNBOUND:                 0.781
REMARK  8 active torsions:
REMARK  status: ('A' for Active; 'I' for Inactive)
REMARK    1  A    between atoms: C_13  and  C_15 
REMARK    2  A    between atoms: C_14  and  C_16 
REMARK    3  A    between atoms: C_15  and  C_22 
REMARK    4  A    between atoms: C_16  and  C_23 
REMARK    5  A    between atoms: C_17  and  C_21 
REMARK    6  A    between atoms: C_18  and  C_24 
REMARK    7  A    between atoms: C_19  and  C_27 
REMARK    8  A    between atoms: C_20  and  C_30 
ROOT
HETATM    1  O   UNL     1      45.623  13.696  38.333  1.00  0.00    -0.304 OA
HETATM    2  O   UNL     1      43.576  10.202  40.988  1.00  0.00    -0.304 OA
HETATM    3  O   UNL     1      41.989  13.826  41.874  1.00  0.00    -0.304 OA
HETATM    4  O   UNL     1      43.423  12.267  38.573  1.00  0.00    -0.270 OA
HETATM    5  O   UNL     1      46.321  13.357  40.507  1.00  0.00    -0.263 OA
HETATM    6  O   UNL     1      42.851  15.250  39.888  1.00  0.00    -0.270 OA
HETATM    7  O   UNL     1      42.425   8.229  40.706  1.00  0.00    -0.263 OA
HETATM    8  O   UNL     1      42.287   8.660  43.790  1.00  0.00    -0.270 OA
HETATM    9  O   UNL     1      41.800  13.057  44.040  1.00  0.00    -0.263 OA
HETATM   10  N   UNL     1      44.451  10.189  38.486  1.00  0.00    -0.340 N 
HETATM   11  N   UNL     1      44.829  15.679  41.022  1.00  0.00    -0.340 N 
HETATM   12  N   UNL     1      41.151  10.540  43.047  1.00  0.00    -0.340 N 
HETATM   13  C   UNL     1      43.180   9.479  38.761  1.00  0.00     0.190 C 
HETATM   14  C   UNL     1      45.609  15.568  39.774  1.00  0.00     0.190 C 
HETATM   15  C   UNL     1      45.756  12.292  38.033  1.00  0.00     0.227 C 
HETATM   16  C   UNL     1      41.035  11.709  42.150  1.00  0.00     0.190 C 
HETATM   17  C   UNL     1      42.773  14.975  42.259  1.00  0.00     0.227 C 
HETATM   18  C   UNL     1      43.570  10.163  42.418  1.00  0.00     0.227 C 
HETATM   19  C   UNL     1      44.441  11.589  38.392  1.00  0.00     0.250 C 
HETATM   20  C   UNL     1      45.906  14.083  39.613  1.00  0.00     0.283 C 
HETATM   21  C   UNL     1      43.470  15.339  40.954  1.00  0.00     0.250 C 
HETATM   22  C   UNL     1      43.040   9.186  40.255  1.00  0.00     0.283 C 
HETATM   23  C   UNL     1      42.278   9.707  43.132  1.00  0.00     0.250 C 
HETATM   24  C   UNL     1      41.642  12.922  42.836  1.00  0.00     0.283 C 
HETATM   25  C   UNL     1      45.658   9.359  38.404  1.00  0.00     0.153 C 
HETATM   26  C   UNL     1      45.529  15.990  42.271  1.00  0.00     0.153 C 
HETATM   27  C   UNL     1      40.007  10.229  43.905  1.00  0.00     0.153 C 
ENDROOT
BRANCH  15  28
HETATM   28  C   UNL     1      46.019  12.179  36.537  1.00  0.00     0.016 C 
HETATM   29  C   UNL     1      45.131  13.149  35.758  1.00  0.00     0.012 C 
HETATM   30  C   UNL     1      47.493  12.438  36.227  1.00  0.00     0.012 C 
ENDBRANCH  15  28
BRANCH  14  31
HETATM   31  C   UNL     1      46.906  16.362  39.709  1.00  0.00     0.014 C 
HETATM   32  C   UNL     1      47.780  15.833  38.569  1.00  0.00     0.012 C 
BRANCH  31  33
HETATM   33  C   UNL     1      46.660  17.870  39.521  1.00  0.00     0.002 C 
HETATM   34  C   UNL     1      47.356  18.735  40.563  1.00  0.00     0.005 C 
ENDBRANCH  31  33
ENDBRANCH  14  31
BRANCH  13  35
HETATM   35  C   UNL     1      42.997   8.214  37.923  1.00  0.00     0.014 C 
HETATM   36  C   UNL     1      41.573   7.680  38.093  1.00  0.00     0.012 C 
BRANCH  35  37
HETATM   37  C   UNL     1      43.288   8.452  36.430  1.00  0.00     0.002 C 
HETATM   38  C   UNL     1      44.001   7.289  35.756  1.00  0.00     0.005 C 
ENDBRANCH  35  37
ENDBRANCH  13  35
BRANCH  17  39
HETATM   39  C   UNL     1      41.865  16.102  42.715  1.00  0.00     0.016 C 
HETATM   40  C   UNL     1      41.517  17.019  41.545  1.00  0.00     0.012 C 
HETATM   41  C   UNL     1      42.521  16.896  43.843  1.00  0.00     0.012 C 
ENDBRANCH  17  39
BRANCH  18  42
HETATM   42  C   UNL     1      44.776   9.334  42.862  1.00  0.00     0.016 C 
HETATM   43  C   UNL     1      45.977   9.600  41.954  1.00  0.00     0.012 C 
HETATM   44  C   UNL     1      45.130   9.632  44.318  1.00  0.00     0.012 C 
ENDBRANCH  18  42
BRANCH  16  45
HETATM   45  C   UNL     1      39.616  12.028  41.682  1.00  0.00     0.010 C 
HETATM   46  C   UNL     1      39.540  12.037  40.156  1.00  0.00     0.012 C 
HETATM   47  C   UNL     1      39.148  13.368  42.248  1.00  0.00     0.012 C 
ENDBRANCH  16  45
TORSDOF 8
ENDMDL
MODEL 4
REMARK VINA RESULT:    -5.046     10.053     15.567
REMARK INTER + INTRA:          -6.625
REMARK INTER:                  -7.446
REMARK INTRA:                   0.821
REMARK UNBOUND:                 0.781
REMARK  8 active torsions:
REMARK  status: ('A' for Active; 'I' for Inactive)
REMARK    1  A    between atoms: C_13  and  C_15 
REMARK    2  A    between atoms: C_14  and  C_16 
REMARK    3  A    between atoms: C_15  and  C_22 
REMARK    4  A    between atoms: C_16  and  C_23 
REMARK    5  A    between atoms: C_17  and  C_21 
REMARK    6  A    between atoms: C_18  and  C_24 
REMARK    7  A    between atoms: C_19  and  C_27 
REMARK    8  A    between atoms: C_20  and  C_30 
ROOT
HETATM    1  O   UNL     1      47.122  10.997  40.148  1.00  0.00    -0.304 OA
HETATM    2  O   UNL     1      46.441  14.562  36.942  1.00  0.00    -0.304 OA
HETATM    3  O   UNL     1      50.390  13.961  37.639  1.00  0.00    -0.304 OA
HETATM    4  O   UNL     1      47.287  11.563  37.581  1.00  0.00    -0.270 OA
HETATM    5  O   UNL     1      47.230  13.195  40.845  1.00  0.00    -0.263 OA
HETATM    6  O   UNL     1      50.343  11.670  38.848  1.00  0.00    -0.270 OA
HETATM    7  O   UNL     1      45.445  14.919  34.898  1.00  0.00    -0.263 OA
HETATM    8  O   UNL     1      46.907  17.621  35.422  1.00  0.00    -0.270 OA
HETATM    9  O   UNL     1      50.641  16.238  37.364  1.00  0.00    -0.263 OA
HETATM   10  N   UNL     1      45.104  12.308  37.336  1.00  0.00    -0.340 N 
HETATM   11  N   UNL     1      49.997  12.724  40.886  1.00  0.00    -0.340 N 
HETATM   12  N   UNL     1      48.712  16.167  35.360  1.00  0.00    -0.340 N 
HETATM   13  C   UNL     1      45.336  12.719  35.932  1.00  0.00     0.190 C 
HETATM   14  C   UNL     1      49.065  11.664  41.315  1.00  0.00     0.190 C 
HETATM   15  C   UNL     1      45.867  11.232  39.479  1.00  0.00     0.227 C 
HETATM   16  C   UNL     1      49.368  14.904  35.759  1.00  0.00     0.190 C 
HETATM   17  C   UNL     1      50.985  13.967  38.954  1.00  0.00     0.227 C 
HETATM   18  C   UNL     1      46.905  15.906  37.107  1.00  0.00     0.227 C 
HETATM   19  C   UNL     1      46.155  11.717  38.053  1.00  0.00     0.250 C 
HETATM   20  C   UNL     1      47.707  12.071  40.760  1.00  0.00     0.283 C 
HETATM   21  C   UNL     1      50.443  12.677  39.557  1.00  0.00     0.250 C 
HETATM   22  C   UNL     1      45.697  14.203  35.859  1.00  0.00     0.283 C 
HETATM   23  C   UNL     1      47.493  16.633  35.878  1.00  0.00     0.250 C 
HETATM   24  C   UNL     1      50.210  15.154  37.000  1.00  0.00     0.283 C 
HETATM   25  C   UNL     1      43.788  12.623  37.901  1.00  0.00     0.153 C 
HETATM   26  C   UNL     1      50.288  13.828  41.804  1.00  0.00     0.153 C 
HETATM   27  C   UNL     1      49.382  16.988  34.351  1.00  0.00     0.153 C 
ENDROOT
BRANCH  15  28
HETATM   28  C   UNL     1      45.126   9.902  39.441  1.00  0.00     0.016 C 
HETATM   29  C   UNL     1      45.586   9.063  38.250  1.00  0.00     0.012 C 
HETATM   30  C   UNL     1      45.329   9.134  40.746  1.00  0.00     0.012 C 
ENDBRANCH  15  28
BRANCH  14  31
HETATM   31  C   UNL     1      48.956  11.419  42.814  1.00  0.00     0.014 C 
HETATM   32  C   UNL     1      47.623  10.736  43.131  1.00  0.00     0.012 C 
BRANCH  31  33
HETATM   33  C   UNL     1      50.120  10.568  43.353  1.00  0.00     0.002 C 
HETATM   34  C   UNL     1      49.670   9.410  44.234  1.00  0.00     0.005 C 
ENDBRANCH  31  33
ENDBRANCH  14  31
BRANCH  13  35
HETATM   35  C   UNL     1      44.173  12.380  35.000  1.00  0.00     0.014 C 
HETATM   36  C   UNL     1      44.563  12.685  33.551  1.00  0.00     0.012 C 
BRANCH  35  37
HETATM   37  C   UNL     1      43.733  10.910  35.121  1.00  0.00     0.002 C 
HETATM   38  C   UNL     1      42.223  10.722  35.099  1.00  0.00     0.005 C 
ENDBRANCH  35  37
ENDBRANCH  13  35
BRANCH  17  39
HETATM   39  C   UNL     1      52.498  13.917  38.847  1.00  0.00     0.016 C 
HETATM   40  C   UNL     1      53.107  15.270  39.203  1.00  0.00     0.012 C 
HETATM   41  C   UNL     1      52.922  13.490  37.443  1.00  0.00     0.012 C 
ENDBRANCH  17  39
BRANCH  18  42
HETATM   42  C   UNL     1      45.769  16.710  37.742  1.00  0.00     0.016 C 
HETATM   43  C   UNL     1      45.009  15.860  38.761  1.00  0.00     0.012 C 
HETATM   44  C   UNL     1      46.309  17.978  38.401  1.00  0.00     0.012 C 
ENDBRANCH  18  42
BRANCH  16  45
HETATM   45  C   UNL     1      50.216  14.244  34.674  1.00  0.00     0.010 C 
HETATM   46  C   UNL     1      50.181  12.723  34.811  1.00  0.00     0.012 C 
HETATM   47  C   UNL     1      51.657  14.752  34.731  1.00  0.00     0.012 C 
ENDBRANCH  16  45
TORSDOF 8
ENDMDL
MODEL 5
REMARK VINA RESULT:    -5.034     10.820     16.396
REMARK INTER + INTRA:          -6.608
REMARK INTER:                  -7.377
REMARK INTRA:                   0.769
REMARK UNBOUND:                 0.781
REMARK  8 active torsions:
REMARK  status: ('A' for Active; 'I' for Inactive)
REMARK    1  A    between atoms: C_13  and  C_15 
REMARK    2  A    between atoms: C_14  and  C_16 
REMARK    3  A    between atoms: C_15  and  C_22 
REMARK    4  A    between atoms: C_16  and  C_23 
REMARK    5  A    between atoms: C_17  and  C_21 
REMARK    6  A    between atoms: C_18  and  C_24 
REMARK    7  A    between atoms: C_19  and  C_27 
REMARK    8  A    between atoms: C_20  and  C_30 
ROOT
HETATM    1  O   UNL     1      47.397  16.396  35.949  1.00  0.00    -0.304 OA
HETATM    2  O   UNL     1      45.990  13.325  39.419  1.00  0.00    -0.304 OA
HETATM    3  O   UNL     1      50.033  13.575  39.245  1.00  0.00    -0.304 OA
HETATM    4  O   UNL     1      47.160  16.156  38.562  1.00  0.00    -0.270 OA
HETATM    5  O   UNL     1      47.420  14.124  35.541  1.00  0.00    -0.263 OA
HETATM    6  O   UNL     1      50.342  15.690  37.780  1.00  0.00    -0.270 OA
HETATM    7  O   UNL     1      44.695  13.299  41.322  1.00  0.00    -0.263 OA
HETATM    8  O   UNL     1      45.989  10.463  41.343  1.00  0.00    -0.270 OA
HETATM    9  O   UNL     1      50.056  11.342  39.821  1.00  0.00    -0.263 OA
HETATM   10  N   UNL     1      44.910  15.591  38.569  1.00  0.00    -0.340 N 
HETATM   11  N   UNL     1      50.195  14.406  35.852  1.00  0.00    -0.340 N 
HETATM   12  N   UNL     1      47.881  11.794  41.497  1.00  0.00    -0.340 N 
HETATM   13  C   UNL     1      44.911  15.350  40.031  1.00  0.00     0.190 C 
HETATM   14  C   UNL     1      49.422  15.461  35.168  1.00  0.00     0.190 C 
HETATM   15  C   UNL     1      46.047  16.330  36.449  1.00  0.00     0.227 C 
HETATM   16  C   UNL     1      48.687  12.950  41.052  1.00  0.00     0.190 C 
HETATM   17  C   UNL     1      50.801  13.361  38.041  1.00  0.00     0.227 C 
HETATM   18  C   UNL     1      46.360  11.944  39.484  1.00  0.00     0.227 C 
HETATM   19  C   UNL     1      46.095  16.016  37.949  1.00  0.00     0.250 C 
HETATM   20  C   UNL     1      47.971  15.217  35.562  1.00  0.00     0.283 C 
HETATM   21  C   UNL     1      50.456  14.595  37.217  1.00  0.00     0.250 C 
HETATM   22  C   UNL     1      45.136  13.867  40.330  1.00  0.00     0.283 C 
HETATM   23  C   UNL     1      46.711  11.344  40.864  1.00  0.00     0.250 C 
HETATM   24  C   UNL     1      49.670  12.489  39.987  1.00  0.00     0.283 C 
HETATM   25  C   UNL     1      43.663  15.291  37.858  1.00  0.00     0.153 C 
HETATM   26  C   UNL     1      50.518  13.177  35.124  1.00  0.00     0.153 C 
HETATM   27  C   UNL     1      48.336  11.069  42.683  1.00  0.00     0.153 C 
ENDROOT
BRANCH  15  28
HETATM   28  C   UNL     1      45.420  17.699  36.220  1.00  0.00     0.016 C 
HETATM   29  C   UNL     1      46.400  18.810  36.592  1.00  0.00     0.012 C 
HETATM   30  C   UNL     1      44.967  17.849  34.769  1.00  0.00     0.012 C 
ENDBRANCH  15  28
BRANCH  14  31
HETATM   31  C   UNL     1      49.541  15.517  33.651  1.00  0.00     0.014 C 
HETATM   32  C   UNL     1      48.337  16.258  33.065  1.00  0.00     0.012 C 
BRANCH  31  33
HETATM   33  C   UNL     1      50.845  16.194  33.192  1.00  0.00     0.002 C 
HETATM   34  C   UNL     1      51.284  17.343  34.089  1.00  0.00     0.005 C 
ENDBRANCH  31  33
ENDBRANCH  14  31
BRANCH  13  35
HETATM   35  C   UNL     1      43.663  15.880  40.734  1.00  0.00     0.014 C 
HETATM   36  C   UNL     1      42.704  14.725  41.031  1.00  0.00     0.012 C 
BRANCH  35  37
HETATM   37  C   UNL     1      43.997  16.627  42.038  1.00  0.00     0.002 C 
HETATM   38  C   UNL     1      45.205  17.545  41.922  1.00  0.00     0.005 C 
ENDBRANCH  35  37
ENDBRANCH  13  35
BRANCH  17  39
HETATM   39  C   UNL     1      52.284  13.328  38.363  1.00  0.00     0.016 C 
HETATM   40  C   UNL     1      52.625  14.366  39.429  1.00  0.00     0.012 C 
HETATM   41  C   UNL     1      53.113  13.561  37.102  1.00  0.00     0.012 C 
ENDBRANCH  17  39
BRANCH  18  42
HETATM   42  C   UNL     1      45.261  11.140  38.788  1.00  0.00     0.016 C 
HETATM   43  C   UNL     1      44.717  11.901  37.579  1.00  0.00     0.012 C 
HETATM   44  C   UNL     1      45.781   9.767  38.367  1.00  0.00     0.012 C 
ENDBRANCH  18  42
BRANCH  16  45
HETATM   45  C   UNL     1      49.430  13.688  42.164  1.00  0.00     0.010 C 
HETATM   46  C   UNL     1      49.354  15.200  41.954  1.00  0.00     0.012 C 
HETATM   47  C   UNL     1      50.886  13.232  42.238  1.00  0.00     0.012 C 
ENDBRANCH  16  45
TORSDOF 8
ENDMDL
MODEL 6
REMARK VINA RESULT:    -5.004      2.376      4.359
REMARK INTER + INTRA:          -6.563
REMARK INTER:                  -7.146
REMARK INTRA:                   0.583
REMARK UNBOUND:                 0.781
REMARK  8 active torsions:
REMARK  status: ('A' for Active; 'I' for Inactive)
REMARK    1  A    between atoms: C_13  and  C_15 
REMARK    2  A    between atoms: C_14  and  C_16 
REMARK    3  A    between atoms: C_15  and  C_22 
REMARK    4  A    between atoms: C_16  and  C_23 
REMARK    5  A    between atoms: C_17  and  C_21 
REMARK    6  A    between atoms: C_18  and  C_24 
REMARK    7  A    between atoms: C_19  and  C_27 
REMARK    8  A    between atoms: C_20  and  C_30 
ROOT
HETATM    1  O   UNL     1      46.518   7.912  46.480  1.00  0.00    -0.304 OA
HETATM    2  O   UNL     1      50.762   7.683  48.800  1.00  0.00    -0.304 OA
HETATM    3  O   UNL     1      48.292   4.691  49.978  1.00  0.00    -0.304 OA
HETATM    4  O   UNL     1      48.783   6.571  46.571  1.00  0.00    -0.270 OA
HETATM    5  O   UNL     1      46.693   8.748  48.624  1.00  0.00    -0.263 OA
HETATM    6  O   UNL     1      46.475   4.784  48.132  1.00  0.00    -0.270 OA
HETATM    7  O   UNL     1      53.010   7.507  48.335  1.00  0.00    -0.263 OA
HETATM    8  O   UNL     1      52.939   7.280  51.443  1.00  0.00    -0.270 OA
HETATM    9  O   UNL     1      49.242   4.920  52.068  1.00  0.00    -0.263 OA
HETATM   10  N   UNL     1      50.182   8.404  46.316  1.00  0.00    -0.340 N 
HETATM   11  N   UNL     1      45.315   6.404  49.322  1.00  0.00    -0.340 N 
HETATM   12  N   UNL     1      51.696   5.414  50.853  1.00  0.00    -0.340 N 
HETATM   13  C   UNL     1      51.399   7.581  46.514  1.00  0.00     0.190 C 
HETATM   14  C   UNL     1      44.969   7.118  48.077  1.00  0.00     0.190 C 
HETATM   15  C   UNL     1      47.690   8.639  46.061  1.00  0.00     0.227 C 
HETATM   16  C   UNL     1      50.627   4.772  50.060  1.00  0.00     0.190 C 
HETATM   17  C   UNL     1      46.951   4.902  50.470  1.00  0.00     0.227 C 
HETATM   18  C   UNL     1      50.918   7.734  50.221  1.00  0.00     0.227 C 
HETATM   19  C   UNL     1      48.927   7.777  46.343  1.00  0.00     0.250 C 
HETATM   20  C   UNL     1      46.153   8.032  47.792  1.00  0.00     0.283 C 
HETATM   21  C   UNL     1      46.212   5.331  49.209  1.00  0.00     0.250 C 
HETATM   22  C   UNL     1      51.845   7.626  47.975  1.00  0.00     0.283 C 
HETATM   23  C   UNL     1      51.952   6.794  50.879  1.00  0.00     0.250 C 
HETATM   24  C   UNL     1      49.332   4.804  50.855  1.00  0.00     0.283 C 
HETATM   25  C   UNL     1      50.386   9.849  46.176  1.00  0.00     0.153 C 
HETATM   26  C   UNL     1      44.832   6.931  50.600  1.00  0.00     0.153 C 
HETATM   27  C   UNL     1      52.548   4.547  51.668  1.00  0.00     0.153 C 
ENDROOT
BRANCH  15  28
HETATM   28  C   UNL     1      47.552   8.883  44.564  1.00  0.00     0.016 C 
HETATM   29  C   UNL     1      46.330   8.152  44.009  1.00  0.00     0.012 C 
HETATM   30  C   UNL     1      47.461  10.378  44.267  1.00  0.00     0.012 C 
ENDBRANCH  15  28
BRANCH  14  31
HETATM   31  C   UNL     1      43.682   7.932  48.095  1.00  0.00     0.014 C 
HETATM   32  C   UNL     1      43.728   8.995  46.995  1.00  0.00     0.012 C 
BRANCH  31  33
HETATM   33  C   UNL     1      42.431   7.054  47.921  1.00  0.00     0.002 C 
HETATM   34  C   UNL     1      41.294   7.418  48.866  1.00  0.00     0.005 C 
ENDBRANCH  31  33
ENDBRANCH  14  31
BRANCH  13  35
HETATM   35  C   UNL     1      52.541   7.949  45.568  1.00  0.00     0.014 C 
HETATM   36  C   UNL     1      53.607   6.851  45.591  1.00  0.00     0.012 C 
BRANCH  35  37
HETATM   37  C   UNL     1      52.058   8.174  44.124  1.00  0.00     0.002 C 
HETATM   38  C   UNL     1      52.958   7.537  43.074  1.00  0.00     0.005 C 
ENDBRANCH  35  37
ENDBRANCH  13  35
BRANCH  17  39
HETATM   39  C   UNL     1      46.380   3.604  51.012  1.00  0.00     0.016 C 
HETATM   40  C   UNL     1      46.277   2.559  49.904  1.00  0.00     0.012 C 
HETATM   41  C   UNL     1      45.014   3.844  51.652  1.00  0.00     0.012 C 
ENDBRANCH  17  39
BRANCH  18  42
HETATM   42  C   UNL     1      51.164   9.194  50.605  1.00  0.00     0.016 C 
HETATM   43  C   UNL     1      50.354  10.132  49.710  1.00  0.00     0.012 C 
HETATM   44  C   UNL     1      50.825   9.430  52.075  1.00  0.00     0.012 C 
ENDBRANCH  18  42
BRANCH  16  45
HETATM   45  C   UNL     1      50.928   3.345  49.606  1.00  0.00     0.010 C 
HETATM   46  C   UNL     1      50.744   3.208  48.094  1.00  0.00     0.012 C 
HETATM   47  C   UNL     1      50.039   2.344  50.343  1.00  0.00     0.012 C 
ENDBRANCH  16  45
TORSDOF 8
ENDMDL
MODEL 7
REMARK VINA RESULT:    -4.966     10.618     13.965
REMARK INTER + INTRA:          -6.507
REMARK INTER:                  -6.888
REMARK INTRA:                   0.381
REMARK UNBOUND:                 0.781
REMARK  8 active torsions:
REMARK  status: ('A' for Active; 'I' for Inactive)
REMARK    1  A    between atoms: C_13  and  C_15 
REMARK    2  A    between atoms: C_14  and  C_16 
REMARK    3  A    between atoms: C_15  and  C_22 
REMARK    4  A    between atoms: C_16  and  C_23 
REMARK    5  A    between atoms: C_17  and  C_21 
REMARK    6  A    between atoms: C_18  and  C_24 
REMARK    7  A    between atoms: C_19  and  C_27 
REMARK    8  A    between atoms: C_20  and  C_30 
ROOT
HETATM    1  O   UNL     1      46.010  15.034  42.998  1.00  0.00    -0.304 OA
HETATM    2  O   UNL     1      45.846  11.270  39.956  1.00  0.00    -0.304 OA
HETATM    3  O   UNL     1      42.657  13.717  39.422  1.00  0.00    -0.304 OA
HETATM    4  O   UNL     1      46.379  14.362  40.478  1.00  0.00    -0.270 OA
HETATM    5  O   UNL     1      44.666  13.224  43.494  1.00  0.00    -0.263 OA
HETATM    6  O   UNL     1      43.420  15.825  40.721  1.00  0.00    -0.270 OA
HETATM    7  O   UNL     1      47.116  10.289  38.307  1.00  0.00    -0.263 OA
HETATM    8  O   UNL     1      44.466   8.653  38.185  1.00  0.00    -0.270 OA
HETATM    9  O   UNL     1      41.451  11.809  38.946  1.00  0.00    -0.263 OA
HETATM   10  N   UNL     1      47.903  12.661  40.882  1.00  0.00    -0.340 N 
HETATM   11  N   UNL     1      42.589  14.938  42.698  1.00  0.00    -0.340 N 
HETATM   12  N   UNL     1      43.684  10.770  37.651  1.00  0.00    -0.340 N 
HETATM   13  C   UNL     1      47.940  12.270  39.453  1.00  0.00     0.190 C 
HETATM   14  C   UNL     1      43.735  15.474  43.459  1.00  0.00     0.190 C 
HETATM   15  C   UNL     1      47.137  14.174  42.741  1.00  0.00     0.227 C 
HETATM   16  C   UNL     1      43.621  12.225  37.902  1.00  0.00     0.190 C 
HETATM   17  C   UNL     1      41.765  14.119  40.484  1.00  0.00     0.227 C 
HETATM   18  C   UNL     1      44.775  10.324  39.887  1.00  0.00     0.227 C 
HETATM   19  C   UNL     1      47.099  13.743  41.270  1.00  0.00     0.250 C 
HETATM   20  C   UNL     1      44.832  14.426  43.332  1.00  0.00     0.283 C 
HETATM   21  C   UNL     1      42.644  15.057  41.302  1.00  0.00     0.250 C 
HETATM   22  C   UNL     1      46.958  11.130  39.183  1.00  0.00     0.283 C 
HETATM   23  C   UNL     1      44.313   9.840  38.495  1.00  0.00     0.250 C 
HETATM   24  C   UNL     1      42.432  12.523  38.801  1.00  0.00     0.283 C 
HETATM   25  C   UNL     1      48.671  11.823  41.808  1.00  0.00     0.153 C 
HETATM   26  C   UNL     1      41.548  14.195  43.412  1.00  0.00     0.153 C 
HETATM   27  C   UNL     1      43.044  10.264  36.436  1.00  0.00     0.153 C 
ENDROOT
BRANCH  15  28
HETATM   28  C   UNL     1      48.393  14.991  43.016  1.00  0.00     0.016 C 
HETATM   29  C   UNL     1      48.083  16.486  42.975  1.00  0.00     0.012 C 
HETATM   30  C   UNL     1      49.002  14.607  44.363  1.00  0.00     0.012 C 
ENDBRANCH  15  28
BRANCH  14  31
HETATM   31  C   UNL     1      43.489  15.786  44.930  1.00  0.00     0.014 C 
HETATM   32  C   UNL     1      44.816  16.110  45.618  1.00  0.00     0.012 C 
BRANCH  31  33
HETATM   33  C   UNL     1      42.501  16.950  45.123  1.00  0.00     0.002 C 
HETATM   34  C   UNL     1      42.091  17.166  46.574  1.00  0.00     0.005 C 
ENDBRANCH  31  33
ENDBRANCH  14  31
BRANCH  13  35
HETATM   35  C   UNL     1      49.343  11.932  38.952  1.00  0.00     0.014 C 
HETATM   36  C   UNL     1      49.375  11.985  37.422  1.00  0.00     0.012 C 
BRANCH  35  37
HETATM   37  C   UNL     1      50.416  12.874  39.528  1.00  0.00     0.002 C 
HETATM   38  C   UNL     1      51.613  13.068  38.608  1.00  0.00     0.005 C 
ENDBRANCH  35  37
ENDBRANCH  13  35
BRANCH  17  39
HETATM   39  C   UNL     1      40.571  14.862  39.914  1.00  0.00     0.016 C 
HETATM   40  C   UNL     1      40.504  16.281  40.474  1.00  0.00     0.012 C 
HETATM   41  C   UNL     1      39.277  14.107  40.210  1.00  0.00     0.012 C 
ENDBRANCH  17  39
BRANCH  18  42
HETATM   42  C   UNL     1      45.140   9.148  40.795  1.00  0.00     0.016 C 
HETATM   43  C   UNL     1      45.811   9.643  42.076  1.00  0.00     0.012 C 
HETATM   44  C   UNL     1      43.902   8.318  41.127  1.00  0.00     0.012 C 
ENDBRANCH  18  42
BRANCH  16  45
HETATM   45  C   UNL     1      43.560  13.095  36.648  1.00  0.00     0.010 C 
HETATM   46  C   UNL     1      44.695  14.119  36.645  1.00  0.00     0.012 C 
HETATM   47  C   UNL     1      42.207  13.798  36.542  1.00  0.00     0.012 C 
ENDBRANCH  16  45
TORSDOF 8
ENDMDL
MODEL 8
REMARK VINA RESULT:    -4.934      3.547      8.952
REMARK INTER + INTRA:          -6.461
REMARK INTER:                  -6.980
REMARK INTRA:                   0.519
REMARK UNBOUND:                 0.781
REMARK  8 active torsions:
REMARK  status: ('A' for Active; 'I' for Inactive)
REMARK    1  A    between atoms: C_13  and  C_15 
REMARK    2  A    between atoms: C_14  and  C_16 
REMARK    3  A    between atoms: C_15  and  C_22 
REMARK    4  A    between atoms: C_16  and  C_23 
REMARK    5  A    between atoms: C_17  and  C_21 
REMARK    6  A    between atoms: C_18  and  C_24 
REMARK    7  A    between atoms: C_19  and  C_27 
REMARK    8  A    between atoms: C_20  and  C_30 
ROOT
HETATM    1  O   UNL     1      52.430   4.503  49.394  1.00  0.00    -0.304 OA
HETATM    2  O   UNL     1      49.431   8.276  48.931  1.00  0.00    -0.304 OA
HETATM    3  O   UNL     1      52.221   8.261  45.989  1.00  0.00    -0.304 OA
HETATM    4  O   UNL     1      50.406   5.404  47.970  1.00  0.00    -0.270 OA
HETATM    5  O   UNL     1      53.089   6.583  50.146  1.00  0.00    -0.263 OA
HETATM    6  O   UNL     1      53.172   5.861  46.212  1.00  0.00    -0.270 OA
HETATM    7  O   UNL     1      47.184   8.714  48.692  1.00  0.00    -0.263 OA
HETATM    8  O   UNL     1      48.465  11.536  48.358  1.00  0.00    -0.270 OA
HETATM    9  O   UNL     1      52.157  10.564  46.109  1.00  0.00    -0.263 OA
HETATM   10  N   UNL     1      48.983   5.799  49.760  1.00  0.00    -0.340 N 
HETATM   11  N   UNL     1      54.674   6.580  47.829  1.00  0.00    -0.340 N 
HETATM   12  N   UNL     1      49.414  10.423  46.559  1.00  0.00    -0.340 N 
HETATM   13  C   UNL     1      47.956   6.416  48.888  1.00  0.00     0.190 C 
HETATM   14  C   UNL     1      54.494   5.333  48.598  1.00  0.00     0.190 C 
HETATM   15  C   UNL     1      51.174   4.607  50.093  1.00  0.00     0.227 C 
HETATM   16  C   UNL     1      50.101   9.248  45.983  1.00  0.00     0.190 C 
HETATM   17  C   UNL     1      53.643   8.202  46.230  1.00  0.00     0.227 C 
HETATM   18  C   UNL     1      49.841   9.647  48.926  1.00  0.00     0.227 C 
HETATM   19  C   UNL     1      50.162   5.307  49.178  1.00  0.00     0.250 C 
HETATM   20  C   UNL     1      53.276   5.574  49.479  1.00  0.00     0.283 C 
HETATM   21  C   UNL     1      53.825   6.775  46.730  1.00  0.00     0.250 C 
HETATM   22  C   UNL     1      48.114   7.936  48.865  1.00  0.00     0.283 C 
HETATM   23  C   UNL     1      49.162  10.611  47.927  1.00  0.00     0.250 C 
HETATM   24  C   UNL     1      51.603   9.477  46.033  1.00  0.00     0.283 C 
HETATM   25  C   UNL     1      48.713   5.817  51.202  1.00  0.00     0.153 C 
HETATM   26  C   UNL     1      55.607   7.593  48.327  1.00  0.00     0.153 C 
HETATM   27  C   UNL     1      48.965  11.464  45.634  1.00  0.00     0.153 C 
ENDROOT
BRANCH  15  28
HETATM   28  C   UNL     1      50.713   3.187  50.395  1.00  0.00     0.016 C 
HETATM   29  C   UNL     1      50.671   2.350  49.117  1.00  0.00     0.012 C 
HETATM   30  C   UNL     1      51.625   2.533  51.432  1.00  0.00     0.012 C 
ENDBRANCH  15  28
BRANCH  14  31
HETATM   31  C   UNL     1      55.670   4.888  49.457  1.00  0.00     0.014 C 
HETATM   32  C   UNL     1      55.156   4.159  50.700  1.00  0.00     0.012 C 
BRANCH  31  33
HETATM   33  C   UNL     1      56.647   3.982  48.687  1.00  0.00     0.002 C 
HETATM   34  C   UNL     1      58.111   4.329  48.919  1.00  0.00     0.005 C 
ENDBRANCH  31  33
ENDBRANCH  14  31
BRANCH  13  35
HETATM   35  C   UNL     1      46.529   6.006  49.249  1.00  0.00     0.014 C 
HETATM   36  C   UNL     1      45.599   6.266  48.061  1.00  0.00     0.012 C 
BRANCH  35  37
HETATM   37  C   UNL     1      46.431   4.529  49.673  1.00  0.00     0.002 C 
HETATM   38  C   UNL     1      46.879   3.555  48.593  1.00  0.00     0.005 C 
ENDBRANCH  35  37
ENDBRANCH  13  35
BRANCH  17  39
HETATM   39  C   UNL     1      54.405   8.419  44.934  1.00  0.00     0.016 C 
HETATM   40  C   UNL     1      55.270   7.203  44.611  1.00  0.00     0.012 C 
HETATM   41  C   UNL     1      55.262   9.680  45.020  1.00  0.00     0.012 C 
ENDBRANCH  17  39
BRANCH  18  42
HETATM   42  C   UNL     1      49.736  10.164  50.361  1.00  0.00     0.016 C 
HETATM   43  C   UNL     1      50.113   9.070  51.359  1.00  0.00     0.012 C 
HETATM   44  C   UNL     1      50.619  11.395  50.558  1.00  0.00     0.012 C 
ENDBRANCH  18  42
BRANCH  16  45
HETATM   45  C   UNL     1      49.675   8.880  44.564  1.00  0.00     0.010 C 
HETATM   46  C   UNL     1      48.612   7.782  44.586  1.00  0.00     0.012 C 
HETATM   47  C   UNL     1      50.880   8.439  43.734  1.00  0.00     0.012 C 
ENDBRANCH  16  45
TORSDOF 8
ENDMDL
MODEL 9
REMARK VINA RESULT:    -4.853      8.218     13.762
REMARK INTER + INTRA:          -6.342
REMARK INTER:                  -7.393
REMARK INTRA:                   1.052
REMARK UNBOUND:                 0.781
REMARK  8 active torsions:
REMARK  status: ('A' for Active; 'I' for Inactive)
REMARK    1  A    between atoms: C_13  and  C_15 
REMARK    2  A    between atoms: C_14  and  C_16 
REMARK    3  A    between atoms: C_15  and  C_22 
REMARK    4  A    between atoms: C_16  and  C_23 
REMARK    5  A    between atoms: C_17  and  C_21 
REMARK    6  A    between atoms: C_18  and  C_24 
REMARK    7  A    between atoms: C_19  and  C_27 
REMARK    8  A    between atoms: C_20  and  C_30 
ROOT
HETATM    1  O   UNL     1      45.991  11.217  39.509  1.00  0.00    -0.304 OA
HETATM    2  O   UNL     1      44.801  12.369  44.060  1.00  0.00    -0.304 OA
HETATM    3  O   UNL     1      44.870  15.660  41.692  1.00  0.00    -0.304 OA
HETATM    4  O   UNL     1      43.952  11.905  41.029  1.00  0.00    -0.270 OA
HETATM    5  O   UNL     1      47.597  12.078  40.926  1.00  0.00    -0.263 OA
HETATM    6  O   UNL     1      44.912  14.582  39.336  1.00  0.00    -0.270 OA
HETATM    7  O   UNL     1      43.215  11.849  45.645  1.00  0.00    -0.263 OA
HETATM    8  O   UNL     1      44.799  14.165  47.003  1.00  0.00    -0.270 OA
HETATM    9  O   UNL     1      45.637  16.803  43.543  1.00  0.00    -0.263 OA
HETATM   10  N   UNL     1      44.226  10.227  42.608  1.00  0.00    -0.340 N 
HETATM   11  N   UNL     1      47.225  14.421  39.424  1.00  0.00    -0.340 N 
HETATM   12  N   UNL     1      43.959  15.260  45.140  1.00  0.00    -0.340 N 
HETATM   13  C   UNL     1      43.147  10.772  43.465  1.00  0.00     0.190 C 
HETATM   14  C   UNL     1      47.193  13.106  38.755  1.00  0.00     0.190 C 
HETATM   15  C   UNL     1      45.591  10.243  40.494  1.00  0.00     0.227 C 
HETATM   16  C   UNL     1      43.697  15.322  43.687  1.00  0.00     0.190 C 
HETATM   17  C   UNL     1      46.000  16.043  40.880  1.00  0.00     0.227 C 
HETATM   18  C   UNL     1      45.522  13.291  44.882  1.00  0.00     0.227 C 
HETATM   19  C   UNL     1      44.522  10.871  41.397  1.00  0.00     0.250 C 
HETATM   20  C   UNL     1      46.980  12.090  39.869  1.00  0.00     0.283 C 
HETATM   21  C   UNL     1      45.991  14.975  39.794  1.00  0.00     0.250 C 
HETATM   22  C   UNL     1      43.728  11.684  44.545  1.00  0.00     0.283 C 
HETATM   23  C   UNL     1      44.717  14.262  45.774  1.00  0.00     0.250 C 
HETATM   24  C   UNL     1      44.854  16.035  43.004  1.00  0.00     0.283 C 
HETATM   25  C   UNL     1      44.964   9.076  43.139  1.00  0.00     0.153 C 
HETATM   26  C   UNL     1      48.520  14.999  39.791  1.00  0.00     0.153 C 
HETATM   27  C   UNL     1      43.386  16.315  45.977  1.00  0.00     0.153 C 
ENDROOT
BRANCH  15  28
HETATM   28  C   UNL     1      45.008   9.057  39.737  1.00  0.00     0.016 C 
HETATM   29  C   UNL     1      43.483   9.131  39.712  1.00  0.00     0.012 C 
HETATM   30  C   UNL     1      45.565   8.998  38.316  1.00  0.00     0.012 C 
ENDBRANCH  15  28
BRANCH  14  31
HETATM   31  C   UNL     1      48.423  12.726  37.941  1.00  0.00     0.014 C 
HETATM   32  C   UNL     1      48.880  11.316  38.323  1.00  0.00     0.012 C 
BRANCH  31  33
HETATM   33  C   UNL     1      48.167  12.799  36.426  1.00  0.00     0.002 C 
HETATM   34  C   UNL     1      46.792  12.289  36.015  1.00  0.00     0.005 C 
ENDBRANCH  31  33
ENDBRANCH  14  31
BRANCH  13  35
HETATM   35  C   UNL     1      42.247   9.693  44.067  1.00  0.00     0.014 C 
HETATM   36  C   UNL     1      41.537   8.927  42.948  1.00  0.00     0.012 C 
BRANCH  35  37
HETATM   37  C   UNL     1      43.026   8.709  44.959  1.00  0.00     0.002 C 
HETATM   38  C   UNL     1      42.286   8.325  46.232  1.00  0.00     0.005 C 
ENDBRANCH  35  37
ENDBRANCH  13  35
BRANCH  17  39
HETATM   39  C   UNL     1      45.775  17.420  40.282  1.00  0.00     0.016 C 
HETATM   40  C   UNL     1      45.847  17.362  38.758  1.00  0.00     0.012 C 
HETATM   41  C   UNL     1      46.795  18.416  40.830  1.00  0.00     0.012 C 
ENDBRANCH  17  39
BRANCH  18  42
HETATM   42  C   UNL     1      46.531  12.485  45.702  1.00  0.00     0.016 C 
HETATM   43  C   UNL     1      47.069  11.307  44.890  1.00  0.00     0.012 C 
HETATM   44  C   UNL     1      47.677  13.376  46.175  1.00  0.00     0.012 C 
ENDBRANCH  18  42
BRANCH  16  45
HETATM   45  C   UNL     1      42.374  15.978  43.295  1.00  0.00     0.010 C 
HETATM   46  C   UNL     1      41.485  14.991  42.540  1.00  0.00     0.012 C 
HETATM   47  C   UNL     1      42.619  17.229  42.453  1.00  0.00     0.012 C 
ENDBRANCH  16  45
TORSDOF 8
ENDMDL
MODEL 10
REMARK VINA RESULT:    -4.843      9.502     14.122
REMARK INTER + INTRA:          -6.328
REMARK INTER:                  -6.577
REMARK INTRA:                   0.249
REMARK UNBOUND:                 0.781
REMARK  8 active torsions:
REMARK  status: ('A' for Active; 'I' for Inactive)
REMARK    1  A    between atoms: C_13  and  C_15 
REMARK    2  A    between atoms: C_14  and  C_16 
REMARK    3  A    between atoms: C_15  and  C_22 
REMARK    4  A    between atoms: C_16  and  C_23 
REMARK    5  A    between atoms: C_17  and  C_21 
REMARK    6  A    between atoms: C_18  and  C_24 
REMARK    7  A    between atoms: C_19  and  C_27 
REMARK    8  A    between atoms: C_20  and  C_30 
ROOT
HETATM    1  O   UNL     1      46.914  12.844  39.890  1.00  0.00    -0.304 OA
HETATM    2  O   UNL     1      42.938  10.448  41.267  1.00  0.00    -0.304 OA
HETATM    3  O   UNL     1      42.506  14.439  41.835  1.00  0.00    -0.304 OA
HETATM    4  O   UNL     1      44.438  12.309  39.169  1.00  0.00    -0.270 OA
HETATM    5  O   UNL     1      46.575  12.387  42.127  1.00  0.00    -0.263 OA
HETATM    6  O   UNL     1      44.491  15.361  40.449  1.00  0.00    -0.270 OA
HETATM    7  O   UNL     1      41.368   9.005  40.400  1.00  0.00    -0.263 OA
HETATM    8  O   UNL     1      40.237   9.610  43.240  1.00  0.00    -0.270 OA
HETATM    9  O   UNL     1      41.258  13.897  43.698  1.00  0.00    -0.263 OA
HETATM   10  N   UNL     1      44.628  10.000  39.275  1.00  0.00    -0.340 N 
HETATM   11  N   UNL     1      45.910  15.111  42.268  1.00  0.00    -0.340 N 
HETATM   12  N   UNL     1      40.198  11.732  42.307  1.00  0.00    -0.340 N 
HETATM   13  C   UNL     1      43.186   9.806  38.995  1.00  0.00     0.190 C 
HETATM   14  C   UNL     1      47.011  14.667  41.391  1.00  0.00     0.190 C 
HETATM   15  C   UNL     1      46.652  11.473  39.532  1.00  0.00     0.227 C 
HETATM   16  C   UNL     1      40.845  12.819  41.543  1.00  0.00     0.190 C 
HETATM   17  C   UNL     1      43.434  15.250  42.587  1.00  0.00     0.227 C 
HETATM   18  C   UNL     1      42.379  10.485  42.584  1.00  0.00     0.227 C 
HETATM   19  C   UNL     1      45.143  11.304  39.314  1.00  0.00     0.250 C 
HETATM   20  C   UNL     1      46.809  13.168  41.215  1.00  0.00     0.283 C 
HETATM   21  C   UNL     1      44.651  15.276  41.671  1.00  0.00     0.250 C 
HETATM   22  C   UNL     1      42.401   9.656  40.298  1.00  0.00     0.283 C 
HETATM   23  C   UNL     1      40.843  10.557  42.726  1.00  0.00     0.250 C 
HETATM   24  C   UNL     1      41.530  13.768  42.514  1.00  0.00     0.283 C 
HETATM   25  C   UNL     1      45.405   8.791  39.569  1.00  0.00     0.153 C 
HETATM   26  C   UNL     1      46.148  15.213  43.709  1.00  0.00     0.153 C 
HETATM   27  C   UNL     1      38.785  11.894  42.650  1.00  0.00     0.153 C 
ENDROOT
BRANCH  15  28
HETATM   28  C   UNL     1      47.403  11.199  38.236  1.00  0.00     0.016 C 
HETATM   29  C   UNL     1      47.057  12.249  37.181  1.00  0.00     0.012 C 
HETATM   30  C   UNL     1      48.910  11.165  38.482  1.00  0.00     0.012 C 
ENDBRANCH  15  28
BRANCH  14  31
HETATM   31  C   UNL     1      48.426  14.941  41.883  1.00  0.00     0.014 C 
HETATM   32  C   UNL     1      49.409  14.004  41.177  1.00  0.00     0.012 C 
BRANCH  31  33
HETATM   33  C   UNL     1      48.849  16.404  41.662  1.00  0.00     0.002 C 
HETATM   34  C   UNL     1      50.204  16.744  42.266  1.00  0.00     0.005 C 
ENDBRANCH  31  33
ENDBRANCH  14  31
BRANCH  13  35
HETATM   35  C   UNL     1      42.905   8.650  38.036  1.00  0.00     0.014 C 
HETATM   36  C   UNL     1      41.477   8.761  37.494  1.00  0.00     0.012 C 
BRANCH  35  37
HETATM   37  C   UNL     1      43.903   8.602  36.865  1.00  0.00     0.002 C 
HETATM   38  C   UNL     1      43.832   9.819  35.954  1.00  0.00     0.005 C 
ENDBRANCH  35  37
ENDBRANCH  13  35
BRANCH  17  39
HETATM   39  C   UNL     1      42.876  16.648  42.778  1.00  0.00     0.016 C 
HETATM   40  C   UNL     1      43.785  17.684  42.121  1.00  0.00     0.012 C 
HETATM   41  C   UNL     1      42.697  16.956  44.263  1.00  0.00     0.012 C 
ENDBRANCH  17  39
BRANCH  18  42
HETATM   42  C   UNL     1      42.958   9.303  43.363  1.00  0.00     0.016 C 
HETATM   43  C   UNL     1      44.409   9.047  42.957  1.00  0.00     0.012 C 
HETATM   44  C   UNL     1      42.859   9.548  44.868  1.00  0.00     0.012 C 
ENDBRANCH  18  42
BRANCH  16  45
HETATM   45  C   UNL     1      39.916  13.600  40.616  1.00  0.00     0.010 C 
HETATM   46  C   UNL     1      40.460  13.611  39.188  1.00  0.00     0.012 C 
HETATM   47  C   UNL     1      39.721  15.029  41.124  1.00  0.00     0.012 C 
ENDBRANCH  16  45
TORSDOF 8
ENDMDL
MODEL 11
REMARK VINA RESULT:    -4.800     10.142     14.471
REMARK INTER + INTRA:          -6.263
REMARK INTER:                  -6.824
REMARK INTRA:                   0.561
REMARK UNBOUND:                 0.781
REMARK  8 active torsions:
REMARK  status: ('A' for Active; 'I' for Inactive)
REMARK    1  A    between atoms: C_13  and  C_15 
REMARK    2  A    between atoms: C_14  and  C_16 
REMARK    3  A    between atoms: C_15  and  C_22 
REMARK    4  A    between atoms: C_16  and  C_23 
REMARK    5  A    between atoms: C_17  and  C_21 
REMARK    6  A    between atoms: C_18  and  C_24 
REMARK    7  A    between atoms: C_19  and  C_27 
REMARK    8  A    between atoms: C_20  and  C_30 
ROOT
HETATM    1  O   UNL     1      45.568  15.846  40.539  1.00  0.00    -0.304 OA
HETATM    2  O   UNL     1      41.645  13.511  42.155  1.00  0.00    -0.304 OA
HETATM    3  O   UNL     1      44.303  10.931  40.505  1.00  0.00    -0.304 OA
HETATM    4  O   UNL     1      44.712  14.291  42.485  1.00  0.00    -0.270 OA
HETATM    5  O   UNL     1      43.907  15.243  39.055  1.00  0.00    -0.263 OA
HETATM    6  O   UNL     1      46.420  12.417  40.359  1.00  0.00    -0.270 OA
HETATM    7  O   UNL     1      40.463  13.205  44.106  1.00  0.00    -0.263 OA
HETATM    8  O   UNL     1      39.042  11.251  42.137  1.00  0.00    -0.270 OA
HETATM    9  O   UNL     1      42.472   9.727  39.783  1.00  0.00    -0.263 OA
HETATM   10  N   UNL     1      42.922  15.625  43.117  1.00  0.00    -0.340 N 
HETATM   11  N   UNL     1      45.729  13.243  38.304  1.00  0.00    -0.340 N 
HETATM   12  N   UNL     1      41.176  10.346  42.167  1.00  0.00    -0.340 N 
HETATM   13  C   UNL     1      42.440  14.623  44.096  1.00  0.00     0.190 C 
HETATM   14  C   UNL     1      46.218  14.594  38.644  1.00  0.00     0.190 C 
HETATM   15  C   UNL     1      44.605  16.439  41.433  1.00  0.00     0.227 C 
HETATM   16  C   UNL     1      42.645  10.498  42.096  1.00  0.00     0.190 C 
HETATM   17  C   UNL     1      44.842  11.074  39.173  1.00  0.00     0.227 C 
HETATM   18  C   UNL     1      40.786  12.704  41.344  1.00  0.00     0.227 C 
HETATM   19  C   UNL     1      44.088  15.353  42.384  1.00  0.00     0.250 C 
HETATM   20  C   UNL     1      45.079  15.256  39.407  1.00  0.00     0.283 C 
HETATM   21  C   UNL     1      45.755  12.283  39.325  1.00  0.00     0.250 C 
HETATM   22  C   UNL     1      41.368  13.732  43.470  1.00  0.00     0.283 C 
HETATM   23  C   UNL     1      40.254  11.379  41.934  1.00  0.00     0.250 C 
HETATM   24  C   UNL     1      43.093  10.315  40.655  1.00  0.00     0.283 C 
HETATM   25  C   UNL     1      42.084  16.815  42.934  1.00  0.00     0.153 C 
HETATM   26  C   UNL     1      45.119  13.020  36.991  1.00  0.00     0.153 C 
HETATM   27  C   UNL     1      40.648   9.024  42.505  1.00  0.00     0.153 C 
ENDROOT
BRANCH  15  28
HETATM   28  C   UNL     1      45.334  17.521  42.219  1.00  0.00     0.016 C 
HETATM   29  C   UNL     1      46.163  16.904  43.344  1.00  0.00     0.012 C 
HETATM   30  C   UNL     1      46.221  18.353  41.295  1.00  0.00     0.012 C 
ENDBRANCH  15  28
BRANCH  14  31
HETATM   31  C   UNL     1      46.640  15.478  37.479  1.00  0.00     0.014 C 
HETATM   32  C   UNL     1      46.308  16.939  37.793  1.00  0.00     0.012 C 
BRANCH  31  33
HETATM   33  C   UNL     1      48.138  15.342  37.154  1.00  0.00     0.002 C 
HETATM   34  C   UNL     1      48.432  14.340  36.045  1.00  0.00     0.005 C 
ENDBRANCH  31  33
ENDBRANCH  14  31
BRANCH  13  35
HETATM   35  C   UNL     1      41.959  15.240  45.409  1.00  0.00     0.014 C 
HETATM   36  C   UNL     1      42.071  14.211  46.537  1.00  0.00     0.012 C 
BRANCH  35  37
HETATM   37  C   UNL     1      42.743  16.510  45.783  1.00  0.00     0.002 C 
HETATM   38  C   UNL     1      41.997  17.426  46.742  1.00  0.00     0.005 C 
ENDBRANCH  35  37
ENDBRANCH  13  35
BRANCH  17  39
HETATM   39  C   UNL     1      45.641   9.840  38.795  1.00  0.00     0.016 C 
HETATM   40  C   UNL     1      47.042  10.230  38.330  1.00  0.00     0.012 C 
HETATM   41  C   UNL     1      44.918   9.044  37.710  1.00  0.00     0.012 C 
ENDBRANCH  17  39
BRANCH  18  42
HETATM   42  C   UNL     1      39.645  13.595  40.853  1.00  0.00     0.016 C 
HETATM   43  C   UNL     1      40.138  15.022  40.612  1.00  0.00     0.012 C 
HETATM   44  C   UNL     1      39.021  13.023  39.582  1.00  0.00     0.012 C 
ENDBRANCH  18  42
BRANCH  16  45
HETATM   45  C   UNL     1      43.437   9.567  43.012  1.00  0.00     0.010 C 
HETATM   46  C   UNL     1      44.278  10.371  44.003  1.00  0.00     0.012 C 
HETATM   47  C   UNL     1      44.325   8.630  42.195  1.00  0.00     0.012 C 
ENDBRANCH  16  45
TORSDOF 8
ENDMDL
MODEL 12
REMARK VINA RESULT:    -4.769     12.931     17.640
REMARK INTER + INTRA:          -6.218
REMARK INTER:                  -6.481
REMARK INTRA:                   0.263
REMARK UNBOUND:                 0.781
REMARK  8 active torsions:
REMARK  status: ('A' for Active; 'I' for Inactive)
REMARK    1  A    between atoms: C_13  and  C_15 
REMARK    2  A    between atoms: C_14  and  C_16 
REMARK    3  A    between atoms: C_15  and  C_22 
REMARK    4  A    between atoms: C_16  and  C_23 
REMARK    5  A    between atoms: C_17  and  C_21 
REMARK    6  A    between atoms: C_18  and  C_24 
REMARK    7  A    between atoms: C_19  and  C_27 
REMARK    8  A    between atoms: C_20  and  C_30 
ROOT
HETATM    1  O   UNL     1      51.535  18.392  38.554  1.00  0.00    -0.304 OA
HETATM    2  O   UNL     1      47.499  16.103  39.938  1.00  0.00    -0.304 OA
HETATM    3  O   UNL     1      49.736  13.766  37.495  1.00  0.00    -0.304 OA
HETATM    4  O   UNL     1      50.648  16.499  40.156  1.00  0.00    -0.270 OA
HETATM    5  O   UNL     1      49.720  18.318  37.130  1.00  0.00    -0.263 OA
HETATM    6  O   UNL     1      51.990  15.045  37.503  1.00  0.00    -0.270 OA
HETATM    7  O   UNL     1      46.426  15.446  41.866  1.00  0.00    -0.263 OA
HETATM    8  O   UNL     1      44.667  14.160  39.637  1.00  0.00    -0.270 OA
HETATM    9  O   UNL     1      47.739  12.943  36.686  1.00  0.00    -0.263 OA
HETATM   10  N   UNL     1      49.064  17.799  41.243  1.00  0.00    -0.340 N 
HETATM   11  N   UNL     1      51.255  16.401  35.770  1.00  0.00    -0.340 N 
HETATM   12  N   UNL     1      46.686  13.085  39.258  1.00  0.00    -0.340 N 
HETATM   13  C   UNL     1      48.542  16.638  42.003  1.00  0.00     0.190 C 
HETATM   14  C   UNL     1      51.913  17.579  36.368  1.00  0.00     0.190 C 
HETATM   15  C   UNL     1      50.707  18.838  39.647  1.00  0.00     0.227 C 
HETATM   16  C   UNL     1      48.154  13.115  39.089  1.00  0.00     0.190 C 
HETATM   17  C   UNL     1      50.196  14.176  36.189  1.00  0.00     0.227 C 
HETATM   18  C   UNL     1      46.502  15.597  39.045  1.00  0.00     0.227 C 
HETATM   19  C   UNL     1      50.139  17.607  40.363  1.00  0.00     0.250 C 
HETATM   20  C   UNL     1      50.908  18.139  37.366  1.00  0.00     0.283 C 
HETATM   21  C   UNL     1      51.245  15.224  36.533  1.00  0.00     0.250 C 
HETATM   22  C   UNL     1      47.338  16.025  41.289  1.00  0.00     0.283 C 
HETATM   23  C   UNL     1      45.869  14.223  39.358  1.00  0.00     0.250 C 
HETATM   24  C   UNL     1      48.480  13.245  37.609  1.00  0.00     0.283 C 
HETATM   25  C   UNL     1      48.352  19.069  41.421  1.00  0.00     0.153 C 
HETATM   26  C   UNL     1      50.536  16.556  34.503  1.00  0.00     0.153 C 
HETATM   27  C   UNL     1      46.040  11.774  39.326  1.00  0.00     0.153 C 
ENDROOT
BRANCH  15  28
HETATM   28  C   UNL     1      51.603  19.628  40.592  1.00  0.00     0.016 C 
HETATM   29  C   UNL     1      53.074  19.307  40.334  1.00  0.00     0.012 C 
HETATM   30  C   UNL     1      51.349  21.127  40.448  1.00  0.00     0.012 C 
ENDBRANCH  15  28
BRANCH  14  31
HETATM   31  C   UNL     1      52.349  18.676  35.407  1.00  0.00     0.014 C 
HETATM   32  C   UNL     1      52.468  20.005  36.158  1.00  0.00     0.012 C 
BRANCH  31  33
HETATM   33  C   UNL     1      53.682  18.348  34.711  1.00  0.00     0.002 C 
HETATM   34  C   UNL     1      53.594  18.355  33.191  1.00  0.00     0.005 C 
ENDBRANCH  31  33
ENDBRANCH  14  31
BRANCH  13  35
HETATM   35  C   UNL     1      48.223  16.962  43.462  1.00  0.00     0.014 C 
HETATM   36  C   UNL     1      48.160  15.669  44.279  1.00  0.00     0.012 C 
BRANCH  35  37
HETATM   37  C   UNL     1      49.248  17.924  44.089  1.00  0.00     0.002 C 
HETATM   38  C   UNL     1      48.648  18.866  45.121  1.00  0.00     0.005 C 
ENDBRANCH  35  37
ENDBRANCH  13  35
BRANCH  17  39
HETATM   39  C   UNL     1      50.826  13.002  35.462  1.00  0.00     0.016 C 
HETATM   40  C   UNL     1      52.280  13.307  35.110  1.00  0.00     0.012 C 
HETATM   41  C   UNL     1      50.030  12.659  34.204  1.00  0.00     0.012 C 
ENDBRANCH  17  39
BRANCH  18  42
HETATM   42  C   UNL     1      45.435  16.680  38.883  1.00  0.00     0.016 C 
HETATM   43  C   UNL     1      46.076  18.067  38.839  1.00  0.00     0.012 C 
HETATM   44  C   UNL     1      44.604  16.435  37.626  1.00  0.00     0.012 C 
ENDBRANCH  18  42
BRANCH  16  45
HETATM   45  C   UNL     1      48.899  11.923  39.686  1.00  0.00     0.010 C 
HETATM   46  C   UNL     1      49.889  12.385  40.755  1.00  0.00     0.012 C 
HETATM   47  C   UNL     1      49.621  11.134  38.595  1.00  0.00     0.012 C 
ENDBRANCH  16  45
TORSDOF 8
ENDMDL
MODEL 13
REMARK VINA RESULT:    -4.731     10.690     13.162
REMARK INTER + INTRA:          -6.163
REMARK INTER:                  -6.684
REMARK INTRA:                   0.521
REMARK UNBOUND:                 0.781
REMARK  8 active torsions:
REMARK  status: ('A' for Active; 'I' for Inactive)
REMARK    1  A    between atoms: C_13  and  C_15 
REMARK    2  A    between atoms: C_14  and  C_16 
REMARK    3  A    between atoms: C_15  and  C_22 
REMARK    4  A    between atoms: C_16  and  C_23 
REMARK    5  A    between atoms: C_17  and  C_21 
REMARK    6  A    between atoms: C_18  and  C_24 
REMARK    7  A    between atoms: C_19  and  C_27 
REMARK    8  A    between atoms: C_20  and  C_30 
ROOT
HETATM    1  O   UNL     1      43.034  14.539  42.074  1.00  0.00    -0.304 OA
HETATM    2  O   UNL     1      47.872  14.523  41.858  1.00  0.00    -0.304 OA
HETATM    3  O   UNL     1      46.273  12.263  38.896  1.00  0.00    -0.304 OA
HETATM    4  O   UNL     1      45.072  15.519  40.723  1.00  0.00    -0.270 OA
HETATM    5  O   UNL     1      44.210  12.752  42.941  1.00  0.00    -0.263 OA
HETATM    6  O   UNL     1      43.795  13.019  38.971  1.00  0.00    -0.270 OA
HETATM    7  O   UNL     1      49.626  16.001  41.665  1.00  0.00    -0.263 OA
HETATM    8  O   UNL     1      51.048  13.233  41.485  1.00  0.00    -0.270 OA
HETATM    9  O   UNL     1      48.104  10.884  39.152  1.00  0.00    -0.263 OA
HETATM   10  N   UNL     1      46.174  16.440  42.545  1.00  0.00    -0.340 N 
HETATM   11  N   UNL     1      43.339  11.445  40.614  1.00  0.00    -0.340 N 
HETATM   12  N   UNL     1      49.680  13.130  39.616  1.00  0.00    -0.340 N 
HETATM   13  C   UNL     1      47.341  16.833  41.720  1.00  0.00     0.190 C 
HETATM   14  C   UNL     1      42.438  12.384  41.311  1.00  0.00     0.190 C 
HETATM   15  C   UNL     1      43.862  15.478  42.789  1.00  0.00     0.227 C 
HETATM   16  C   UNL     1      48.364  13.307  38.967  1.00  0.00     0.190 C 
HETATM   17  C   UNL     1      45.328  11.194  39.121  1.00  0.00     0.227 C 
HETATM   18  C   UNL     1      48.687  13.349  41.930  1.00  0.00     0.227 C 
HETATM   19  C   UNL     1      45.086  15.807  41.926  1.00  0.00     0.250 C 
HETATM   20  C   UNL     1      43.340  13.214  42.215  1.00  0.00     0.283 C 
HETATM   21  C   UNL     1      44.076  11.955  39.535  1.00  0.00     0.250 C 
HETATM   22  C   UNL     1      48.431  15.763  41.785  1.00  0.00     0.283 C 
HETATM   23  C   UNL     1      49.913  13.251  40.996  1.00  0.00     0.250 C 
HETATM   24  C   UNL     1      47.605  11.991  39.017  1.00  0.00     0.283 C 
HETATM   25  C   UNL     1      46.283  16.682  43.988  1.00  0.00     0.153 C 
HETATM   26  C   UNL     1      43.523  10.099  41.162  1.00  0.00     0.153 C 
HETATM   27  C   UNL     1      50.819  12.807  38.758  1.00  0.00     0.153 C 
ENDROOT
BRANCH  15  28
HETATM   28  C   UNL     1      43.026  16.731  43.011  1.00  0.00     0.016 C 
HETATM   29  C   UNL     1      41.844  16.769  42.043  1.00  0.00     0.012 C 
HETATM   30  C   UNL     1      42.535  16.803  44.456  1.00  0.00     0.012 C 
ENDBRANCH  15  28
BRANCH  14  31
HETATM   31  C   UNL     1      41.314  11.766  42.132  1.00  0.00     0.014 C 
HETATM   32  C   UNL     1      40.816  12.776  43.169  1.00  0.00     0.012 C 
BRANCH  31  33
HETATM   33  C   UNL     1      40.140  11.296  41.255  1.00  0.00     0.002 C 
HETATM   34  C   UNL     1      39.756   9.840  41.481  1.00  0.00     0.005 C 
ENDBRANCH  31  33
ENDBRANCH  14  31
BRANCH  13  35
HETATM   35  C   UNL     1      47.892  18.215  42.068  1.00  0.00     0.014 C 
HETATM   36  C   UNL     1      49.209  18.071  42.834  1.00  0.00     0.012 C 
BRANCH  35  37
HETATM   37  C   UNL     1      48.108  19.092  40.822  1.00  0.00     0.002 C 
HETATM   38  C   UNL     1      47.424  18.555  39.573  1.00  0.00     0.005 C 
ENDBRANCH  35  37
ENDBRANCH  13  35
BRANCH  17  39
HETATM   39  C   UNL     1      45.090  10.425  37.834  1.00  0.00     0.016 C 
HETATM   40  C   UNL     1      43.647  10.599  37.365  1.00  0.00     0.012 C 
HETATM   41  C   UNL     1      45.417   8.946  38.024  1.00  0.00     0.012 C 
ENDBRANCH  17  39
BRANCH  18  42
HETATM   42  C   UNL     1      49.083  13.152  43.394  1.00  0.00     0.016 C 
HETATM   43  C   UNL     1      47.948  13.583  44.324  1.00  0.00     0.012 C 
HETATM   44  C   UNL     1      49.468  11.698  43.659  1.00  0.00     0.012 C 
ENDBRANCH  18  42
BRANCH  16  45
HETATM   45  C   UNL     1      48.415  13.828  37.532  1.00  0.00     0.010 C 
HETATM   46  C   UNL     1      47.572  15.094  37.386  1.00  0.00     0.012 C 
HETATM   47  C   UNL     1      47.942  12.756  36.551  1.00  0.00     0.012 C 
ENDBRANCH  16  45
TORSDOF 8
ENDMDL
MODEL 14
REMARK VINA RESULT:    -4.655      9.928     14.607
REMARK INTER + INTRA:          -6.051
REMARK INTER:                  -6.362
REMARK INTRA:                   0.311
REMARK UNBOUND:                 0.781
REMARK  8 active torsions:
REMARK  status: ('A' for Active; 'I' for Inactive)
REMARK    1  A    between atoms: C_13  and  C_15 
REMARK    2  A    between atoms: C_14  and  C_16 
REMARK    3  A    between atoms: C_15  and  C_22 
REMARK    4  A    between atoms: C_16  and  C_23 
REMARK    5  A    between atoms: C_17  and  C_21 
REMARK    6  A    between atoms: C_18  and  C_24 
REMARK    7  A    between atoms: C_19  and  C_27 
REMARK    8  A    between atoms: C_20  and  C_30 
ROOT
HETATM    1  O   UNL     1      47.880  15.496  38.823  1.00  0.00    -0.304 OA
HETATM    2  O   UNL     1      45.093  15.773  42.773  1.00  0.00    -0.304 OA
HETATM    3  O   UNL     1      45.249  11.975  41.361  1.00  0.00    -0.304 OA
HETATM    4  O   UNL     1      47.832  14.926  41.394  1.00  0.00    -0.270 OA
HETATM    5  O   UNL     1      45.585  15.593  38.596  1.00  0.00    -0.263 OA
HETATM    6  O   UNL     1      47.247  12.132  39.719  1.00  0.00    -0.270 OA
HETATM    7  O   UNL     1      45.229  16.427  44.975  1.00  0.00    -0.263 OA
HETATM    8  O   UNL     1      42.377  15.182  44.812  1.00  0.00    -0.270 OA
HETATM    9  O   UNL     1      43.062  11.772  42.067  1.00  0.00    -0.263 OA
HETATM   10  N   UNL     1      47.315  17.066  42.125  1.00  0.00    -0.340 N 
HETATM   11  N   UNL     1      45.833  12.855  38.028  1.00  0.00    -0.340 N 
HETATM   12  N   UNL     1      43.677  13.336  44.286  1.00  0.00    -0.340 N 
HETATM   13  C   UNL     1      47.178  16.620  43.532  1.00  0.00     0.190 C 
HETATM   14  C   UNL     1      46.851  13.803  37.535  1.00  0.00     0.190 C 
HETATM   15  C   UNL     1      47.878  16.630  39.712  1.00  0.00     0.227 C 
HETATM   16  C   UNL     1      44.781  12.706  43.533  1.00  0.00     0.190 C 
HETATM   17  C   UNL     1      44.934  11.609  40.001  1.00  0.00     0.227 C 
HETATM   18  C   UNL     1      43.713  15.398  42.825  1.00  0.00     0.227 C 
HETATM   19  C   UNL     1      47.670  16.127  41.146  1.00  0.00     0.250 C 
HETATM   20  C   UNL     1      46.665  15.065  38.367  1.00  0.00     0.283 C 
HETATM   21  C   UNL     1      46.113  12.192  39.232  1.00  0.00     0.250 C 
HETATM   22  C   UNL     1      45.717  16.311  43.858  1.00  0.00     0.283 C 
HETATM   23  C   UNL     1      43.207  14.642  44.073  1.00  0.00     0.250 C 
HETATM   24  C   UNL     1      44.226  12.093  42.257  1.00  0.00     0.283 C 
HETATM   25  C   UNL     1      46.990  18.470  41.851  1.00  0.00     0.153 C 
HETATM   26  C   UNL     1      44.548  12.766  37.329  1.00  0.00     0.153 C 
HETATM   27  C   UNL     1      43.029  12.540  45.329  1.00  0.00     0.153 C 
ENDROOT
BRANCH  15  28
HETATM   28  C   UNL     1      49.239  17.300  39.584  1.00  0.00     0.016 C 
HETATM   29  C   UNL     1      50.342  16.255  39.424  1.00  0.00     0.012 C 
HETATM   30  C   UNL     1      49.252  18.275  38.408  1.00  0.00     0.012 C 
ENDBRANCH  15  28
BRANCH  14  31
HETATM   31  C   UNL     1      46.797  14.151  36.054  1.00  0.00     0.014 C 
HETATM   32  C   UNL     1      47.252  15.597  35.845  1.00  0.00     0.012 C 
BRANCH  31  33
HETATM   33  C   UNL     1      47.657  13.204  35.199  1.00  0.00     0.002 C 
HETATM   34  C   UNL     1      48.990  12.846  35.840  1.00  0.00     0.005 C 
ENDBRANCH  31  33
ENDBRANCH  14  31
BRANCH  13  35
HETATM   35  C   UNL     1      47.783  17.596  44.540  1.00  0.00     0.014 C 
HETATM   36  C   UNL     1      48.072  16.869  45.856  1.00  0.00     0.012 C 
BRANCH  35  37
HETATM   37  C   UNL     1      49.070  18.257  44.017  1.00  0.00     0.002 C 
HETATM   38  C   UNL     1      49.313  19.649  44.583  1.00  0.00     0.005 C 
ENDBRANCH  35  37
ENDBRANCH  13  35
BRANCH  17  39
HETATM   39  C   UNL     1      44.894  10.099  39.859  1.00  0.00     0.016 C 
HETATM   40  C   UNL     1      45.904   9.630  38.815  1.00  0.00     0.012 C 
HETATM   41  C   UNL     1      43.487   9.631  39.492  1.00  0.00     0.012 C 
ENDBRANCH  17  39
BRANCH  18  42
HETATM   42  C   UNL     1      42.884  16.654  42.557  1.00  0.00     0.016 C 
HETATM   43  C   UNL     1      43.634  17.609  41.628  1.00  0.00     0.012 C 
HETATM   44  C   UNL     1      41.525  16.288  41.964  1.00  0.00     0.012 C 
ENDBRANCH  18  42
BRANCH  16  45
HETATM   45  C   UNL     1      45.582  11.662  44.309  1.00  0.00     0.010 C 
HETATM   46  C   UNL     1      47.070  12.012  44.309  1.00  0.00     0.012 C 
HETATM   47  C   UNL     1      45.361  10.267  43.726  1.00  0.00     0.012 C 
ENDBRANCH  16  45
TORSDOF 8
ENDMDL
MODEL 15
REMARK VINA RESULT:    -4.637     17.092     22.209
REMARK INTER + INTRA:          -6.025
REMARK INTER:                  -6.470
REMARK INTRA:                   0.446
REMARK UNBOUND:                 0.781
REMARK  8 active torsions:
REMARK  status: ('A' for Active; 'I' for Inactive)
REMARK    1  A    between atoms: C_13  and  C_15 
REMARK    2  A    between atoms: C_14  and  C_16 
REMARK    3  A    between atoms: C_15  and  C_22 
REMARK    4  A    between atoms: C_16  and  C_23 
REMARK    5  A    between atoms: C_17  and  C_21 
REMARK    6  A    between atoms: C_18  and  C_24 
REMARK    7  A    between atoms: C_19  and  C_27 
REMARK    8  A    between atoms: C_20  and  C_30 
ROOT
HETATM    1  O   UNL     1      64.717  11.023  36.201  1.00  0.00    -0.304 OA
HETATM    2  O   UNL     1      63.562  10.637  40.888  1.00  0.00    -0.304 OA
HETATM    3  O   UNL     1      60.648  12.554  38.820  1.00  0.00    -0.304 OA
HETATM    4  O   UNL     1      63.168   9.702  37.873  1.00  0.00    -0.270 OA
HETATM    5  O   UNL     1      65.042  12.823  37.609  1.00  0.00    -0.263 OA
HETATM    6  O   UNL     1      61.324  12.009  36.379  1.00  0.00    -0.270 OA
HETATM    7  O   UNL     1      63.268   9.017  42.496  1.00  0.00    -0.263 OA
HETATM    8  O   UNL     1      62.375  11.611  43.975  1.00  0.00    -0.270 OA
HETATM    9  O   UNL     1      60.317  13.811  40.726  1.00  0.00    -0.263 OA
HETATM   10  N   UNL     1      64.863   8.978  39.282  1.00  0.00    -0.340 N 
HETATM   11  N   UNL     1      62.752  13.837  36.340  1.00  0.00    -0.340 N 
HETATM   12  N   UNL     1      60.817  11.543  42.260  1.00  0.00    -0.340 N 
HETATM   13  C   UNL     1      63.899   8.379  40.235  1.00  0.00     0.190 C 
HETATM   14  C   UNL     1      63.752  13.082  35.560  1.00  0.00     0.190 C 
HETATM   15  C   UNL     1      65.397  10.139  37.114  1.00  0.00     0.227 C 
HETATM   16  C   UNL     1      60.474  11.374  40.832  1.00  0.00     0.190 C 
HETATM   17  C   UNL     1      60.879  13.713  37.992  1.00  0.00     0.227 C 
HETATM   18  C   UNL     1      63.285  11.743  41.753  1.00  0.00     0.227 C 
HETATM   19  C   UNL     1      64.375   9.594  38.120  1.00  0.00     0.250 C 
HETATM   20  C   UNL     1      64.583  12.328  36.589  1.00  0.00     0.283 C 
HETATM   21  C   UNL     1      61.646  13.119  36.817  1.00  0.00     0.250 C 
HETATM   22  C   UNL     1      63.579   9.360  41.363  1.00  0.00     0.283 C 
HETATM   23  C   UNL     1      62.126  11.609  42.765  1.00  0.00     0.250 C 
HETATM   24  C   UNL     1      60.461  12.738  40.160  1.00  0.00     0.283 C 
HETATM   25  C   UNL     1      66.276   8.942  39.672  1.00  0.00     0.153 C 
HETATM   26  C   UNL     1      63.033  15.231  36.694  1.00  0.00     0.153 C 
HETATM   27  C   UNL     1      59.712  11.649  43.213  1.00  0.00     0.153 C 
ENDROOT
BRANCH  15  28
HETATM   28  C   UNL     1      65.975   9.000  36.285  1.00  0.00     0.016 C 
HETATM   29  C   UNL     1      65.374   8.998  34.880  1.00  0.00     0.012 C 
HETATM   30  C   UNL     1      67.498   9.102  36.215  1.00  0.00     0.012 C 
ENDBRANCH  15  28
BRANCH  14  31
HETATM   31  C   UNL     1      64.667  13.898  34.657  1.00  0.00     0.014 C 
HETATM   32  C   UNL     1      66.057  13.258  34.617  1.00  0.00     0.012 C 
BRANCH  31  33
HETATM   33  C   UNL     1      64.113  14.031  33.228  1.00  0.00     0.002 C 
HETATM   34  C   UNL     1      63.298  15.298  33.006  1.00  0.00     0.005 C 
ENDBRANCH  31  33
ENDBRANCH  14  31
BRANCH  13  35
HETATM   35  C   UNL     1      64.349   7.025  40.782  1.00  0.00     0.014 C 
HETATM   36  C   UNL     1      63.127   6.142  41.051  1.00  0.00     0.012 C 
BRANCH  35  37
HETATM   37  C   UNL     1      65.316   6.298  39.830  1.00  0.00     0.002 C 
HETATM   38  C   UNL     1      66.184   5.258  40.521  1.00  0.00     0.005 C 
ENDBRANCH  35  37
ENDBRANCH  13  35
BRANCH  17  39
HETATM   39  C   UNL     1      59.558  14.300  37.530  1.00  0.00     0.016 C 
HETATM   40  C   UNL     1      59.450  14.248  36.008  1.00  0.00     0.012 C 
HETATM   41  C   UNL     1      59.405  15.736  38.030  1.00  0.00     0.012 C 
ENDBRANCH  17  39
BRANCH  18  42
HETATM   42  C   UNL     1      64.593  12.122  42.449  1.00  0.00     0.016 C 
HETATM   43  C   UNL     1      65.780  11.942  41.503  1.00  0.00     0.012 C 
HETATM   44  C   UNL     1      64.534  13.558  42.965  1.00  0.00     0.012 C 
ENDBRANCH  18  42
BRANCH  16  45
HETATM   45  C   UNL     1      59.158  10.646  40.564  1.00  0.00     0.010 C 
HETATM   46  C   UNL     1      59.349   9.553  39.514  1.00  0.00     0.012 C 
HETATM   47  C   UNL     1      58.076  11.630  40.121  1.00  0.00     0.012 C 
ENDBRANCH  16  45
TORSDOF 8
ENDMDL
MODEL 16
REMARK VINA RESULT:    -4.594      2.006      4.554
REMARK INTER + INTRA:          -5.961
REMARK INTER:                  -6.896
REMARK INTRA:                   0.934
REMARK UNBOUND:                 0.781
REMARK  8 active torsions:
REMARK  status: ('A' for Active; 'I' for Inactive)
REMARK    1  A    between atoms: C_13  and  C_15 
REMARK    2  A    between atoms: C_14  and  C_16 
REMARK    3  A    between atoms: C_15  and  C_22 
REMARK    4  A    between atoms: C_16  and  C_23 
REMARK    5  A    between atoms: C_17  and  C_21 
REMARK    6  A    between atoms: C_18  and  C_24 
REMARK    7  A    between atoms: C_19  and  C_27 
REMARK    8  A    between atoms: C_20  and  C_30 
ROOT
HETATM    1  O   UNL     1      44.189   6.435  49.529  1.00  0.00    -0.304 OA
HETATM    2  O   UNL     1      48.056   4.413  51.627  1.00  0.00    -0.304 OA
HETATM    3  O   UNL     1      44.634   3.298  53.494  1.00  0.00    -0.304 OA
HETATM    4  O   UNL     1      45.491   4.157  49.764  1.00  0.00    -0.270 OA
HETATM    5  O   UNL     1      45.057   7.362  51.456  1.00  0.00    -0.263 OA
HETATM    6  O   UNL     1      42.854   4.037  51.762  1.00  0.00    -0.270 OA
HETATM    7  O   UNL     1      49.835   3.054  51.091  1.00  0.00    -0.263 OA
HETATM    8  O   UNL     1      50.108   3.342  54.183  1.00  0.00    -0.270 OA
HETATM    9  O   UNL     1      45.862   3.308  55.447  1.00  0.00    -0.263 OA
HETATM   10  N   UNL     1      47.556   4.965  49.083  1.00  0.00    -0.340 N 
HETATM   11  N   UNL     1      42.822   6.172  52.669  1.00  0.00    -0.340 N 
HETATM   12  N   UNL     1      48.040   2.305  54.034  1.00  0.00    -0.340 N 
HETATM   13  C   UNL     1      48.226   3.676  49.376  1.00  0.00     0.190 C 
HETATM   14  C   UNL     1      42.697   6.777  51.328  1.00  0.00     0.190 C 
HETATM   15  C   UNL     1      45.493   6.396  48.916  1.00  0.00     0.227 C 
HETATM   16  C   UNL     1      46.693   2.190  53.438  1.00  0.00     0.190 C 
HETATM   17  C   UNL     1      43.656   4.229  54.003  1.00  0.00     0.227 C 
HETATM   18  C   UNL     1      48.419   4.581  53.001  1.00  0.00     0.227 C 
HETATM   19  C   UNL     1      46.174   5.076  49.298  1.00  0.00     0.250 C 
HETATM   20  C   UNL     1      44.122   6.910  50.809  1.00  0.00     0.283 C 
HETATM   21  C   UNL     1      43.050   4.789  52.723  1.00  0.00     0.250 C 
HETATM   22  C   UNL     1      48.842   3.696  50.775  1.00  0.00     0.283 C 
HETATM   23  C   UNL     1      48.942   3.351  53.776  1.00  0.00     0.250 C 
HETATM   24  C   UNL     1      45.709   2.990  54.277  1.00  0.00     0.283 C 
HETATM   25  C   UNL     1      48.421   6.068  48.653  1.00  0.00     0.153 C 
HETATM   26  C   UNL     1      42.849   7.049  53.842  1.00  0.00     0.153 C 
HETATM   27  C   UNL     1      48.463   1.253  54.958  1.00  0.00     0.153 C 
ENDROOT
BRANCH  15  28
HETATM   28  C   UNL     1      45.279   6.459  47.409  1.00  0.00     0.016 C 
HETATM   29  C   UNL     1      43.789   6.462  47.076  1.00  0.00     0.012 C 
HETATM   30  C   UNL     1      45.962   7.692  46.819  1.00  0.00     0.012 C 
ENDBRANCH  15  28
BRANCH  14  31
HETATM   31  C   UNL     1      41.993   8.125  51.253  1.00  0.00     0.014 C 
HETATM   32  C   UNL     1      42.407   8.853  49.971  1.00  0.00     0.012 C 
BRANCH  31  33
HETATM   33  C   UNL     1      40.461   7.990  51.305  1.00  0.00     0.002 C 
HETATM   34  C   UNL     1      39.810   8.853  52.376  1.00  0.00     0.005 C 
ENDBRANCH  31  33
ENDBRANCH  14  31
BRANCH  13  35
HETATM   35  C   UNL     1      49.253   3.272  48.319  1.00  0.00     0.014 C 
HETATM   36  C   UNL     1      50.663   3.608  48.810  1.00  0.00     0.012 C 
BRANCH  35  37
HETATM   37  C   UNL     1      49.170   1.777  47.960  1.00  0.00     0.002 C 
HETATM   38  C   UNL     1      50.488   1.193  47.476  1.00  0.00     0.005 C 
ENDBRANCH  35  37
ENDBRANCH  13  35
BRANCH  17  39
HETATM   39  C   UNL     1      42.606   3.495  54.817  1.00  0.00     0.016 C 
HETATM   40  C   UNL     1      41.361   3.231  53.975  1.00  0.00     0.012 C 
HETATM   41  C   UNL     1      42.247   4.290  56.072  1.00  0.00     0.012 C 
ENDBRANCH  17  39
BRANCH  18  42
HETATM   42  C   UNL     1      49.402   5.749  53.079  1.00  0.00     0.016 C 
HETATM   43  C   UNL     1      49.053   6.819  52.044  1.00  0.00     0.012 C 
HETATM   44  C   UNL     1      49.419   6.349  54.483  1.00  0.00     0.012 C 
ENDBRANCH  18  42
BRANCH  16  45
HETATM   45  C   UNL     1      46.185   0.761  53.257  1.00  0.00     0.010 C 
HETATM   46  C   UNL     1      45.564   0.579  51.873  1.00  0.00     0.012 C 
HETATM   47  C   UNL     1      45.175   0.403  54.347  1.00  0.00     0.012 C 
ENDBRANCH  16  45
TORSDOF 8
ENDMDL
MODEL 17
REMARK VINA RESULT:    -4.521      8.461     13.256
REMARK INTER + INTRA:          -5.855
REMARK INTER:                  -6.544
REMARK INTRA:                   0.689
REMARK UNBOUND:                 0.781
REMARK  8 active torsions:
REMARK  status: ('A' for Active; 'I' for Inactive)
REMARK    1  A    between atoms: C_13  and  C_15 
REMARK    2  A    between atoms: C_14  and  C_16 
REMARK    3  A    between atoms: C_15  and  C_22 
REMARK    4  A    between atoms: C_16  and  C_23 
REMARK    5  A    between atoms: C_17  and  C_21 
REMARK    6  A    between atoms: C_18  and  C_24 
REMARK    7  A    between atoms: C_19  and  C_27 
REMARK    8  A    between atoms: C_20  and  C_30 
ROOT
HETATM    1  O   UNL     1      48.468  15.852  42.152  1.00  0.00    -0.304 OA
HETATM    2  O   UNL     1      46.383  11.483  42.019  1.00  0.00    -0.304 OA
HETATM    3  O   UNL     1      43.824  14.277  43.464  1.00  0.00    -0.304 OA
HETATM    4  O   UNL     1      46.715  14.409  40.816  1.00  0.00    -0.270 OA
HETATM    5  O   UNL     1      48.338  14.590  44.081  1.00  0.00    -0.263 OA
HETATM    6  O   UNL     1      45.044  16.465  42.801  1.00  0.00    -0.270 OA
HETATM    7  O   UNL     1      45.890   9.818  40.508  1.00  0.00    -0.263 OA
HETATM    8  O   UNL     1      44.494   8.812  43.107  1.00  0.00    -0.270 OA
HETATM    9  O   UNL     1      42.996  12.610  44.827  1.00  0.00    -0.263 OA
HETATM   10  N   UNL     1      48.127  12.622  40.379  1.00  0.00    -0.340 N 
HETATM   11  N   UNL     1      46.293  16.390  44.756  1.00  0.00    -0.340 N 
HETATM   12  N   UNL     1      43.345  10.793  42.748  1.00  0.00    -0.340 N 
HETATM   13  C   UNL     1      47.036  11.830  39.762  1.00  0.00     0.190 C 
HETATM   14  C   UNL     1      47.494  16.874  44.047  1.00  0.00     0.190 C 
HETATM   15  C   UNL     1      49.009  14.738  41.415  1.00  0.00     0.227 C 
HETATM   16  C   UNL     1      43.327  12.237  42.434  1.00  0.00     0.190 C 
HETATM   17  C   UNL     1      44.129  15.150  44.573  1.00  0.00     0.227 C 
HETATM   18  C   UNL     1      45.840  10.804  43.155  1.00  0.00     0.227 C 
HETATM   19  C   UNL     1      47.847  13.913  40.851  1.00  0.00     0.250 C 
HETATM   20  C   UNL     1      48.147  15.629  43.463  1.00  0.00     0.283 C 
HETATM   21  C   UNL     1      45.173  16.081  43.969  1.00  0.00     0.250 C 
HETATM   22  C   UNL     1      46.405  10.893  40.792  1.00  0.00     0.283 C 
HETATM   23  C   UNL     1      44.507  10.041  42.984  1.00  0.00     0.250 C 
HETATM   24  C   UNL     1      43.344  13.028  43.733  1.00  0.00     0.283 C 
HETATM   25  C   UNL     1      49.424  11.950  40.517  1.00  0.00     0.153 C 
HETATM   26  C   UNL     1      46.376  16.125  46.194  1.00  0.00     0.153 C 
HETATM   27  C   UNL     1      42.059  10.099  42.816  1.00  0.00     0.153 C 
ENDROOT
BRANCH  15  28
HETATM   28  C   UNL     1      49.842  15.317  40.279  1.00  0.00     0.016 C 
HETATM   29  C   UNL     1      49.463  16.775  40.022  1.00  0.00     0.012 C 
HETATM   30  C   UNL     1      51.333  15.199  40.588  1.00  0.00     0.012 C 
ENDBRANCH  15  28
BRANCH  14  31
HETATM   31  C   UNL     1      48.509  17.647  44.878  1.00  0.00     0.014 C 
HETATM   32  C   UNL     1      49.901  17.038  44.690  1.00  0.00     0.012 C 
BRANCH  31  33
HETATM   33  C   UNL     1      48.540  19.143  44.519  1.00  0.00     0.002 C 
HETATM   34  C   UNL     1      48.868  20.046  45.701  1.00  0.00     0.005 C 
ENDBRANCH  31  33
ENDBRANCH  14  31
BRANCH  13  35
HETATM   35  C   UNL     1      47.470  11.074  38.508  1.00  0.00     0.014 C 
HETATM   36  C   UNL     1      46.245  10.751  37.647  1.00  0.00     0.012 C 
BRANCH  35  37
HETATM   37  C   UNL     1      48.498  11.860  37.674  1.00  0.00     0.002 C 
HETATM   38  C   UNL     1      47.872  12.908  36.765  1.00  0.00     0.005 C 
ENDBRANCH  35  37
ENDBRANCH  13  35
BRANCH  17  39
HETATM   39  C   UNL     1      42.892  15.926  44.986  1.00  0.00     0.016 C 
HETATM   40  C   UNL     1      42.528  16.961  43.924  1.00  0.00     0.012 C 
HETATM   41  C   UNL     1      43.108  16.600  46.340  1.00  0.00     0.012 C 
ENDBRANCH  17  39
BRANCH  18  42
HETATM   42  C   UNL     1      46.935   9.898  43.718  1.00  0.00     0.016 C 
HETATM   43  C   UNL     1      48.306  10.560  43.583  1.00  0.00     0.012 C 
HETATM   44  C   UNL     1      46.651   9.548  45.177  1.00  0.00     0.012 C 
ENDBRANCH  18  42
BRANCH  16  45
HETATM   45  C   UNL     1      42.162  12.695  41.558  1.00  0.00     0.010 C 
HETATM   46  C   UNL     1      42.671  13.470  40.343  1.00  0.00     0.012 C 
HETATM   47  C   UNL     1      41.182  13.547  42.363  1.00  0.00     0.012 C 
ENDBRANCH  16  45
TORSDOF 8
ENDMDL
MODEL 18
REMARK VINA RESULT:    -4.497      8.647     13.619
REMARK INTER + INTRA:          -5.820
REMARK INTER:                  -6.086
REMARK INTRA:                   0.267
REMARK UNBOUND:                 0.781
REMARK  8 active torsions:
REMARK  status: ('A' for Active; 'I' for Inactive)
REMARK    1  A    between atoms: C_13  and  C_15 
REMARK    2  A    between atoms: C_14  and  C_16 
REMARK    3  A    between atoms: C_15  and  C_22 
REMARK    4  A    between atoms: C_16  and  C_23 
REMARK    5  A    between atoms: C_17  and  C_21 
REMARK    6  A    between atoms: C_18  and  C_24 
REMARK    7  A    between atoms: C_19  and  C_27 
REMARK    8  A    between atoms: C_20  and  C_30 
ROOT
HETATM    1  O   UNL     1      45.554  11.668  39.145  1.00  0.00    -0.304 OA
HETATM    2  O   UNL     1      43.745  11.406  43.629  1.00  0.00    -0.304 OA
HETATM    3  O   UNL     1      44.700  15.226  42.663  1.00  0.00    -0.304 OA
HETATM    4  O   UNL     1      43.395  12.180  40.564  1.00  0.00    -0.270 OA
HETATM    5  O   UNL     1      46.986  11.661  40.955  1.00  0.00    -0.263 OA
HETATM    6  O   UNL     1      45.010  15.031  40.097  1.00  0.00    -0.270 OA
HETATM    7  O   UNL     1      41.844  10.697  44.717  1.00  0.00    -0.263 OA
HETATM    8  O   UNL     1      43.471  12.051  47.005  1.00  0.00    -0.270 OA
HETATM    9  O   UNL     1      45.277  15.494  44.880  1.00  0.00    -0.263 OA
HETATM   10  N   UNL     1      43.142  10.045  41.435  1.00  0.00    -0.340 N 
HETATM   11  N   UNL     1      47.224  14.400  40.388  1.00  0.00    -0.340 N 
HETATM   12  N   UNL     1      43.141  13.859  45.592  1.00  0.00    -0.340 N 
HETATM   13  C   UNL     1      42.015  10.465  42.302  1.00  0.00     0.190 C 
HETATM   14  C   UNL     1      47.126  13.426  39.283  1.00  0.00     0.190 C 
HETATM   15  C   UNL     1      44.851  10.515  39.650  1.00  0.00     0.227 C 
HETATM   16  C   UNL     1      43.154  14.464  44.243  1.00  0.00     0.190 C 
HETATM   17  C   UNL     1      46.000  15.634  42.185  1.00  0.00     0.227 C 
HETATM   18  C   UNL     1      44.431  11.831  44.811  1.00  0.00     0.227 C 
HETATM   19  C   UNL     1      43.738  10.993  40.589  1.00  0.00     0.250 C 
HETATM   20  C   UNL     1      46.576  12.154  39.913  1.00  0.00     0.283 C 
HETATM   21  C   UNL     1      46.034  15.025  40.790  1.00  0.00     0.250 C 
HETATM   22  C   UNL     1      42.517  10.820  43.701  1.00  0.00     0.283 C 
HETATM   23  C   UNL     1      43.624  12.577  45.897  1.00  0.00     0.250 C 
HETATM   24  C   UNL     1      44.503  15.126  44.010  1.00  0.00     0.283 C 
HETATM   25  C   UNL     1      43.603   8.661  41.588  1.00  0.00     0.153 C 
HETATM   26  C   UNL     1      48.501  14.552  41.089  1.00  0.00     0.153 C 
HETATM   27  C   UNL     1      42.582  14.655  46.685  1.00  0.00     0.153 C 
ENDROOT
BRANCH  15  28
HETATM   28  C   UNL     1      44.252   9.797  38.448  1.00  0.00     0.016 C 
HETATM   29  C   UNL     1      43.928  10.790  37.333  1.00  0.00     0.012 C 
HETATM   30  C   UNL     1      45.199   8.712  37.939  1.00  0.00     0.012 C 
ENDBRANCH  15  28
BRANCH  14  31
HETATM   31  C   UNL     1      48.415  13.114  38.535  1.00  0.00     0.014 C 
HETATM   32  C   UNL     1      48.340  11.705  37.941  1.00  0.00     0.012 C 
BRANCH  31  33
HETATM   33  C   UNL     1      48.708  14.135  37.422  1.00  0.00     0.002 C 
HETATM   34  C   UNL     1      47.454  14.680  36.750  1.00  0.00     0.005 C 
ENDBRANCH  31  33
ENDBRANCH  14  31
BRANCH  13  35
HETATM   35  C   UNL     1      40.879   9.444  42.356  1.00  0.00     0.014 C 
HETATM   36  C   UNL     1      39.614  10.105  42.910  1.00  0.00     0.012 C 
BRANCH  35  37
HETATM   37  C   UNL     1      40.581   8.823  40.980  1.00  0.00     0.002 C 
HETATM   38  C   UNL     1      39.432   7.826  40.998  1.00  0.00     0.005 C 
ENDBRANCH  35  37
ENDBRANCH  13  35
BRANCH  17  39
HETATM   39  C   UNL     1      46.082  17.148  42.114  1.00  0.00     0.016 C 
HETATM   40  C   UNL     1      46.133  17.614  40.661  1.00  0.00     0.012 C 
HETATM   41  C   UNL     1      47.299  17.656  42.884  1.00  0.00     0.012 C 
ENDBRANCH  17  39
BRANCH  18  42
HETATM   42  C   UNL     1      45.152  10.612  45.388  1.00  0.00     0.016 C 
HETATM   43  C   UNL     1      45.671   9.711  44.268  1.00  0.00     0.012 C 
HETATM   44  C   UNL     1      46.298  11.045  46.301  1.00  0.00     0.012 C 
ENDBRANCH  18  42
BRANCH  16  45
HETATM   45  C   UNL     1      42.028  15.460  43.969  1.00  0.00     0.010 C 
HETATM   46  C   UNL     1      41.250  15.064  42.715  1.00  0.00     0.012 C 
HETATM   47  C   UNL     1      42.582  16.877  43.829  1.00  0.00     0.012 C 
ENDBRANCH  16  45
TORSDOF 8
ENDMDL
MODEL 19
REMARK VINA RESULT:    -4.443     10.042     15.710
REMARK INTER + INTRA:          -5.740
REMARK INTER:                  -6.142
REMARK INTRA:                   0.402
REMARK UNBOUND:                 0.781
REMARK  8 active torsions:
REMARK  status: ('A' for Active; 'I' for Inactive)
REMARK    1  A    between atoms: C_13  and  C_15 
REMARK    2  A    between atoms: C_14  and  C_16 
REMARK    3  A    between atoms: C_15  and  C_22 
REMARK    4  A    between atoms: C_16  and  C_23 
REMARK    5  A    between atoms: C_17  and  C_21 
REMARK    6  A    between atoms: C_18  and  C_24 
REMARK    7  A    between atoms: C_19  and  C_27 
REMARK    8  A    between atoms: C_20  and  C_30 
ROOT
HETATM    1  O   UNL     1      51.813  13.227  41.646  1.00  0.00    -0.304 OA
HETATM    2  O   UNL     1      47.275  14.702  40.818  1.00  0.00    -0.304 OA
HETATM    3  O   UNL     1      49.116  13.637  37.366  1.00  0.00    -0.304 OA
HETATM    4  O   UNL     1      49.400  12.347  41.059  1.00  0.00    -0.270 OA
HETATM    5  O   UNL     1      51.430  15.377  40.898  1.00  0.00    -0.263 OA
HETATM    6  O   UNL     1      51.186  12.368  38.272  1.00  0.00    -0.270 OA
HETATM    7  O   UNL     1      45.120  14.187  41.442  1.00  0.00    -0.263 OA
HETATM    8  O   UNL     1      44.691  16.349  39.239  1.00  0.00    -0.270 OA
HETATM    9  O   UNL     1      47.901  15.323  36.363  1.00  0.00    -0.263 OA
HETATM   10  N   UNL     1      48.314  13.349  42.847  1.00  0.00    -0.340 N 
HETATM   11  N   UNL     1      52.360  14.362  38.451  1.00  0.00    -0.340 N 
HETATM   12  N   UNL     1      45.747  14.693  38.008  1.00  0.00    -0.340 N 
HETATM   13  C   UNL     1      46.983  12.919  42.360  1.00  0.00     0.190 C 
HETATM   14  C   UNL     1      52.983  13.920  39.714  1.00  0.00     0.190 C 
HETATM   15  C   UNL     1      50.825  13.374  42.686  1.00  0.00     0.227 C 
HETATM   16  C   UNL     1      46.827  13.698  37.840  1.00  0.00     0.190 C 
HETATM   17  C   UNL     1      50.383  14.175  36.931  1.00  0.00     0.227 C 
HETATM   18  C   UNL     1      46.915  15.790  39.962  1.00  0.00     0.227 C 
HETATM   19  C   UNL     1      49.456  12.980  42.119  1.00  0.00     0.250 C 
HETATM   20  C   UNL     1      51.988  14.292  40.806  1.00  0.00     0.283 C 
HETATM   21  C   UNL     1      51.355  13.541  37.918  1.00  0.00     0.250 C 
HETATM   22  C   UNL     1      46.331  14.026  41.531  1.00  0.00     0.283 C 
HETATM   23  C   UNL     1      45.677  15.628  39.053  1.00  0.00     0.250 C 
HETATM   24  C   UNL     1      47.980  14.341  37.086  1.00  0.00     0.283 C 
HETATM   25  C   UNL     1      48.329  14.206  44.038  1.00  0.00     0.153 C 
HETATM   26  C   UNL     1      52.711  15.676  37.908  1.00  0.00     0.153 C 
HETATM   27  C   UNL     1      44.674  14.700  37.013  1.00  0.00     0.153 C 
ENDROOT
BRANCH  15  28
HETATM   28  C   UNL     1      51.219  12.426  43.811  1.00  0.00     0.016 C 
HETATM   29  C   UNL     1      50.716  11.012  43.527  1.00  0.00     0.012 C 
HETATM   30  C   UNL     1      52.734  12.426  44.011  1.00  0.00     0.012 C 
ENDBRANCH  15  28
BRANCH  14  31
HETATM   31  C   UNL     1      54.349  14.508  40.041  1.00  0.00     0.014 C 
HETATM   32  C   UNL     1      54.646  14.329  41.532  1.00  0.00     0.012 C 
BRANCH  31  33
HETATM   33  C   UNL     1      55.474  13.873  39.205  1.00  0.00     0.002 C 
HETATM   34  C   UNL     1      56.383  14.892  38.533  1.00  0.00     0.005 C 
ENDBRANCH  31  33
ENDBRANCH  14  31
BRANCH  13  35
HETATM   35  C   UNL     1      46.056  12.434  43.474  1.00  0.00     0.014 C 
HETATM   36  C   UNL     1      44.821  11.764  42.866  1.00  0.00     0.012 C 
BRANCH  35  37
HETATM   37  C   UNL     1      46.756  11.460  44.438  1.00  0.00     0.002 C 
HETATM   38  C   UNL     1      47.085  10.113  43.809  1.00  0.00     0.005 C 
ENDBRANCH  35  37
ENDBRANCH  13  35
BRANCH  17  39
HETATM   39  C   UNL     1      50.687  13.724  35.514  1.00  0.00     0.016 C 
HETATM   40  C   UNL     1      52.059  13.060  35.444  1.00  0.00     0.012 C 
HETATM   41  C   UNL     1      50.612  14.905  34.548  1.00  0.00     0.012 C 
ENDBRANCH  17  39
BRANCH  18  42
HETATM   42  C   UNL     1      46.812  17.045  40.830  1.00  0.00     0.016 C 
HETATM   43  C   UNL     1      47.883  17.037  41.920  1.00  0.00     0.012 C 
HETATM   44  C   UNL     1      46.928  18.304  39.974  1.00  0.00     0.012 C 
ENDBRANCH  18  42
BRANCH  16  45
HETATM   45  C   UNL     1      46.410  12.400  37.151  1.00  0.00     0.010 C 
HETATM   46  C   UNL     1      46.854  11.187  37.969  1.00  0.00     0.012 C 
HETATM   47  C   UNL     1      46.984  12.329  35.737  1.00  0.00     0.012 C 
ENDBRANCH  16  45
TORSDOF 8
ENDMDL
MODEL 20
REMARK VINA RESULT:    -4.391     10.816     14.733
REMARK INTER + INTRA:          -5.664
REMARK INTER:                  -6.496
REMARK INTRA:                   0.831
REMARK UNBOUND:                 0.781
REMARK  8 active torsions:
REMARK  status: ('A' for Active; 'I' for Inactive)
REMARK    1  A    between atoms: C_13  and  C_15 
REMARK    2  A    between atoms: C_14  and  C_16 
REMARK    3  A    between atoms: C_15  and  C_22 
REMARK    4  A    between atoms: C_16  and  C_23 
REMARK    5  A    between atoms: C_17  and  C_21 
REMARK    6  A    between atoms: C_18  and  C_24 
REMARK    7  A    between atoms: C_19  and  C_27 
REMARK    8  A    between atoms: C_20  and  C_30 
ROOT
HETATM    1  O   UNL     1      45.330  13.802  42.448  1.00  0.00    -0.304 OA
HETATM    2  O   UNL     1      45.790  12.561  37.790  1.00  0.00    -0.304 OA
HETATM    3  O   UNL     1      49.102  14.484  39.121  1.00  0.00    -0.304 OA
HETATM    4  O   UNL     1      46.525  12.084  40.848  1.00  0.00    -0.270 OA
HETATM    5  O   UNL     1      44.952  15.378  40.805  1.00  0.00    -0.263 OA
HETATM    6  O   UNL     1      48.732  14.405  41.684  1.00  0.00    -0.270 OA
HETATM    7  O   UNL     1      45.731  10.684  36.459  1.00  0.00    -0.263 OA
HETATM    8  O   UNL     1      46.607  12.908  34.459  1.00  0.00    -0.270 OA
HETATM    9  O   UNL     1      49.260  15.383  37.002  1.00  0.00    -0.263 OA
HETATM   10  N   UNL     1      44.600  11.317  39.806  1.00  0.00    -0.340 N 
HETATM   11  N   UNL     1      47.468  16.349  41.587  1.00  0.00    -0.340 N 
HETATM   12  N   UNL     1      48.379  12.961  35.953  1.00  0.00    -0.340 N 
HETATM   13  C   UNL     1      45.373  10.481  38.857  1.00  0.00     0.190 C 
HETATM   14  C   UNL     1      46.531  15.831  42.603  1.00  0.00     0.190 C 
HETATM   15  C   UNL     1      44.464  12.856  41.792  1.00  0.00     0.227 C 
HETATM   16  C   UNL     1      48.902  12.988  37.335  1.00  0.00     0.190 C 
HETATM   17  C   UNL     1      49.078  15.778  39.761  1.00  0.00     0.227 C 
HETATM   18  C   UNL     1      46.028  13.482  36.721  1.00  0.00     0.227 C 
HETATM   19  C   UNL     1      45.291  12.059  40.775  1.00  0.00     0.250 C 
HETATM   20  C   UNL     1      45.510  15.008  41.829  1.00  0.00     0.283 C 
HETATM   21  C   UNL     1      48.439  15.458  41.106  1.00  0.00     0.250 C 
HETATM   22  C   UNL     1      45.608  11.233  37.547  1.00  0.00     0.283 C 
HETATM   23  C   UNL     1      47.021  13.074  35.611  1.00  0.00     0.250 C 
HETATM   24  C   UNL     1      49.114  14.433  37.757  1.00  0.00     0.283 C 
HETATM   25  C   UNL     1      43.148  11.359  39.606  1.00  0.00     0.153 C 
HETATM   26  C   UNL     1      47.249  17.689  41.037  1.00  0.00     0.153 C 
HETATM   27  C   UNL     1      49.345  12.802  34.866  1.00  0.00     0.153 C 
ENDROOT
BRANCH  15  28
HETATM   28  C   UNL     1      43.921  11.927  42.869  1.00  0.00     0.016 C 
HETATM   29  C   UNL     1      44.806  11.969  44.114  1.00  0.00     0.012 C 
HETATM   30  C   UNL     1      42.481  12.295  43.224  1.00  0.00     0.012 C 
ENDBRANCH  15  28
BRANCH  14  31
HETATM   31  C   UNL     1      45.816  16.867  43.460  1.00  0.00     0.014 C 
HETATM   32  C   UNL     1      44.303  16.653  43.373  1.00  0.00     0.012 C 
BRANCH  31  33
HETATM   33  C   UNL     1      46.267  16.822  44.930  1.00  0.00     0.002 C 
HETATM   34  C   UNL     1      47.747  17.120  45.123  1.00  0.00     0.005 C 
ENDBRANCH  31  33
ENDBRANCH  14  31
BRANCH  13  35
HETATM   35  C   UNL     1      44.749   9.108  38.610  1.00  0.00     0.014 C 
HETATM   36  C   UNL     1      44.557   8.378  39.942  1.00  0.00     0.012 C 
BRANCH  35  37
HETATM   37  C   UNL     1      43.403   9.200  37.868  1.00  0.00     0.002 C 
HETATM   38  C   UNL     1      43.195   8.094  36.844  1.00  0.00     0.005 C 
ENDBRANCH  35  37
ENDBRANCH  13  35
BRANCH  17  39
HETATM   39  C   UNL     1      50.492  16.298  39.948  1.00  0.00     0.016 C 
HETATM   40  C   UNL     1      50.824  16.427  41.432  1.00  0.00     0.012 C 
HETATM   41  C   UNL     1      50.669  17.639  39.239  1.00  0.00     0.012 C 
ENDBRANCH  17  39
BRANCH  18  42
HETATM   42  C   UNL     1      44.669  13.873  36.139  1.00  0.00     0.016 C 
HETATM   43  C   UNL     1      43.609  13.940  37.238  1.00  0.00     0.012 C 
HETATM   44  C   UNL     1      44.760  15.208  35.403  1.00  0.00     0.012 C 
ENDBRANCH  18  42
BRANCH  16  45
HETATM   45  C   UNL     1      50.183  12.185  37.558  1.00  0.00     0.010 C 
HETATM   46  C   UNL     1      49.983  11.143  38.658  1.00  0.00     0.012 C 
HETATM   47  C   UNL     1      51.348  13.110  37.904  1.00  0.00     0.012 C 
ENDBRANCH  16  45
TORSDOF 8
ENDMDL
