MODEL 1
REMARK VINA RESULT:    -5.101      0.000      0.000
REMARK INTER + INTRA:          -7.187
REMARK INTER:                  -7.486
REMARK INTRA:                   0.299
REMARK UNBOUND:                 0.299
REMARK  8 active torsions:
REMARK  status: ('A' for Active; 'I' for Inactive)
REMARK    1  A    between atoms: C_13  and  C_15 
REMARK    2  A    between atoms: C_14  and  C_16 
REMARK    3  A    between atoms: C_15  and  C_22 
REMARK    4  A    between atoms: C_16  and  C_23 
REMARK    5  A    between atoms: C_17  and  C_21 
REMARK    6  A    between atoms: C_18  and  C_24 
REMARK    7  A    between atoms: C_19  and  C_27 
REMARK    8  A    between atoms: C_20  and  C_30 
ROOT
HETATM    1  O   UNL     1      10.499   9.327  -4.243  1.00  0.00    -0.304 OA
HETATM    2  O   UNL     1       7.719  12.776  -2.288  1.00  0.00    -0.304 OA
HETATM    3  O   UNL     1       6.348  11.698  -5.948  1.00  0.00    -0.304 OA
HETATM    4  O   UNL     1       8.168   9.729  -3.085  1.00  0.00    -0.270 OA
HETATM    5  O   UNL     1      10.786  11.525  -4.886  1.00  0.00    -0.263 OA
HETATM    6  O   UNL     1       7.660   9.500  -6.348  1.00  0.00    -0.270 OA
HETATM    7  O   UNL     1       6.454  13.153  -0.402  1.00  0.00    -0.263 OA
HETATM    8  O   UNL     1       5.839  15.663  -2.144  1.00  0.00    -0.270 OA
HETATM    9  O   UNL     1       5.726  13.904  -6.209  1.00  0.00    -0.263 OA
HETATM   10  N   UNL     1       8.999  10.741  -1.170  1.00  0.00    -0.340 N 
HETATM   11  N   UNL     1       9.450  10.697  -7.213  1.00  0.00    -0.340 N 
HETATM   12  N   UNL     1       5.024  13.983  -3.518  1.00  0.00    -0.340 N 
HETATM   13  C   UNL     1       7.639  11.044  -0.665  1.00  0.00     0.190 C 
HETATM   14  C   UNL     1      10.415   9.792  -6.558  1.00  0.00     0.190 C 
HETATM   15  C   UNL     1      10.550   9.689  -2.849  1.00  0.00     0.227 C 
HETATM   16  C   UNL     1       5.170  12.667  -4.176  1.00  0.00     0.190 C 
HETATM   17  C   UNL     1       7.159  11.696  -7.142  1.00  0.00     0.227 C 
HETATM   18  C   UNL     1       7.468  14.054  -2.880  1.00  0.00     0.227 C 
HETATM   19  C   UNL     1       9.134  10.056  -2.387  1.00  0.00     0.250 C 
HETATM   20  C   UNL     1      10.596  10.345  -5.150  1.00  0.00     0.283 C 
HETATM   21  C   UNL     1       8.097  10.522  -6.890  1.00  0.00     0.250 C 
HETATM   22  C   UNL     1       7.223  12.462  -1.059  1.00  0.00     0.283 C 
HETATM   23  C   UNL     1       6.038  14.632  -2.796  1.00  0.00     0.250 C 
HETATM   24  C   UNL     1       5.762  12.869  -5.561  1.00  0.00     0.283 C 
HETATM   25  C   UNL     1      10.120  11.257  -0.377  1.00  0.00     0.153 C 
HETATM   26  C   UNL     1       9.956  11.800  -8.034  1.00  0.00     0.153 C 
HETATM   27  C   UNL     1       3.728  14.653  -3.626  1.00  0.00     0.153 C 
ENDROOT
BRANCH  15  28
HETATM   28  C   UNL     1      11.050   8.468  -2.089  1.00  0.00     0.016 C 
HETATM   29  C   UNL     1      10.912   7.208  -2.941  1.00  0.00     0.012 C 
HETATM   30  C   UNL     1      12.501   8.662  -1.651  1.00  0.00     0.012 C 
ENDBRANCH  15  28
BRANCH  14  31
HETATM   31  C   UNL     1      11.773   9.643  -7.231  1.00  0.00     0.014 C 
HETATM   32  C   UNL     1      12.800   9.137  -6.215  1.00  0.00     0.012 C 
BRANCH  31  33
HETATM   33  C   UNL     1      11.725   8.695  -8.441  1.00  0.00     0.002 C 
HETATM   34  C   UNL     1      12.770   9.008  -9.503  1.00  0.00     0.005 C 
ENDBRANCH  31  33
ENDBRANCH  14  31
BRANCH  13  35
HETATM   35  C   UNL     1       7.484  10.812   0.837  1.00  0.00     0.014 C 
HETATM   36  C   UNL     1       6.004  10.626   1.184  1.00  0.00     0.012 C 
BRANCH  35  37
HETATM   37  C   UNL     1       8.290   9.597   1.330  1.00  0.00     0.002 C 
HETATM   38  C   UNL     1       8.827   9.756   2.745  1.00  0.00     0.005 C 
ENDBRANCH  35  37
ENDBRANCH  13  35
BRANCH  17  39
HETATM   39  C   UNL     1       6.295  11.441  -8.363  1.00  0.00     0.016 C 
HETATM   40  C   UNL     1       6.722  10.153  -9.064  1.00  0.00     0.012 C 
HETATM   41  C   UNL     1       6.365  12.624  -9.327  1.00  0.00     0.012 C 
ENDBRANCH  17  39
BRANCH  18  42
HETATM   42  C   UNL     1       8.501  15.033  -2.320  1.00  0.00     0.016 C 
HETATM   43  C   UNL     1       9.875  14.370  -2.218  1.00  0.00     0.012 C 
HETATM   44  C   UNL     1       8.577  16.291  -3.182  1.00  0.00     0.012 C 
ENDBRANCH  18  42
BRANCH  16  45
HETATM   45  C   UNL     1       3.886  11.845  -4.270  1.00  0.00     0.010 C 
HETATM   46  C   UNL     1       4.080  10.465  -3.643  1.00  0.00     0.012 C 
HETATM   47  C   UNL     1       3.434  11.712  -5.724  1.00  0.00     0.012 C 
ENDBRANCH  16  45
TORSDOF 8
ENDMDL
MODEL 2
REMARK VINA RESULT:    -5.051      2.644      7.579
REMARK INTER + INTRA:          -7.114
REMARK INTER:                  -7.891
REMARK INTRA:                   0.777
REMARK UNBOUND:                 0.299
REMARK  8 active torsions:
REMARK  status: ('A' for Active; 'I' for Inactive)
REMARK    1  A    between atoms: C_13  and  C_15 
REMARK    2  A    between atoms: C_14  and  C_16 
REMARK    3  A    between atoms: C_15  and  C_22 
REMARK    4  A    between atoms: C_16  and  C_23 
REMARK    5  A    between atoms: C_17  and  C_21 
REMARK    6  A    between atoms: C_18  and  C_24 
REMARK    7  A    between atoms: C_19  and  C_27 
REMARK    8  A    between atoms: C_20  and  C_30 
ROOT
HETATM    1  O   UNL     1       6.039  11.154   2.054  1.00  0.00    -0.304 OA
HETATM    2  O   UNL     1       8.016   9.984  -2.209  1.00  0.00    -0.304 OA
HETATM    3  O   UNL     1       6.690  13.816  -2.218  1.00  0.00    -0.304 OA
HETATM    4  O   UNL     1       8.191  11.510   0.577  1.00  0.00    -0.270 OA
HETATM    5  O   UNL     1       4.676  10.571   0.286  1.00  0.00    -0.263 OA
HETATM    6  O   UNL     1       6.312  14.222   0.313  1.00  0.00    -0.270 OA
HETATM    7  O   UNL     1      10.008   9.216  -3.069  1.00  0.00    -0.263 OA
HETATM    8  O   UNL     1       8.345   9.813  -5.637  1.00  0.00    -0.270 OA
HETATM    9  O   UNL     1       6.167  13.481  -4.440  1.00  0.00    -0.263 OA
HETATM   10  N   UNL     1       8.663   9.261   0.258  1.00  0.00    -0.340 N 
HETATM   11  N   UNL     1       4.175  13.331   0.162  1.00  0.00    -0.340 N 
HETATM   12  N   UNL     1       8.464  11.933  -4.706  1.00  0.00    -0.340 N 
HETATM   13  C   UNL     1       9.777   9.563  -0.672  1.00  0.00     0.190 C 
HETATM   14  C   UNL     1       4.322  12.668   1.473  1.00  0.00     0.190 C 
HETATM   15  C   UNL     1       6.859   9.985   1.855  1.00  0.00     0.227 C 
HETATM   16  C   UNL     1       8.351  12.843  -3.547  1.00  0.00     0.190 C 
HETATM   17  C   UNL     1       5.344  14.202  -1.870  1.00  0.00     0.227 C 
HETATM   18  C   UNL     1       7.335  10.042  -3.466  1.00  0.00     0.227 C 
HETATM   19  C   UNL     1       7.957  10.324   0.840  1.00  0.00     0.250 C 
HETATM   20  C   UNL     1       5.005  11.339   1.179  1.00  0.00     0.283 C 
HETATM   21  C   UNL     1       5.317  13.950  -0.368  1.00  0.00     0.250 C 
HETATM   22  C   UNL     1       9.293   9.518  -2.122  1.00  0.00     0.283 C 
HETATM   23  C   UNL     1       8.108  10.575  -4.693  1.00  0.00     0.250 C 
HETATM   24  C   UNL     1       6.941  13.411  -3.497  1.00  0.00     0.283 C 
HETATM   25  C   UNL     1       8.334   7.844   0.445  1.00  0.00     0.153 C 
HETATM   26  C   UNL     1       2.914  13.186  -0.569  1.00  0.00     0.153 C 
HETATM   27  C   UNL     1       8.986  12.489  -5.954  1.00  0.00     0.153 C 
ENDROOT
BRANCH  15  28
HETATM   28  C   UNL     1       7.480   9.641   3.203  1.00  0.00     0.016 C 
HETATM   29  C   UNL     1       8.888  10.224   3.312  1.00  0.00     0.012 C 
HETATM   30  C   UNL     1       6.602  10.147   4.346  1.00  0.00     0.012 C 
ENDBRANCH  15  28
BRANCH  14  31
HETATM   31  C   UNL     1       3.041  12.426   2.260  1.00  0.00     0.014 C 
HETATM   32  C   UNL     1       3.209  11.195   3.154  1.00  0.00     0.012 C 
BRANCH  31  33
HETATM   33  C   UNL     1       2.641  13.642   3.114  1.00  0.00     0.002 C 
HETATM   34  C   UNL     1       1.303  14.251   2.719  1.00  0.00     0.005 C 
ENDBRANCH  31  33
ENDBRANCH  14  31
BRANCH  13  35
HETATM   35  C   UNL     1      11.001   8.672  -0.463  1.00  0.00     0.014 C 
HETATM   36  C   UNL     1      12.075   9.015  -1.498  1.00  0.00     0.012 C 
BRANCH  35  37
HETATM   37  C   UNL     1      11.585   8.801   0.956  1.00  0.00     0.002 C 
HETATM   38  C   UNL     1      12.695   7.803   1.250  1.00  0.00     0.005 C 
ENDBRANCH  35  37
ENDBRANCH  13  35
BRANCH  17  39
HETATM   39  C   UNL     1       5.124  15.673  -2.172  1.00  0.00     0.016 C 
HETATM   40  C   UNL     1       4.773  16.436  -0.897  1.00  0.00     0.012 C 
HETATM   41  C   UNL     1       4.028  15.847  -3.221  1.00  0.00     0.012 C 
ENDBRANCH  17  39
BRANCH  18  42
HETATM   42  C   UNL     1       6.746   8.657  -3.735  1.00  0.00     0.016 C 
HETATM   43  C   UNL     1       6.251   8.018  -2.437  1.00  0.00     0.012 C 
HETATM   44  C   UNL     1       5.612   8.741  -4.755  1.00  0.00     0.012 C 
ENDBRANCH  18  42
BRANCH  16  45
HETATM   45  C   UNL     1       9.373  13.978  -3.513  1.00  0.00     0.010 C 
HETATM   46  C   UNL     1       9.980  14.117  -2.117  1.00  0.00     0.012 C 
HETATM   47  C   UNL     1       8.734  15.295  -3.950  1.00  0.00     0.012 C 
ENDBRANCH  16  45
TORSDOF 8
ENDMDL
MODEL 3
REMARK VINA RESULT:    -4.970      2.170      7.161
REMARK INTER + INTRA:          -6.994
REMARK INTER:                  -7.634
REMARK INTRA:                   0.639
REMARK UNBOUND:                 0.299
REMARK  8 active torsions:
REMARK  status: ('A' for Active; 'I' for Inactive)
REMARK    1  A    between atoms: C_13  and  C_15 
REMARK    2  A    between atoms: C_14  and  C_16 
REMARK    3  A    between atoms: C_15  and  C_22 
REMARK    4  A    between atoms: C_16  and  C_23 
REMARK    5  A    between atoms: C_17  and  C_21 
REMARK    6  A    between atoms: C_18  and  C_24 
REMARK    7  A    between atoms: C_19  and  C_27 
REMARK    8  A    between atoms: C_20  and  C_30 
ROOT
HETATM    1  O   UNL     1      10.670   8.844   0.115  1.00  0.00    -0.304 OA
HETATM    2  O   UNL     1       9.073   9.165  -4.445  1.00  0.00    -0.304 OA
HETATM    3  O   UNL     1       7.953  12.403  -2.277  1.00  0.00    -0.304 OA
HETATM    4  O   UNL     1      11.107  10.073  -2.174  1.00  0.00    -0.270 OA
HETATM    5  O   UNL     1       8.483   8.287  -0.370  1.00  0.00    -0.263 OA
HETATM    6  O   UNL     1       9.472  12.159  -0.192  1.00  0.00    -0.270 OA
HETATM    7  O   UNL     1       9.892   9.167  -6.596  1.00  0.00    -0.263 OA
HETATM    8  O   UNL     1       6.870   9.800  -7.020  1.00  0.00    -0.270 OA
HETATM    9  O   UNL     1       6.020  12.402  -3.536  1.00  0.00    -0.263 OA
HETATM   10  N   UNL     1      11.319   8.156  -3.462  1.00  0.00    -0.340 N 
HETATM   11  N   UNL     1       7.911  10.768   0.814  1.00  0.00    -0.340 N 
HETATM   12  N   UNL     1       7.514  11.633  -5.754  1.00  0.00    -0.340 N 
HETATM   13  C   UNL     1      11.421   8.936  -4.718  1.00  0.00     0.190 C 
HETATM   14  C   UNL     1       8.979   9.916   1.371  1.00  0.00     0.190 C 
HETATM   15  C   UNL     1      11.158   8.012  -0.956  1.00  0.00     0.227 C 
HETATM   16  C   UNL     1       8.216  12.218  -4.593  1.00  0.00     0.190 C 
HETATM   17  C   UNL     1       7.240  12.324  -1.024  1.00  0.00     0.227 C 
HETATM   18  C   UNL     1       7.698   9.291  -4.820  1.00  0.00     0.227 C 
HETATM   19  C   UNL     1      11.187   8.841  -2.245  1.00  0.00     0.250 C 
HETATM   20  C   UNL     1       9.313   8.915   0.273  1.00  0.00     0.283 C 
HETATM   21  C   UNL     1       8.303  11.771  -0.084  1.00  0.00     0.250 C 
HETATM   22  C   UNL     1      10.052   9.060  -5.387  1.00  0.00     0.283 C 
HETATM   23  C   UNL     1       7.339  10.256  -5.972  1.00  0.00     0.250 C 
HETATM   24  C   UNL     1       7.237  12.354  -3.438  1.00  0.00     0.283 C 
HETATM   25  C   UNL     1      11.289   6.696  -3.601  1.00  0.00     0.153 C 
HETATM   26  C   UNL     1       6.514  10.436   1.105  1.00  0.00     0.153 C 
HETATM   27  C   UNL     1       6.963  12.555  -6.747  1.00  0.00     0.153 C 
ENDROOT
BRANCH  15  28
HETATM   28  C   UNL     1      12.570   7.583  -0.577  1.00  0.00     0.016 C 
HETATM   29  C   UNL     1      12.997   8.232   0.738  1.00  0.00     0.012 C 
HETATM   30  C   UNL     1      12.661   6.061  -0.477  1.00  0.00     0.012 C 
ENDBRANCH  15  28
BRANCH  14  31
HETATM   31  C   UNL     1       8.655   9.175   2.661  1.00  0.00     0.014 C 
HETATM   32  C   UNL     1       9.552   7.941   2.788  1.00  0.00     0.012 C 
BRANCH  31  33
HETATM   33  C   UNL     1       8.817  10.067   3.905  1.00  0.00     0.002 C 
HETATM   34  C   UNL     1       7.551  10.179   4.743  1.00  0.00     0.005 C 
ENDBRANCH  31  33
ENDBRANCH  14  31
BRANCH  13  35
HETATM   35  C   UNL     1      12.470   8.392  -5.687  1.00  0.00     0.014 C 
HETATM   36  C   UNL     1      12.730   9.413  -6.797  1.00  0.00     0.012 C 
BRANCH  35  37
HETATM   37  C   UNL     1      13.794   8.042  -4.983  1.00  0.00     0.002 C 
HETATM   38  C   UNL     1      15.002   8.760  -5.566  1.00  0.00     0.005 C 
ENDBRANCH  35  37
ENDBRANCH  13  35
BRANCH  17  39
HETATM   39  C   UNL     1       6.799  13.708  -0.583  1.00  0.00     0.016 C 
HETATM   40  C   UNL     1       5.296  13.883  -0.786  1.00  0.00     0.012 C 
HETATM   41  C   UNL     1       7.572  14.785  -1.342  1.00  0.00     0.012 C 
ENDBRANCH  17  39
BRANCH  18  42
HETATM   42  C   UNL     1       7.161   7.884  -5.083  1.00  0.00     0.016 C 
HETATM   43  C   UNL     1       7.787   6.878  -4.117  1.00  0.00     0.012 C 
HETATM   44  C   UNL     1       5.638   7.857  -4.968  1.00  0.00     0.012 C 
ENDBRANCH  18  42
BRANCH  16  45
HETATM   45  C   UNL     1       8.901  13.557  -4.859  1.00  0.00     0.010 C 
HETATM   46  C   UNL     1      10.190  13.676  -4.046  1.00  0.00     0.012 C 
HETATM   47  C   UNL     1       7.960  14.719  -4.541  1.00  0.00     0.012 C 
ENDBRANCH  16  45
TORSDOF 8
ENDMDL
MODEL 4
REMARK VINA RESULT:    -4.893      2.593      7.284
REMARK INTER + INTRA:          -6.882
REMARK INTER:                  -7.297
REMARK INTRA:                   0.414
REMARK UNBOUND:                 0.299
REMARK  8 active torsions:
REMARK  status: ('A' for Active; 'I' for Inactive)
REMARK    1  A    between atoms: C_13  and  C_15 
REMARK    2  A    between atoms: C_14  and  C_16 
REMARK    3  A    between atoms: C_15  and  C_22 
REMARK    4  A    between atoms: C_16  and  C_23 
REMARK    5  A    between atoms: C_17  and  C_21 
REMARK    6  A    between atoms: C_18  and  C_24 
REMARK    7  A    between atoms: C_19  and  C_27 
REMARK    8  A    between atoms: C_20  and  C_30 
ROOT
HETATM    1  O   UNL     1       3.914  12.478   0.293  1.00  0.00    -0.304 OA
HETATM    2  O   UNL     1       7.690  10.400  -1.913  1.00  0.00    -0.304 OA
HETATM    3  O   UNL     1       6.746  13.936  -3.659  1.00  0.00    -0.304 OA
HETATM    4  O   UNL     1       6.531  12.632   0.034  1.00  0.00    -0.270 OA
HETATM    5  O   UNL     1       3.587  11.307  -1.669  1.00  0.00    -0.263 OA
HETATM    6  O   UNL     1       5.177  14.972  -1.876  1.00  0.00    -0.270 OA
HETATM    7  O   UNL     1       9.803   9.630  -1.424  1.00  0.00    -0.263 OA
HETATM    8  O   UNL     1       9.677   9.341  -4.525  1.00  0.00    -0.270 OA
HETATM    9  O   UNL     1       7.385  12.962  -5.651  1.00  0.00    -0.263 OA
HETATM   10  N   UNL     1       6.982  10.439   0.641  1.00  0.00    -0.340 N 
HETATM   11  N   UNL     1       3.358  13.866  -2.800  1.00  0.00    -0.340 N 
HETATM   12  N   UNL     1       9.425  11.635  -4.301  1.00  0.00    -0.340 N 
HETATM   13  C   UNL     1       8.425  10.587   0.337  1.00  0.00     0.190 C 
HETATM   14  C   UNL     1       2.796  13.601  -1.460  1.00  0.00     0.190 C 
HETATM   15  C   UNL     1       4.662  11.387   0.863  1.00  0.00     0.227 C 
HETATM   16  C   UNL     1       8.796  12.809  -3.660  1.00  0.00     0.190 C 
HETATM   17  C   UNL     1       5.427  14.266  -4.144  1.00  0.00     0.227 C 
HETATM   18  C   UNL     1       7.732  10.048  -3.299  1.00  0.00     0.227 C 
HETATM   19  C   UNL     1       6.136  11.545   0.471  1.00  0.00     0.250 C 
HETATM   20  C   UNL     1       3.465  12.317  -0.989  1.00  0.00     0.283 C 
HETATM   21  C   UNL     1       4.642  14.429  -2.849  1.00  0.00     0.250 C 
HETATM   22  C   UNL     1       8.728  10.104  -1.081  1.00  0.00     0.283 C 
HETATM   23  C   UNL     1       9.040  10.303  -4.080  1.00  0.00     0.250 C 
HETATM   24  C   UNL     1       7.581  13.226  -4.474  1.00  0.00     0.283 C 
HETATM   25  C   UNL     1       6.531   9.100   1.034  1.00  0.00     0.153 C 
HETATM   26  C   UNL     1       2.624  13.405  -3.980  1.00  0.00     0.153 C 
HETATM   27  C   UNL     1      10.528  11.882  -5.230  1.00  0.00     0.153 C 
ENDROOT
BRANCH  15  28
HETATM   28  C   UNL     1       4.509  11.484   2.375  1.00  0.00     0.016 C 
HETATM   29  C   UNL     1       3.895  12.826   2.770  1.00  0.00     0.012 C 
HETATM   30  C   UNL     1       3.659  10.331   2.907  1.00  0.00     0.012 C 
ENDBRANCH  15  28
BRANCH  14  31
HETATM   31  C   UNL     1       1.283  13.456  -1.374  1.00  0.00     0.014 C 
HETATM   32  C   UNL     1       0.924  12.421  -0.304  1.00  0.00     0.012 C 
BRANCH  31  33
HETATM   33  C   UNL     1       0.584  14.791  -1.064  1.00  0.00     0.002 C 
HETATM   34  C   UNL     1       1.549  15.921  -0.732  1.00  0.00     0.005 C 
ENDBRANCH  31  33
ENDBRANCH  14  31
BRANCH  13  35
HETATM   35  C   UNL     1       9.333   9.912   1.364  1.00  0.00     0.014 C 
HETATM   36  C   UNL     1      10.799  10.197   1.027  1.00  0.00     0.012 C 
BRANCH  35  37
HETATM   37  C   UNL     1       9.033  10.368   2.804  1.00  0.00     0.002 C 
HETATM   38  C   UNL     1       9.062   9.236   3.820  1.00  0.00     0.005 C 
ENDBRANCH  35  37
ENDBRANCH  13  35
BRANCH  17  39
HETATM   39  C   UNL     1       5.464  15.571  -4.918  1.00  0.00     0.016 C 
HETATM   40  C   UNL     1       4.443  16.557  -4.356  1.00  0.00     0.012 C 
HETATM   41  C   UNL     1       5.209  15.322  -6.403  1.00  0.00     0.012 C 
ENDBRANCH  17  39
BRANCH  18  42
HETATM   42  C   UNL     1       7.285   8.590  -3.418  1.00  0.00     0.016 C 
HETATM   43  C   UNL     1       6.192   8.276  -2.397  1.00  0.00     0.012 C 
HETATM   44  C   UNL     1       6.797   8.289  -4.834  1.00  0.00     0.012 C 
ENDBRANCH  18  42
BRANCH  16  45
HETATM   45  C   UNL     1       9.721  14.006  -3.452  1.00  0.00     0.010 C 
HETATM   46  C   UNL     1       9.896  14.301  -1.962  1.00  0.00     0.012 C 
HETATM   47  C   UNL     1       9.186  15.238  -4.181  1.00  0.00     0.012 C 
ENDBRANCH  16  45
TORSDOF 8
ENDMDL
MODEL 5
REMARK VINA RESULT:    -4.801      3.254      7.481
REMARK INTER + INTRA:          -6.747
REMARK INTER:                  -7.292
REMARK INTRA:                   0.545
REMARK UNBOUND:                 0.299
REMARK  8 active torsions:
REMARK  status: ('A' for Active; 'I' for Inactive)
REMARK    1  A    between atoms: C_13  and  C_15 
REMARK    2  A    between atoms: C_14  and  C_16 
REMARK    3  A    between atoms: C_15  and  C_22 
REMARK    4  A    between atoms: C_16  and  C_23 
REMARK    5  A    between atoms: C_17  and  C_21 
REMARK    6  A    between atoms: C_18  and  C_24 
REMARK    7  A    between atoms: C_19  and  C_27 
REMARK    8  A    between atoms: C_20  and  C_30 
ROOT
HETATM    1  O   UNL     1       6.788  13.718  -1.863  1.00  0.00    -0.304 OA
HETATM    2  O   UNL     1       4.989   9.508  -0.285  1.00  0.00    -0.304 OA
HETATM    3  O   UNL     1       9.039   9.520  -0.108  1.00  0.00    -0.304 OA
HETATM    4  O   UNL     1       6.333  12.325   0.327  1.00  0.00    -0.270 OA
HETATM    5  O   UNL     1       6.755  11.891  -3.273  1.00  0.00    -0.263 OA
HETATM    6  O   UNL     1       9.547  12.043  -0.411  1.00  0.00    -0.270 OA
HETATM    7  O   UNL     1       3.545   8.706   1.318  1.00  0.00    -0.263 OA
HETATM    8  O   UNL     1       4.722   6.091   0.096  1.00  0.00    -0.270 OA
HETATM    9  O   UNL     1       8.929   7.276  -0.628  1.00  0.00    -0.263 OA
HETATM   10  N   UNL     1       4.069  11.983  -0.048  1.00  0.00    -0.340 N 
HETATM   11  N   UNL     1       9.506  11.799  -2.719  1.00  0.00    -0.340 N 
HETATM   12  N   UNL     1       6.646   7.064   0.948  1.00  0.00    -0.340 N 
HETATM   13  C   UNL     1       3.943  11.099   1.135  1.00  0.00     0.190 C 
HETATM   14  C   UNL     1       8.831  13.102  -2.878  1.00  0.00     0.190 C 
HETATM   15  C   UNL     1       5.400  13.527  -1.522  1.00  0.00     0.227 C 
HETATM   16  C   UNL     1       7.529   8.235   1.131  1.00  0.00     0.190 C 
HETATM   17  C   UNL     1       9.893   9.827  -1.231  1.00  0.00     0.227 C 
HETATM   18  C   UNL     1       5.298   8.228  -0.846  1.00  0.00     0.227 C 
HETATM   19  C   UNL     1       5.316  12.558  -0.337  1.00  0.00     0.250 C 
HETATM   20  C   UNL     1       7.345  12.810  -2.720  1.00  0.00     0.283 C 
HETATM   21  C   UNL     1       9.663  11.323  -1.409  1.00  0.00     0.250 C 
HETATM   22  C   UNL     1       4.085   9.632   0.727  1.00  0.00     0.283 C 
HETATM   23  C   UNL     1       5.514   7.040   0.117  1.00  0.00     0.250 C 
HETATM   24  C   UNL     1       8.575   8.244   0.028  1.00  0.00     0.283 C 
HETATM   25  C   UNL     1       2.872  12.131  -0.883  1.00  0.00     0.153 C 
HETATM   26  C   UNL     1       9.838  11.021  -3.914  1.00  0.00     0.153 C 
HETATM   27  C   UNL     1       6.975   5.846   1.688  1.00  0.00     0.153 C 
ENDROOT
BRANCH  15  28
HETATM   28  C   UNL     1       4.848  14.890  -1.126  1.00  0.00     0.016 C 
HETATM   29  C   UNL     1       5.504  15.384   0.162  1.00  0.00     0.012 C 
HETATM   30  C   UNL     1       5.050  15.902  -2.252  1.00  0.00     0.012 C 
ENDBRANCH  15  28
BRANCH  14  31
HETATM   31  C   UNL     1       9.074  13.838  -4.189  1.00  0.00     0.014 C 
HETATM   32  C   UNL     1       8.055  14.970  -4.343  1.00  0.00     0.012 C 
BRANCH  31  33
HETATM   33  C   UNL     1      10.501  14.405  -4.285  1.00  0.00     0.002 C 
HETATM   34  C   UNL     1      10.854  15.364  -3.157  1.00  0.00     0.005 C 
ENDBRANCH  31  33
ENDBRANCH  14  31
BRANCH  13  35
HETATM   35  C   UNL     1       2.664  11.336   1.936  1.00  0.00     0.014 C 
HETATM   36  C   UNL     1       2.780  10.666   3.308  1.00  0.00     0.012 C 
BRANCH  35  37
HETATM   37  C   UNL     1       2.351  12.833   2.113  1.00  0.00     0.002 C 
HETATM   38  C   UNL     1       3.333  13.557   3.023  1.00  0.00     0.005 C 
ENDBRANCH  35  37
ENDBRANCH  13  35
BRANCH  17  39
HETATM   39  C   UNL     1      11.342   9.544  -0.882  1.00  0.00     0.016 C 
HETATM   40  C   UNL     1      11.827   8.280  -1.588  1.00  0.00     0.012 C 
HETATM   41  C   UNL     1      11.515   9.414   0.630  1.00  0.00     0.012 C 
ENDBRANCH  17  39
BRANCH  18  42
HETATM   42  C   UNL     1       4.228   7.913  -1.892  1.00  0.00     0.016 C 
HETATM   43  C   UNL     1       3.795   9.184  -2.622  1.00  0.00     0.012 C 
HETATM   44  C   UNL     1       4.736   6.871  -2.886  1.00  0.00     0.012 C 
ENDBRANCH  18  42
BRANCH  16  45
HETATM   45  C   UNL     1       8.208   8.326   2.496  1.00  0.00     0.010 C 
HETATM   46  C   UNL     1       8.375   9.785   2.921  1.00  0.00     0.012 C 
HETATM   47  C   UNL     1       9.562   7.618   2.476  1.00  0.00     0.012 C 
ENDBRANCH  16  45
TORSDOF 8
ENDMDL
MODEL 6
REMARK VINA RESULT:    -4.701     12.368     16.965
REMARK INTER + INTRA:          -6.600
REMARK INTER:                  -6.896
REMARK INTRA:                   0.296
REMARK UNBOUND:                 0.299
REMARK  8 active torsions:
REMARK  status: ('A' for Active; 'I' for Inactive)
REMARK    1  A    between atoms: C_13  and  C_15 
REMARK    2  A    between atoms: C_14  and  C_16 
REMARK    3  A    between atoms: C_15  and  C_22 
REMARK    4  A    between atoms: C_16  and  C_23 
REMARK    5  A    between atoms: C_17  and  C_21 
REMARK    6  A    between atoms: C_18  and  C_24 
REMARK    7  A    between atoms: C_19  and  C_27 
REMARK    8  A    between atoms: C_20  and  C_30 
ROOT
HETATM    1  O   UNL     1      18.679   9.431   7.799  1.00  0.00    -0.304 OA
HETATM    2  O   UNL     1      16.806   5.955   4.995  1.00  0.00    -0.304 OA
HETATM    3  O   UNL     1      19.534   4.432   7.579  1.00  0.00    -0.304 OA
HETATM    4  O   UNL     1      16.991   7.409   7.818  1.00  0.00    -0.270 OA
HETATM    5  O   UNL     1      19.859   8.689   5.958  1.00  0.00    -0.263 OA
HETATM    6  O   UNL     1      19.805   6.402   9.240  1.00  0.00    -0.270 OA
HETATM    7  O   UNL     1      14.762   5.043   4.459  1.00  0.00    -0.263 OA
HETATM    8  O   UNL     1      16.756   3.153   2.987  1.00  0.00    -0.270 OA
HETATM    9  O   UNL     1      20.087   2.948   5.901  1.00  0.00    -0.263 OA
HETATM   10  N   UNL     1      15.699   8.130   6.032  1.00  0.00    -0.340 N 
HETATM   11  N   UNL     1      21.420   7.362   7.878  1.00  0.00    -0.340 N 
HETATM   12  N   UNL     1      17.400   2.817   5.189  1.00  0.00    -0.340 N 
HETATM   13  C   UNL     1      14.888   6.890   6.037  1.00  0.00     0.190 C 
HETATM   14  C   UNL     1      20.902   8.715   8.159  1.00  0.00     0.190 C 
HETATM   15  C   UNL     1      17.486   9.607   7.009  1.00  0.00     0.227 C 
HETATM   16  C   UNL     1      17.756   3.340   6.525  1.00  0.00     0.190 C 
HETATM   17  C   UNL     1      20.885   4.926   7.705  1.00  0.00     0.227 C 
HETATM   18  C   UNL     1      17.568   5.107   4.131  1.00  0.00     0.227 C 
HETATM   19  C   UNL     1      16.712   8.283   6.991  1.00  0.00     0.250 C 
HETATM   20  C   UNL     1      19.779   8.935   7.155  1.00  0.00     0.283 C 
HETATM   21  C   UNL     1      20.671   6.281   8.366  1.00  0.00     0.250 C 
HETATM   22  C   UNL     1      15.447   5.877   5.038  1.00  0.00     0.283 C 
HETATM   23  C   UNL     1      17.187   3.612   4.050  1.00  0.00     0.250 C 
HETATM   24  C   UNL     1      19.264   3.519   6.602  1.00  0.00     0.283 C 
HETATM   25  C   UNL     1      15.422   9.086   4.955  1.00  0.00     0.153 C 
HETATM   26  C   UNL     1      22.582   7.216   6.999  1.00  0.00     0.153 C 
HETATM   27  C   UNL     1      17.259   1.368   5.045  1.00  0.00     0.153 C 
ENDROOT
BRANCH  15  28
HETATM   28  C   UNL     1      16.658  10.689   7.689  1.00  0.00     0.016 C 
HETATM   29  C   UNL     1      17.014  10.790   9.171  1.00  0.00     0.012 C 
HETATM   30  C   UNL     1      16.859  12.037   6.998  1.00  0.00     0.012 C 
ENDBRANCH  15  28
BRANCH  14  31
HETATM   31  C   UNL     1      21.903   9.859   8.071  1.00  0.00     0.014 C 
HETATM   32  C   UNL     1      21.160  11.197   8.079  1.00  0.00     0.012 C 
BRANCH  31  33
HETATM   33  C   UNL     1      22.931   9.826   9.216  1.00  0.00     0.002 C 
HETATM   34  C   UNL     1      22.311   9.579  10.584  1.00  0.00     0.005 C 
ENDBRANCH  31  33
ENDBRANCH  14  31
BRANCH  13  35
HETATM   35  C   UNL     1      13.398   7.138   5.808  1.00  0.00     0.014 C 
HETATM   36  C   UNL     1      12.604   5.868   6.128  1.00  0.00     0.012 C 
BRANCH  35  37
HETATM   37  C   UNL     1      12.862   8.311   6.650  1.00  0.00     0.002 C 
HETATM   38  C   UNL     1      11.348   8.312   6.798  1.00  0.00     0.005 C 
ENDBRANCH  35  37
ENDBRANCH  13  35
BRANCH  17  39
HETATM   39  C   UNL     1      21.696   4.012   8.606  1.00  0.00     0.016 C 
HETATM   40  C   UNL     1      22.183   4.767   9.839  1.00  0.00     0.012 C 
HETATM   41  C   UNL     1      22.876   3.415   7.841  1.00  0.00     0.012 C 
ENDBRANCH  17  39
BRANCH  18  42
HETATM   42  C   UNL     1      17.583   5.755   2.745  1.00  0.00     0.016 C 
HETATM   43  C   UNL     1      17.738   7.271   2.860  1.00  0.00     0.012 C 
HETATM   44  C   UNL     1      18.701   5.167   1.887  1.00  0.00     0.012 C 
ENDBRANCH  18  42
BRANCH  16  45
HETATM   45  C   UNL     1      17.268   2.497   7.701  1.00  0.00     0.010 C 
HETATM   46  C   UNL     1      16.426   3.340   8.658  1.00  0.00     0.012 C 
HETATM   47  C   UNL     1      18.447   1.866   8.440  1.00  0.00     0.012 C 
ENDBRANCH  16  45
TORSDOF 8
ENDMDL
MODEL 7
REMARK VINA RESULT:    -4.669      2.026      6.988
REMARK INTER + INTRA:          -6.553
REMARK INTER:                  -7.268
REMARK INTRA:                   0.715
REMARK UNBOUND:                 0.299
REMARK  8 active torsions:
REMARK  status: ('A' for Active; 'I' for Inactive)
REMARK    1  A    between atoms: C_13  and  C_15 
REMARK    2  A    between atoms: C_14  and  C_16 
REMARK    3  A    between atoms: C_15  and  C_22 
REMARK    4  A    between atoms: C_16  and  C_23 
REMARK    5  A    between atoms: C_17  and  C_21 
REMARK    6  A    between atoms: C_18  and  C_24 
REMARK    7  A    between atoms: C_19  and  C_27 
REMARK    8  A    between atoms: C_20  and  C_30 
ROOT
HETATM    1  O   UNL     1       9.425  11.573  -4.158  1.00  0.00    -0.304 OA
HETATM    2  O   UNL     1       5.049  12.192  -6.137  1.00  0.00    -0.304 OA
HETATM    3  O   UNL     1       5.277  13.991  -2.511  1.00  0.00    -0.304 OA
HETATM    4  O   UNL     1       7.903  13.359  -5.355  1.00  0.00    -0.270 OA
HETATM    5  O   UNL     1       7.671  10.228  -3.493  1.00  0.00    -0.263 OA
HETATM    6  O   UNL     1       7.836  13.976  -2.104  1.00  0.00    -0.270 OA
HETATM    7  O   UNL     1       4.090  13.056  -8.043  1.00  0.00    -0.263 OA
HETATM    8  O   UNL     1       1.608  12.354  -6.293  1.00  0.00    -0.270 OA
HETATM    9  O   UNL     1       3.058  13.419  -2.244  1.00  0.00    -0.263 OA
HETATM   10  N   UNL     1       7.454  12.094  -7.247  1.00  0.00    -0.340 N 
HETATM   11  N   UNL     1       7.705  11.844  -1.197  1.00  0.00    -0.340 N 
HETATM   12  N   UNL     1       2.643  13.933  -4.947  1.00  0.00    -0.340 N 
HETATM   13  C   UNL     1       6.507  13.104  -7.774  1.00  0.00     0.190 C 
HETATM   14  C   UNL     1       8.974  11.456  -1.841  1.00  0.00     0.190 C 
HETATM   15  C   UNL     1       9.141  11.319  -5.548  1.00  0.00     0.227 C 
HETATM   16  C   UNL     1       3.850  14.484  -4.297  1.00  0.00     0.190 C 
HETATM   17  C   UNL     1       5.686  13.316  -1.302  1.00  0.00     0.227 C 
HETATM   18  C   UNL     1       3.818  11.775  -5.539  1.00  0.00     0.227 C 
HETATM   19  C   UNL     1       8.111  12.346  -6.033  1.00  0.00     0.250 C 
HETATM   20  C   UNL     1       8.593  10.993  -3.241  1.00  0.00     0.283 C 
HETATM   21  C   UNL     1       7.173  13.095  -1.546  1.00  0.00     0.250 C 
HETATM   22  C   UNL     1       5.073  12.755  -7.377  1.00  0.00     0.283 C 
HETATM   23  C   UNL     1       2.597  12.715  -5.645  1.00  0.00     0.250 C 
HETATM   24  C   UNL     1       3.972  13.898  -2.899  1.00  0.00     0.283 C 
HETATM   25  C   UNL     1       7.578  10.850  -8.015  1.00  0.00     0.153 C 
HETATM   26  C   UNL     1       7.006  10.867  -0.359  1.00  0.00     0.153 C 
HETATM   27  C   UNL     1       1.409  14.715  -4.857  1.00  0.00     0.153 C 
ENDROOT
BRANCH  15  28
HETATM   28  C   UNL     1      10.450  11.489  -6.308  1.00  0.00     0.016 C 
HETATM   29  C   UNL     1      11.236  12.682  -5.767  1.00  0.00     0.012 C 
HETATM   30  C   UNL     1      11.289  10.215  -6.230  1.00  0.00     0.012 C 
ENDBRANCH  15  28
BRANCH  14  31
HETATM   31  C   UNL     1       9.787  10.372  -1.145  1.00  0.00     0.014 C 
HETATM   32  C   UNL     1      10.861   9.840  -2.096  1.00  0.00     0.012 C 
BRANCH  31  33
HETATM   33  C   UNL     1      10.442  10.876   0.153  1.00  0.00     0.002 C 
HETATM   34  C   UNL     1      11.096   9.773   0.973  1.00  0.00     0.005 C 
ENDBRANCH  31  33
ENDBRANCH  14  31
BRANCH  13  35
HETATM   35  C   UNL     1       6.633  13.326  -9.281  1.00  0.00     0.014 C 
HETATM   36  C   UNL     1       6.211  14.755  -9.632  1.00  0.00     0.012 C 
BRANCH  35  37
HETATM   37  C   UNL     1       8.060  13.064  -9.796  1.00  0.00     0.002 C 
HETATM   38  C   UNL     1       8.453  13.942 -10.974  1.00  0.00     0.005 C 
ENDBRANCH  35  37
ENDBRANCH  13  35
BRANCH  17  39
HETATM   39  C   UNL     1       5.466  14.214  -0.099  1.00  0.00     0.016 C 
HETATM   40  C   UNL     1       4.195  13.813   0.646  1.00  0.00     0.012 C 
HETATM   41  C   UNL     1       5.398  15.678  -0.527  1.00  0.00     0.012 C 
ENDBRANCH  17  39
BRANCH  18  42
HETATM   42  C   UNL     1       3.496  10.379  -6.074  1.00  0.00     0.016 C 
HETATM   43  C   UNL     1       4.776   9.565  -6.266  1.00  0.00     0.012 C 
HETATM   44  C   UNL     1       2.534   9.650  -5.137  1.00  0.00     0.012 C 
ENDBRANCH  18  42
BRANCH  16  45
HETATM   45  C   UNL     1       3.911  16.009  -4.232  1.00  0.00     0.010 C 
HETATM   46  C   UNL     1       5.341  16.502  -4.448  1.00  0.00     0.012 C 
HETATM   47  C   UNL     1       3.368  16.516  -2.897  1.00  0.00     0.012 C 
ENDBRANCH  16  45
TORSDOF 8
ENDMDL
MODEL 8
REMARK VINA RESULT:    -4.481      2.455      6.789
REMARK INTER + INTRA:          -6.278
REMARK INTER:                  -7.068
REMARK INTRA:                   0.790
REMARK UNBOUND:                 0.299
REMARK  8 active torsions:
REMARK  status: ('A' for Active; 'I' for Inactive)
REMARK    1  A    between atoms: C_13  and  C_15 
REMARK    2  A    between atoms: C_14  and  C_16 
REMARK    3  A    between atoms: C_15  and  C_22 
REMARK    4  A    between atoms: C_16  and  C_23 
REMARK    5  A    between atoms: C_17  and  C_21 
REMARK    6  A    between atoms: C_18  and  C_24 
REMARK    7  A    between atoms: C_19  and  C_27 
REMARK    8  A    between atoms: C_20  and  C_30 
ROOT
HETATM    1  O   UNL     1       8.988  12.045  -6.135  1.00  0.00    -0.304 OA
HETATM    2  O   UNL     1       8.687   8.296  -3.085  1.00  0.00    -0.304 OA
HETATM    3  O   UNL     1      12.110   8.141  -5.253  1.00  0.00    -0.304 OA
HETATM    4  O   UNL     1       9.951  11.109  -3.869  1.00  0.00    -0.270 OA
HETATM    5  O   UNL     1       8.281   9.992  -6.917  1.00  0.00    -0.263 OA
HETATM    6  O   UNL     1      12.186  10.535  -6.242  1.00  0.00    -0.270 OA
HETATM    7  O   UNL     1       8.468   7.879  -0.832  1.00  0.00    -0.263 OA
HETATM    8  O   UNL     1       8.911   5.028  -2.010  1.00  0.00    -0.270 OA
HETATM    9  O   UNL     1      11.872   5.847  -5.202  1.00  0.00    -0.263 OA
HETATM   10  N   UNL     1       7.904  10.815  -2.818  1.00  0.00    -0.340 N 
HETATM   11  N   UNL     1      10.858   9.869  -8.024  1.00  0.00    -0.340 N 
HETATM   12  N   UNL     1      10.909   6.046  -2.599  1.00  0.00    -0.340 N 
HETATM   13  C   UNL     1       8.531  10.173  -1.638  1.00  0.00     0.190 C 
HETATM   14  C   UNL     1      10.127  11.151  -8.002  1.00  0.00     0.190 C 
HETATM   15  C   UNL     1       8.056  11.990  -5.037  1.00  0.00     0.227 C 
HETATM   16  C   UNL     1      11.660   7.185  -3.167  1.00  0.00     0.190 C 
HETATM   17  C   UNL     1      12.151   8.191  -6.696  1.00  0.00     0.227 C 
HETATM   18  C   UNL     1       8.707   6.921  -3.479  1.00  0.00     0.227 C 
HETATM   19  C   UNL     1       8.724  11.263  -3.864  1.00  0.00     0.250 C 
HETATM   20  C   UNL     1       9.018  10.967  -6.976  1.00  0.00     0.283 C 
HETATM   21  C   UNL     1      11.763   9.637  -6.977  1.00  0.00     0.250 C 
HETATM   22  C   UNL     1       8.513   8.651  -1.781  1.00  0.00     0.283 C 
HETATM   23  C   UNL     1       9.510   5.923  -2.615  1.00  0.00     0.250 C 
HETATM   24  C   UNL     1      11.891   6.937  -4.650  1.00  0.00     0.283 C 
HETATM   25  C   UNL     1       6.438  10.865  -2.831  1.00  0.00     0.153 C 
HETATM   26  C   UNL     1      10.502   8.866  -9.031  1.00  0.00     0.153 C 
HETATM   27  C   UNL     1      11.680   4.971  -1.974  1.00  0.00     0.153 C 
ENDROOT
BRANCH  15  28
HETATM   28  C   UNL     1       7.738  13.428  -4.651  1.00  0.00     0.016 C 
HETATM   29  C   UNL     1       9.016  14.190  -4.305  1.00  0.00     0.012 C 
HETATM   30  C   UNL     1       6.982  14.135  -5.775  1.00  0.00     0.012 C 
ENDBRANCH  15  28
BRANCH  14  31
HETATM   31  C   UNL     1       9.533  11.618  -9.324  1.00  0.00     0.014 C 
HETATM   32  C   UNL     1       8.206  12.336  -9.069  1.00  0.00     0.012 C 
BRANCH  31  33
HETATM   33  C   UNL     1      10.487  12.543 -10.100  1.00  0.00     0.002 C 
HETATM   34  C   UNL     1      11.150  11.872 -11.295  1.00  0.00     0.005 C 
ENDBRANCH  31  33
ENDBRANCH  14  31
BRANCH  13  35
HETATM   35  C   UNL     1       7.922  10.619  -0.310  1.00  0.00     0.014 C 
HETATM   36  C   UNL     1       8.971  10.519   0.801  1.00  0.00     0.012 C 
BRANCH  35  37
HETATM   37  C   UNL     1       7.364  12.052  -0.370  1.00  0.00     0.002 C 
HETATM   38  C   UNL     1       8.435  13.115  -0.564  1.00  0.00     0.005 C 
ENDBRANCH  35  37
ENDBRANCH  13  35
BRANCH  17  39
HETATM   39  C   UNL     1      13.557   7.906  -7.191  1.00  0.00     0.016 C 
HETATM   40  C   UNL     1      14.518   9.002  -6.737  1.00  0.00     0.012 C 
HETATM   41  C   UNL     1      13.574   7.774  -8.713  1.00  0.00     0.012 C 
ENDBRANCH  17  39
BRANCH  18  42
HETATM   42  C   UNL     1       7.256   6.470  -3.651  1.00  0.00     0.016 C 
HETATM   43  C   UNL     1       6.402   7.603  -4.221  1.00  0.00     0.012 C 
HETATM   44  C   UNL     1       7.176   5.237  -4.548  1.00  0.00     0.012 C 
ENDBRANCH  18  42
BRANCH  16  45
HETATM   45  C   UNL     1      12.987   7.494  -2.476  1.00  0.00     0.010 C 
HETATM   46  C   UNL     1      12.908   8.824  -1.726  1.00  0.00     0.012 C 
HETATM   47  C   UNL     1      14.131   7.520  -3.488  1.00  0.00     0.012 C 
ENDBRANCH  16  45
TORSDOF 8
ENDMDL
MODEL 9
REMARK VINA RESULT:    -4.429     13.053     17.975
REMARK INTER + INTRA:          -6.200
REMARK INTER:                  -6.564
REMARK INTRA:                   0.364
REMARK UNBOUND:                 0.299
REMARK  8 active torsions:
REMARK  status: ('A' for Active; 'I' for Inactive)
REMARK    1  A    between atoms: C_13  and  C_15 
REMARK    2  A    between atoms: C_14  and  C_16 
REMARK    3  A    between atoms: C_15  and  C_22 
REMARK    4  A    between atoms: C_16  and  C_23 
REMARK    5  A    between atoms: C_17  and  C_21 
REMARK    6  A    between atoms: C_18  and  C_24 
REMARK    7  A    between atoms: C_19  and  C_27 
REMARK    8  A    between atoms: C_20  and  C_30 
ROOT
HETATM    1  O   UNL     1      17.199   8.984   6.678  1.00  0.00    -0.304 OA
HETATM    2  O   UNL     1      19.958   6.526   9.807  1.00  0.00    -0.304 OA
HETATM    3  O   UNL     1      20.535   5.217   6.012  1.00  0.00    -0.304 OA
HETATM    4  O   UNL     1      19.678   8.731   7.531  1.00  0.00    -0.270 OA
HETATM    5  O   UNL     1      16.523   6.899   7.402  1.00  0.00    -0.263 OA
HETATM    6  O   UNL     1      19.419   7.119   4.651  1.00  0.00    -0.270 OA
HETATM    7  O   UNL     1      21.584   6.908  11.390  1.00  0.00    -0.263 OA
HETATM    8  O   UNL     1      21.483   3.795  11.259  1.00  0.00    -0.270 OA
HETATM    9  O   UNL     1      20.826   3.120   6.930  1.00  0.00    -0.263 OA
HETATM   10  N   UNL     1      19.217   9.071   9.779  1.00  0.00    -0.340 N 
HETATM   11  N   UNL     1      17.353   6.082   4.848  1.00  0.00    -0.340 N 
HETATM   12  N   UNL     1      22.133   4.291   9.089  1.00  0.00    -0.340 N 
HETATM   13  C   UNL     1      20.615   8.778  10.174  1.00  0.00     0.190 C 
HETATM   14  C   UNL     1      16.678   7.383   5.020  1.00  0.00     0.190 C 
HETATM   15  C   UNL     1      17.440   9.417   8.031  1.00  0.00     0.227 C 
HETATM   16  C   UNL     1      21.983   5.070   7.842  1.00  0.00     0.190 C 
HETATM   17  C   UNL     1      19.469   4.782   5.141  1.00  0.00     0.227 C 
HETATM   18  C   UNL     1      19.917   5.107   9.990  1.00  0.00     0.227 C 
HETATM   19  C   UNL     1      18.874   9.038   8.418  1.00  0.00     0.250 C 
HETATM   20  C   UNL     1      16.776   7.695   6.507  1.00  0.00     0.283 C 
HETATM   21  C   UNL     1      18.756   6.092   4.830  1.00  0.00     0.250 C 
HETATM   22  C   UNL     1      20.764   7.311  10.575  1.00  0.00     0.283 C 
HETATM   23  C   UNL     1      21.252   4.354  10.181  1.00  0.00     0.250 C 
HETATM   24  C   UNL     1      21.061   4.319   6.896  1.00  0.00     0.283 C 
HETATM   25  C   UNL     1      18.265   9.305  10.870  1.00  0.00     0.153 C 
HETATM   26  C   UNL     1      16.547   4.859   4.851  1.00  0.00     0.153 C 
HETATM   27  C   UNL     1      23.282   3.392   9.192  1.00  0.00     0.153 C 
ENDROOT
BRANCH  15  28
HETATM   28  C   UNL     1      17.274  10.931   8.051  1.00  0.00     0.016 C 
HETATM   29  C   UNL     1      17.476  11.514   6.654  1.00  0.00     0.012 C 
HETATM   30  C   UNL     1      15.901  11.316   8.598  1.00  0.00     0.012 C 
ENDBRANCH  15  28
BRANCH  14  31
HETATM   31  C   UNL     1      15.225   7.461   4.572  1.00  0.00     0.014 C 
HETATM   32  C   UNL     1      14.535   8.641   5.260  1.00  0.00     0.012 C 
BRANCH  31  33
HETATM   33  C   UNL     1      15.091   7.596   3.045  1.00  0.00     0.002 C 
HETATM   34  C   UNL     1      14.064   6.649   2.438  1.00  0.00     0.005 C 
ENDBRANCH  31  33
ENDBRANCH  14  31
BRANCH  13  35
HETATM   35  C   UNL     1      21.146   9.713  11.260  1.00  0.00     0.014 C 
HETATM   36  C   UNL     1      22.665   9.558  11.379  1.00  0.00     0.012 C 
BRANCH  35  37
HETATM   37  C   UNL     1      20.794  11.187  10.990  1.00  0.00     0.002 C 
HETATM   38  C   UNL     1      21.128  11.645   9.578  1.00  0.00     0.005 C 
ENDBRANCH  35  37
ENDBRANCH  13  35
BRANCH  17  39
HETATM   39  C   UNL     1      20.042   4.168   3.877  1.00  0.00     0.016 C 
HETATM   40  C   UNL     1      19.467   4.854   2.639  1.00  0.00     0.012 C 
HETATM   41  C   UNL     1      19.765   2.667   3.836  1.00  0.00     0.012 C 
ENDBRANCH  17  39
BRANCH  18  42
HETATM   42  C   UNL     1      18.944   4.819  11.134  1.00  0.00     0.016 C 
HETATM   43  C   UNL     1      17.776   5.805  11.111  1.00  0.00     0.012 C 
HETATM   44  C   UNL     1      18.432   3.382  11.058  1.00  0.00     0.012 C 
ENDBRANCH  18  42
BRANCH  16  45
HETATM   45  C   UNL     1      23.292   5.414   7.133  1.00  0.00     0.010 C 
HETATM   46  C   UNL     1      23.323   6.892   6.743  1.00  0.00     0.012 C 
HETATM   47  C   UNL     1      23.488   4.533   5.901  1.00  0.00     0.012 C 
ENDBRANCH  16  45
TORSDOF 8
ENDMDL
MODEL 10
REMARK VINA RESULT:    -4.375      2.537      7.117
REMARK INTER + INTRA:          -6.122
REMARK INTER:                  -6.471
REMARK INTRA:                   0.348
REMARK UNBOUND:                 0.299
REMARK  8 active torsions:
REMARK  status: ('A' for Active; 'I' for Inactive)
REMARK    1  A    between atoms: C_13  and  C_15 
REMARK    2  A    between atoms: C_14  and  C_16 
REMARK    3  A    between atoms: C_15  and  C_22 
REMARK    4  A    between atoms: C_16  and  C_23 
REMARK    5  A    between atoms: C_17  and  C_21 
REMARK    6  A    between atoms: C_18  and  C_24 
REMARK    7  A    between atoms: C_19  and  C_27 
REMARK    8  A    between atoms: C_20  and  C_30 
ROOT
HETATM    1  O   UNL     1       8.114  12.684  -5.915  1.00  0.00    -0.304 OA
HETATM    2  O   UNL     1       9.631   8.195  -4.915  1.00  0.00    -0.304 OA
HETATM    3  O   UNL     1      11.042   9.446  -8.505  1.00  0.00    -0.304 OA
HETATM    4  O   UNL     1      10.228  11.311  -5.151  1.00  0.00    -0.270 OA
HETATM    5  O   UNL     1       7.031  10.877  -6.857  1.00  0.00    -0.263 OA
HETATM    6  O   UNL     1      10.561  11.989  -8.374  1.00  0.00    -0.270 OA
HETATM    7  O   UNL     1      10.808   7.060  -3.296  1.00  0.00    -0.263 OA
HETATM    8  O   UNL     1      10.383   4.878  -5.481  1.00  0.00    -0.270 OA
HETATM    9  O   UNL     1      10.830   7.255  -9.193  1.00  0.00    -0.263 OA
HETATM   10  N   UNL     1       9.227  10.281  -3.330  1.00  0.00    -0.340 N 
HETATM   11  N   UNL     1       8.411  11.649  -9.176  1.00  0.00    -0.340 N 
HETATM   12  N   UNL     1      11.641   6.425  -6.664  1.00  0.00    -0.340 N 
HETATM   13  C   UNL     1      10.425   9.451  -3.062  1.00  0.00     0.190 C 
HETATM   14  C   UNL     1       7.872  12.677  -8.265  1.00  0.00     0.190 C 
HETATM   15  C   UNL     1       8.034  12.095  -4.602  1.00  0.00     0.227 C 
HETATM   16  C   UNL     1      11.922   7.815  -7.079  1.00  0.00     0.190 C 
HETATM   17  C   UNL     1      10.204   9.951  -9.566  1.00  0.00     0.227 C 
HETATM   18  C   UNL     1       9.377   7.048  -5.732  1.00  0.00     0.227 C 
HETATM   19  C   UNL     1       9.258  11.196  -4.394  1.00  0.00     0.250 C 
HETATM   20  C   UNL     1       7.604  11.954  -6.952  1.00  0.00     0.283 C 
HETATM   21  C   UNL     1       9.758  11.297  -9.010  1.00  0.00     0.250 C 
HETATM   22  C   UNL     1      10.289   8.081  -3.728  1.00  0.00     0.283 C 
HETATM   23  C   UNL     1      10.515   6.023  -5.929  1.00  0.00     0.250 C 
HETATM   24  C   UNL     1      11.204   8.096  -8.390  1.00  0.00     0.283 C 
HETATM   25  C   UNL     1       8.053  10.024  -2.489  1.00  0.00     0.153 C 
HETATM   26  C   UNL     1       7.496  10.960 -10.089  1.00  0.00     0.153 C 
HETATM   27  C   UNL     1      12.608   5.395  -7.047  1.00  0.00     0.153 C 
ENDROOT
BRANCH  15  28
HETATM   28  C   UNL     1       8.048  13.240  -3.598  1.00  0.00     0.016 C 
HETATM   29  C   UNL     1       8.661  14.494  -4.218  1.00  0.00     0.012 C 
HETATM   30  C   UNL     1       6.636  13.530  -3.091  1.00  0.00     0.012 C 
ENDBRANCH  15  28
BRANCH  14  31
HETATM   31  C   UNL     1       6.610  13.398  -8.722  1.00  0.00     0.014 C 
HETATM   32  C   UNL     1       6.016  14.190  -7.555  1.00  0.00     0.012 C 
BRANCH  31  33
HETATM   33  C   UNL     1       6.872  14.338  -9.912  1.00  0.00     0.002 C 
HETATM   34  C   UNL     1       6.116  15.657  -9.824  1.00  0.00     0.005 C 
ENDBRANCH  31  33
ENDBRANCH  14  31
BRANCH  13  35
HETATM   35  C   UNL     1      10.753   9.320  -1.575  1.00  0.00     0.014 C 
HETATM   36  C   UNL     1      12.220   8.921  -1.401  1.00  0.00     0.012 C 
BRANCH  35  37
HETATM   37  C   UNL     1      10.471  10.618  -0.796  1.00  0.00     0.002 C 
HETATM   38  C   UNL     1      10.103  10.384   0.662  1.00  0.00     0.005 C 
ENDBRANCH  35  37
ENDBRANCH  13  35
BRANCH  17  39
HETATM   39  C   UNL     1      11.018  10.137 -10.834  1.00  0.00     0.016 C 
HETATM   40  C   UNL     1      11.100  11.615 -11.208  1.00  0.00     0.012 C 
HETATM   41  C   UNL     1      10.418   9.326 -11.981  1.00  0.00     0.012 C 
ENDBRANCH  17  39
BRANCH  18  42
HETATM   42  C   UNL     1       8.107   6.380  -5.204  1.00  0.00     0.016 C 
HETATM   43  C   UNL     1       7.110   7.428  -4.708  1.00  0.00     0.012 C 
HETATM   44  C   UNL     1       7.470   5.503  -6.280  1.00  0.00     0.012 C 
ENDBRANCH  18  42
BRANCH  16  45
HETATM   45  C   UNL     1      13.404   8.165  -7.209  1.00  0.00     0.010 C 
HETATM   46  C   UNL     1      13.781   9.285  -6.241  1.00  0.00     0.012 C 
HETATM   47  C   UNL     1      13.742   8.564  -8.645  1.00  0.00     0.012 C 
ENDBRANCH  16  45
TORSDOF 8
ENDMDL
MODEL 11
REMARK VINA RESULT:    -4.330      1.794      6.772
REMARK INTER + INTRA:          -6.056
REMARK INTER:                  -6.787
REMARK INTRA:                   0.731
REMARK UNBOUND:                 0.299
REMARK  8 active torsions:
REMARK  status: ('A' for Active; 'I' for Inactive)
REMARK    1  A    between atoms: C_13  and  C_15 
REMARK    2  A    between atoms: C_14  and  C_16 
REMARK    3  A    between atoms: C_15  and  C_22 
REMARK    4  A    between atoms: C_16  and  C_23 
REMARK    5  A    between atoms: C_17  and  C_21 
REMARK    6  A    between atoms: C_18  and  C_24 
REMARK    7  A    between atoms: C_19  and  C_27 
REMARK    8  A    between atoms: C_20  and  C_30 
ROOT
HETATM    1  O   UNL     1      11.222   8.978  -5.293  1.00  0.00    -0.304 OA
HETATM    2  O   UNL     1       7.161  11.001  -6.985  1.00  0.00    -0.304 OA
HETATM    3  O   UNL     1       7.827  12.069  -3.130  1.00  0.00    -0.304 OA
HETATM    4  O   UNL     1      10.215  11.262  -6.135  1.00  0.00    -0.270 OA
HETATM    5  O   UNL     1       9.179   8.033  -4.784  1.00  0.00    -0.263 OA
HETATM    6  O   UNL     1      10.294  11.339  -2.827  1.00  0.00    -0.270 OA
HETATM    7  O   UNL     1       6.464  12.378  -8.692  1.00  0.00    -0.263 OA
HETATM    8  O   UNL     1       3.877  12.054  -6.984  1.00  0.00    -0.270 OA
HETATM    9  O   UNL     1       5.534  12.044  -2.875  1.00  0.00    -0.263 OA
HETATM   10  N   UNL     1       9.465  10.477  -8.185  1.00  0.00    -0.340 N 
HETATM   11  N   UNL     1       9.616   9.193  -2.265  1.00  0.00    -0.340 N 
HETATM   12  N   UNL     1       5.277  13.078  -5.445  1.00  0.00    -0.340 N 
HETATM   13  C   UNL     1       8.812  11.766  -8.510  1.00  0.00     0.190 C 
HETATM   14  C   UNL     1      10.747   8.604  -3.010  1.00  0.00     0.190 C 
HETATM   15  C   UNL     1      10.889   9.034  -6.695  1.00  0.00     0.227 C 
HETATM   16  C   UNL     1       6.582  13.192  -4.761  1.00  0.00     0.190 C 
HETATM   17  C   UNL     1       8.043  11.125  -2.060  1.00  0.00     0.227 C 
HETATM   18  C   UNL     1       5.861  10.819  -6.415  1.00  0.00     0.227 C 
HETATM   19  C   UNL     1      10.159  10.354  -6.972  1.00  0.00     0.250 C 
HETATM   20  C   UNL     1      10.265   8.487  -4.449  1.00  0.00     0.283 C 
HETATM   21  C   UNL     1       9.425  10.576  -2.391  1.00  0.00     0.250 C 
HETATM   22  C   UNL     1       7.334  11.733  -8.120  1.00  0.00     0.283 C 
HETATM   23  C   UNL     1       4.923  12.043  -6.325  1.00  0.00     0.250 C 
HETATM   24  C   UNL     1       6.543  12.375  -3.479  1.00  0.00     0.283 C 
HETATM   25  C   UNL     1       9.269   9.385  -9.144  1.00  0.00     0.153 C 
HETATM   26  C   UNL     1       8.686   8.302  -1.566  1.00  0.00     0.153 C 
HETATM   27  C   UNL     1       4.284  14.122  -5.186  1.00  0.00     0.153 C 
ENDROOT
BRANCH  15  28
HETATM   28  C   UNL     1      12.201   8.988  -7.467  1.00  0.00     0.016 C 
HETATM   29  C   UNL     1      13.374   9.352  -6.559  1.00  0.00     0.012 C 
HETATM   30  C   UNL     1      12.413   7.608  -8.087  1.00  0.00     0.012 C 
ENDBRANCH  15  28
BRANCH  14  31
HETATM   31  C   UNL     1      11.251   7.252  -2.524  1.00  0.00     0.014 C 
HETATM   32  C   UNL     1      11.976   6.532  -3.663  1.00  0.00     0.012 C 
BRANCH  31  33
HETATM   33  C   UNL     1      12.185   7.378  -1.308  1.00  0.00     0.002 C 
HETATM   34  C   UNL     1      12.721   8.787  -1.095  1.00  0.00     0.005 C 
ENDBRANCH  31  33
ENDBRANCH  14  31
BRANCH  13  35
HETATM   35  C   UNL     1       8.997  12.191  -9.966  1.00  0.00     0.014 C 
HETATM   36  C   UNL     1       8.261  13.509 -10.221  1.00  0.00     0.012 C 
BRANCH  35  37
HETATM   37  C   UNL     1      10.480  12.341 -10.350  1.00  0.00     0.002 C 
HETATM   38  C   UNL     1      10.713  12.454 -11.850  1.00  0.00     0.005 C 
ENDBRANCH  35  37
ENDBRANCH  13  35
BRANCH  17  39
HETATM   39  C   UNL     1       8.056  11.842  -0.722  1.00  0.00     0.016 C 
HETATM   40  C   UNL     1       8.666  13.234  -0.865  1.00  0.00     0.012 C 
HETATM   41  C   UNL     1       8.821  11.025   0.317  1.00  0.00     0.012 C 
ENDBRANCH  17  39
BRANCH  18  42
HETATM   42  C   UNL     1       5.194   9.656  -7.151  1.00  0.00     0.016 C 
HETATM   43  C   UNL     1       6.223   8.585  -7.514  1.00  0.00     0.012 C 
HETATM   44  C   UNL     1       4.072   9.055  -6.307  1.00  0.00     0.012 C 
ENDBRANCH  18  42
BRANCH  16  45
HETATM   45  C   UNL     1       7.032  14.620  -4.458  1.00  0.00     0.010 C 
HETATM   46  C   UNL     1       8.557  14.721  -4.476  1.00  0.00     0.012 C 
HETATM   47  C   UNL     1       6.481  15.086  -3.111  1.00  0.00     0.012 C 
ENDBRANCH  16  45
TORSDOF 8
ENDMDL
MODEL 12
REMARK VINA RESULT:    -4.143      2.887      7.514
REMARK INTER + INTRA:          -5.781
REMARK INTER:                  -6.014
REMARK INTRA:                   0.233
REMARK UNBOUND:                 0.299
REMARK  8 active torsions:
REMARK  status: ('A' for Active; 'I' for Inactive)
REMARK    1  A    between atoms: C_13  and  C_15 
REMARK    2  A    between atoms: C_14  and  C_16 
REMARK    3  A    between atoms: C_15  and  C_22 
REMARK    4  A    between atoms: C_16  and  C_23 
REMARK    5  A    between atoms: C_17  and  C_21 
REMARK    6  A    between atoms: C_18  and  C_24 
REMARK    7  A    between atoms: C_19  and  C_27 
REMARK    8  A    between atoms: C_20  and  C_30 
ROOT
HETATM    1  O   UNL     1       7.442  12.722  -2.858  1.00  0.00    -0.304 OA
HETATM    2  O   UNL     1       8.306   9.047   0.174  1.00  0.00    -0.304 OA
HETATM    3  O   UNL     1       4.419  10.189   0.337  1.00  0.00    -0.304 OA
HETATM    4  O   UNL     1       7.073  10.132  -2.551  1.00  0.00    -0.270 OA
HETATM    5  O   UNL     1       7.766  13.147  -0.613  1.00  0.00    -0.263 OA
HETATM    6  O   UNL     1       4.241  11.664  -1.786  1.00  0.00    -0.270 OA
HETATM    7  O   UNL     1       9.104   6.888   0.134  1.00  0.00    -0.263 OA
HETATM    8  O   UNL     1       8.160   7.209   3.087  1.00  0.00    -0.270 OA
HETATM    9  O   UNL     1       4.503   9.658   2.580  1.00  0.00    -0.263 OA
HETATM   10  N   UNL     1       9.304   9.588  -2.222  1.00  0.00    -0.340 N 
HETATM   11  N   UNL     1       4.983  13.512  -0.595  1.00  0.00    -0.340 N 
HETATM   12  N   UNL     1       6.152   7.502   1.966  1.00  0.00    -0.340 N 
HETATM   13  C   UNL     1       8.980   8.172  -1.929  1.00  0.00     0.190 C 
HETATM   14  C   UNL     1       5.778  13.978  -1.747  1.00  0.00     0.190 C 
HETATM   15  C   UNL     1       8.633  11.912  -2.915  1.00  0.00     0.227 C 
HETATM   16  C   UNL     1       5.355   8.117   0.884  1.00  0.00     0.190 C 
HETATM   17  C   UNL     1       3.989  11.545   0.585  1.00  0.00     0.227 C 
HETATM   18  C   UNL     1       8.085   9.087   1.587  1.00  0.00     0.227 C 
HETATM   19  C   UNL     1       8.262  10.471  -2.543  1.00  0.00     0.250 C 
HETATM   20  C   UNL     1       7.110  13.249  -1.641  1.00  0.00     0.283 C 
HETATM   21  C   UNL     1       4.384  12.248  -0.706  1.00  0.00     0.250 C 
HETATM   22  C   UNL     1       8.854   7.951  -0.421  1.00  0.00     0.283 C 
HETATM   23  C   UNL     1       7.481   7.839   2.269  1.00  0.00     0.250 C 
HETATM   24  C   UNL     1       4.712   9.392   1.406  1.00  0.00     0.283 C 
HETATM   25  C   UNL     1      10.711   9.980  -2.078  1.00  0.00     0.153 C 
HETATM   26  C   UNL     1       4.980  14.309   0.634  1.00  0.00     0.153 C 
HETATM   27  C   UNL     1       5.509   6.468   2.776  1.00  0.00     0.153 C 
ENDROOT
BRANCH  15  28
HETATM   28  C   UNL     1       9.143  11.969  -4.349  1.00  0.00     0.016 C 
HETATM   29  C   UNL     1       8.013  12.336  -5.309  1.00  0.00     0.012 C 
HETATM   30  C   UNL     1      10.295  12.966  -4.472  1.00  0.00     0.012 C 
ENDBRANCH  15  28
BRANCH  14  31
HETATM   31  C   UNL     1       6.019  15.479  -1.846  1.00  0.00     0.014 C 
HETATM   32  C   UNL     1       7.218  15.751  -2.756  1.00  0.00     0.012 C 
BRANCH  31  33
HETATM   33  C   UNL     1       4.785  16.236  -2.367  1.00  0.00     0.002 C 
HETATM   34  C   UNL     1       4.082  15.535  -3.521  1.00  0.00     0.005 C 
ENDBRANCH  31  33
ENDBRANCH  14  31
BRANCH  13  35
HETATM   35  C   UNL     1       9.959   7.183  -2.560  1.00  0.00     0.014 C 
HETATM   36  C   UNL     1       9.366   5.772  -2.522  1.00  0.00     0.012 C 
BRANCH  35  37
HETATM   37  C   UNL     1      10.319   7.557  -4.009  1.00  0.00     0.002 C 
HETATM   38  C   UNL     1      11.755   7.221  -4.385  1.00  0.00     0.005 C 
ENDBRANCH  35  37
ENDBRANCH  13  35
BRANCH  17  39
HETATM   39  C   UNL     1       2.485  11.590   0.784  1.00  0.00     0.016 C 
HETATM   40  C   UNL     1       1.828  12.456  -0.288  1.00  0.00     0.012 C 
HETATM   41  C   UNL     1       2.143  12.111   2.178  1.00  0.00     0.012 C 
ENDBRANCH  17  39
BRANCH  18  42
HETATM   42  C   UNL     1       9.399   9.504   2.247  1.00  0.00     0.016 C 
HETATM   43  C   UNL     1      10.215  10.396   1.311  1.00  0.00     0.012 C 
HETATM   44  C   UNL     1       9.135  10.220   3.571  1.00  0.00     0.012 C 
ENDBRANCH  18  42
BRANCH  16  45
HETATM   45  C   UNL     1       4.292   7.210   0.267  1.00  0.00     0.010 C 
HETATM   46  C   UNL     1       4.486   7.101  -1.245  1.00  0.00     0.012 C 
HETATM   47  C   UNL     1       2.889   7.722   0.590  1.00  0.00     0.012 C 
ENDBRANCH  16  45
TORSDOF 8
ENDMDL
MODEL 13
REMARK VINA RESULT:    -4.054     11.220     15.409
REMARK INTER + INTRA:          -5.650
REMARK INTER:                  -5.984
REMARK INTRA:                   0.333
REMARK UNBOUND:                 0.299
REMARK  8 active torsions:
REMARK  status: ('A' for Active; 'I' for Inactive)
REMARK    1  A    between atoms: C_13  and  C_15 
REMARK    2  A    between atoms: C_14  and  C_16 
REMARK    3  A    between atoms: C_15  and  C_22 
REMARK    4  A    between atoms: C_16  and  C_23 
REMARK    5  A    between atoms: C_17  and  C_21 
REMARK    6  A    between atoms: C_18  and  C_24 
REMARK    7  A    between atoms: C_19  and  C_27 
REMARK    8  A    between atoms: C_20  and  C_30 
ROOT
HETATM    1  O   UNL     1      14.916   6.046   4.292  1.00  0.00    -0.304 OA
HETATM    2  O   UNL     1      14.879   6.313   9.127  1.00  0.00    -0.304 OA
HETATM    3  O   UNL     1      18.106   8.223   7.586  1.00  0.00    -0.304 OA
HETATM    4  O   UNL     1      14.441   7.691   6.294  1.00  0.00    -0.270 OA
HETATM    5  O   UNL     1      16.232   4.605   5.525  1.00  0.00    -0.263 OA
HETATM    6  O   UNL     1      17.442   8.393   5.087  1.00  0.00    -0.270 OA
HETATM    7  O   UNL     1      13.527   7.057  10.835  1.00  0.00    -0.263 OA
HETATM    8  O   UNL     1      16.130   6.237  12.339  1.00  0.00    -0.270 OA
HETATM    9  O   UNL     1      19.247   7.510   9.460  1.00  0.00    -0.263 OA
HETATM   10  N   UNL     1      12.890   6.346   7.375  1.00  0.00    -0.340 N 
HETATM   11  N   UNL     1      18.320   6.283   4.685  1.00  0.00    -0.340 N 
HETATM   12  N   UNL     1      16.945   7.920  10.968  1.00  0.00    -0.340 N 
HETATM   13  C   UNL     1      12.793   7.275   8.525  1.00  0.00     0.190 C 
HETATM   14  C   UNL     1      17.216   5.963   3.759  1.00  0.00     0.190 C 
HETATM   15  C   UNL     1      13.759   5.735   5.094  1.00  0.00     0.227 C 
HETATM   16  C   UNL     1      17.052   8.569   9.644  1.00  0.00     0.190 C 
HETATM   17  C   UNL     1      19.044   7.611   6.675  1.00  0.00     0.227 C 
HETATM   18  C   UNL     1      15.924   5.830   9.978  1.00  0.00     0.227 C 
HETATM   19  C   UNL     1      13.735   6.676   6.304  1.00  0.00     0.250 C 
HETATM   20  C   UNL     1      16.090   5.437   4.639  1.00  0.00     0.283 C 
HETATM   21  C   UNL     1      18.218   7.484   5.402  1.00  0.00     0.250 C 
HETATM   22  C   UNL     1      13.737   6.841   9.648  1.00  0.00     0.283 C 
HETATM   23  C   UNL     1      16.323   6.683  11.203  1.00  0.00     0.250 C 
HETATM   24  C   UNL     1      18.279   8.032   8.926  1.00  0.00     0.283 C 
HETATM   25  C   UNL     1      12.136   5.093   7.482  1.00  0.00     0.153 C 
HETATM   26  C   UNL     1      19.367   5.285   4.912  1.00  0.00     0.153 C 
HETATM   27  C   UNL     1      17.528   8.618  12.113  1.00  0.00     0.153 C 
ENDROOT
BRANCH  15  28
HETATM   28  C   UNL     1      12.535   5.972   4.221  1.00  0.00     0.016 C 
HETATM   29  C   UNL     1      12.878   6.887   3.047  1.00  0.00     0.012 C 
HETATM   30  C   UNL     1      11.967   4.646   3.716  1.00  0.00     0.012 C 
ENDBRANCH  15  28
BRANCH  14  31
HETATM   31  C   UNL     1      17.522   4.957   2.658  1.00  0.00     0.014 C 
HETATM   32  C   UNL     1      16.216   4.359   2.126  1.00  0.00     0.012 C 
BRANCH  31  33
HETATM   33  C   UNL     1      18.319   5.582   1.499  1.00  0.00     0.002 C 
HETATM   34  C   UNL     1      18.096   4.889   0.162  1.00  0.00     0.005 C 
ENDBRANCH  31  33
ENDBRANCH  14  31
BRANCH  13  35
HETATM   35  C   UNL     1      11.365   7.463   9.035  1.00  0.00     0.014 C 
HETATM   36  C   UNL     1      11.252   8.794   9.784  1.00  0.00     0.012 C 
BRANCH  35  37
HETATM   37  C   UNL     1      10.326   7.414   7.901  1.00  0.00     0.002 C 
HETATM   38  C   UNL     1      10.128   8.749   7.198  1.00  0.00     0.005 C 
ENDBRANCH  35  37
ENDBRANCH  13  35
BRANCH  17  39
HETATM   39  C   UNL     1      20.235   8.525   6.455  1.00  0.00     0.016 C 
HETATM   40  C   UNL     1      20.141   9.211   5.094  1.00  0.00     0.012 C 
HETATM   41  C   UNL     1      21.542   7.743   6.572  1.00  0.00     0.012 C 
ENDBRANCH  17  39
BRANCH  18  42
HETATM   42  C   UNL     1      15.562   4.401  10.386  1.00  0.00     0.016 C 
HETATM   43  C   UNL     1      14.872   3.669   9.235  1.00  0.00     0.012 C 
HETATM   44  C   UNL     1      16.806   3.637  10.836  1.00  0.00     0.012 C 
ENDBRANCH  18  42
BRANCH  16  45
HETATM   45  C   UNL     1      17.089  10.096   9.674  1.00  0.00     0.010 C 
HETATM   46  C   UNL     1      16.062  10.680   8.705  1.00  0.00     0.012 C 
HETATM   47  C   UNL     1      18.489  10.609   9.340  1.00  0.00     0.012 C 
ENDBRANCH  16  45
TORSDOF 8
ENDMDL
MODEL 14
REMARK VINA RESULT:    -4.039      2.475      5.578
REMARK INTER + INTRA:          -5.629
REMARK INTER:                  -6.235
REMARK INTRA:                   0.606
REMARK UNBOUND:                 0.299
REMARK  8 active torsions:
REMARK  status: ('A' for Active; 'I' for Inactive)
REMARK    1  A    between atoms: C_13  and  C_15 
REMARK    2  A    between atoms: C_14  and  C_16 
REMARK    3  A    between atoms: C_15  and  C_22 
REMARK    4  A    between atoms: C_16  and  C_23 
REMARK    5  A    between atoms: C_17  and  C_21 
REMARK    6  A    between atoms: C_18  and  C_24 
REMARK    7  A    between atoms: C_19  and  C_27 
REMARK    8  A    between atoms: C_20  and  C_30 
ROOT
HETATM    1  O   UNL     1       9.794   9.132   0.141  1.00  0.00    -0.304 OA
HETATM    2  O   UNL     1       8.216  11.600  -3.715  1.00  0.00    -0.304 OA
HETATM    3  O   UNL     1       8.630   7.659  -4.575  1.00  0.00    -0.304 OA
HETATM    4  O   UNL     1       7.645   9.597  -1.311  1.00  0.00    -0.270 OA
HETATM    5  O   UNL     1      11.287   9.752  -1.506  1.00  0.00    -0.263 OA
HETATM    6  O   UNL     1       8.859   6.649  -2.200  1.00  0.00    -0.270 OA
HETATM    7  O   UNL     1       6.468  12.965  -4.331  1.00  0.00    -0.263 OA
HETATM    8  O   UNL     1       7.998  12.566  -7.018  1.00  0.00    -0.270 OA
HETATM    9  O   UNL     1       9.258   8.331  -6.691  1.00  0.00    -0.263 OA
HETATM   10  N   UNL     1       7.705  11.909  -1.132  1.00  0.00    -0.340 N 
HETATM   11  N   UNL     1      11.145   7.042  -2.226  1.00  0.00    -0.340 N 
HETATM   12  N   UNL     1       7.380  10.380  -6.552  1.00  0.00    -0.340 N 
HETATM   13  C   UNL     1       6.570  12.073  -2.070  1.00  0.00     0.190 C 
HETATM   14  C   UNL     1      11.130   7.426  -0.801  1.00  0.00     0.190 C 
HETATM   15  C   UNL     1       9.266  10.471   0.219  1.00  0.00     0.227 C 
HETATM   16  C   UNL     1       7.261   9.243  -5.616  1.00  0.00     0.190 C 
HETATM   17  C   UNL     1       9.846   6.912  -4.358  1.00  0.00     0.227 C 
HETATM   18  C   UNL     1       8.888  11.658  -4.977  1.00  0.00     0.227 C 
HETATM   19  C   UNL     1       8.139  10.614  -0.811  1.00  0.00     0.250 C 
HETATM   20  C   UNL     1      10.774   8.907  -0.785  1.00  0.00     0.283 C 
HETATM   21  C   UNL     1       9.902   6.826  -2.838  1.00  0.00     0.250 C 
HETATM   22  C   UNL     1       7.077  12.314  -3.492  1.00  0.00     0.283 C 
HETATM   23  C   UNL     1       8.037  11.588  -6.264  1.00  0.00     0.250 C 
HETATM   24  C   UNL     1       8.502   8.374  -5.731  1.00  0.00     0.283 C 
HETATM   25  C   UNL     1       8.346  13.141  -0.661  1.00  0.00     0.153 C 
HETATM   26  C   UNL     1      12.420   7.049  -2.949  1.00  0.00     0.153 C 
HETATM   27  C   UNL     1       6.768  10.236  -7.873  1.00  0.00     0.153 C 
ENDROOT
BRANCH  15  28
HETATM   28  C   UNL     1       8.716  10.652   1.627  1.00  0.00     0.016 C 
HETATM   29  C   UNL     1       7.329  10.024   1.749  1.00  0.00     0.012 C 
HETATM   30  C   UNL     1       9.668  10.050   2.660  1.00  0.00     0.012 C 
ENDBRANCH  15  28
BRANCH  14  31
HETATM   31  C   UNL     1      12.417   7.198  -0.020  1.00  0.00     0.014 C 
HETATM   32  C   UNL     1      12.487   8.172   1.158  1.00  0.00     0.012 C 
BRANCH  31  33
HETATM   33  C   UNL     1      12.543   5.752   0.490  1.00  0.00     0.002 C 
HETATM   34  C   UNL     1      11.985   5.549   1.892  1.00  0.00     0.005 C 
ENDBRANCH  31  33
ENDBRANCH  14  31
BRANCH  13  35
HETATM   35  C   UNL     1       5.578  13.153  -1.639  1.00  0.00     0.014 C 
HETATM   36  C   UNL     1       4.218  12.900  -2.295  1.00  0.00     0.012 C 
BRANCH  35  37
HETATM   37  C   UNL     1       5.413  13.222  -0.110  1.00  0.00     0.002 C 
HETATM   38  C   UNL     1       5.109  14.621   0.406  1.00  0.00     0.005 C 
ENDBRANCH  35  37
ENDBRANCH  13  35
BRANCH  17  39
HETATM   39  C   UNL     1       9.730   5.529  -4.971  1.00  0.00     0.016 C 
HETATM   40  C   UNL     1       9.800   4.455  -3.889  1.00  0.00     0.012 C 
HETATM   41  C   UNL     1      10.822   5.311  -6.016  1.00  0.00     0.012 C 
ENDBRANCH  17  39
BRANCH  18  42
HETATM   42  C   UNL     1       9.784  12.897  -4.965  1.00  0.00     0.016 C 
HETATM   43  C   UNL     1      10.072  13.343  -3.532  1.00  0.00     0.012 C 
HETATM   44  C   UNL     1      11.087  12.629  -5.714  1.00  0.00     0.012 C 
ENDBRANCH  18  42
BRANCH  16  45
HETATM   45  C   UNL     1       6.006   8.390  -5.791  1.00  0.00     0.010 C 
HETATM   46  C   UNL     1       5.224   8.303  -4.480  1.00  0.00     0.012 C 
HETATM   47  C   UNL     1       6.368   6.992  -6.290  1.00  0.00     0.012 C 
ENDBRANCH  16  45
TORSDOF 8
ENDMDL
MODEL 15
REMARK VINA RESULT:    -4.007      9.111     13.796
REMARK INTER + INTRA:          -5.581
REMARK INTER:                  -6.224
REMARK INTRA:                   0.643
REMARK UNBOUND:                 0.299
REMARK  8 active torsions:
REMARK  status: ('A' for Active; 'I' for Inactive)
REMARK    1  A    between atoms: C_13  and  C_15 
REMARK    2  A    between atoms: C_14  and  C_16 
REMARK    3  A    between atoms: C_15  and  C_22 
REMARK    4  A    between atoms: C_16  and  C_23 
REMARK    5  A    between atoms: C_17  and  C_21 
REMARK    6  A    between atoms: C_18  and  C_24 
REMARK    7  A    between atoms: C_19  and  C_27 
REMARK    8  A    between atoms: C_20  and  C_30 
ROOT
HETATM    1  O   UNL     1      12.225   6.961   3.325  1.00  0.00    -0.304 OA
HETATM    2  O   UNL     1      13.548   6.747   7.978  1.00  0.00    -0.304 OA
HETATM    3  O   UNL     1      16.776   7.171   5.562  1.00  0.00    -0.304 OA
HETATM    4  O   UNL     1      13.074   8.444   5.330  1.00  0.00    -0.270 OA
HETATM    5  O   UNL     1      13.012   4.974   4.198  1.00  0.00    -0.263 OA
HETATM    6  O   UNL     1      15.647   7.857   3.333  1.00  0.00    -0.270 OA
HETATM    7  O   UNL     1      13.165   7.844   9.965  1.00  0.00    -0.263 OA
HETATM    8  O   UNL     1      15.404   5.815  10.731  1.00  0.00    -0.270 OA
HETATM    9  O   UNL     1      17.908   5.848   7.076  1.00  0.00    -0.263 OA
HETATM   10  N   UNL     1      11.416   7.827   6.831  1.00  0.00    -0.340 N 
HETATM   11  N   UNL     1      15.341   5.627   2.772  1.00  0.00    -0.340 N 
HETATM   12  N   UNL     1      16.510   7.087   9.139  1.00  0.00    -0.340 N 
HETATM   13  C   UNL     1      12.048   8.587   7.936  1.00  0.00     0.190 C 
HETATM   14  C   UNL     1      14.017   5.920   2.190  1.00  0.00     0.190 C 
HETATM   15  C   UNL     1      11.300   7.118   4.420  1.00  0.00     0.227 C 
HETATM   16  C   UNL     1      16.557   7.746   7.817  1.00  0.00     0.190 C 
HETATM   17  C   UNL     1      17.069   6.297   4.450  1.00  0.00     0.227 C 
HETATM   18  C   UNL     1      14.440   5.772   8.528  1.00  0.00     0.227 C 
HETATM   19  C   UNL     1      12.014   7.851   5.562  1.00  0.00     0.250 C 
HETATM   20  C   UNL     1      13.041   5.864   3.358  1.00  0.00     0.283 C 
HETATM   21  C   UNL     1      15.981   6.673   3.453  1.00  0.00     0.250 C 
HETATM   22  C   UNL     1      12.944   7.674   8.773  1.00  0.00     0.283 C 
HETATM   23  C   UNL     1      15.479   6.237   9.572  1.00  0.00     0.250 C 
HETATM   24  C   UNL     1      17.180   6.793   6.810  1.00  0.00     0.283 C 
HETATM   25  C   UNL     1      10.232   7.034   7.177  1.00  0.00     0.153 C 
HETATM   26  C   UNL     1      15.843   4.251   2.737  1.00  0.00     0.153 C 
HETATM   27  C   UNL     1      17.617   7.341  10.062  1.00  0.00     0.153 C 
ENDROOT
BRANCH  15  28
HETATM   28  C   UNL     1      10.138   7.956   3.904  1.00  0.00     0.016 C 
HETATM   29  C   UNL     1      10.512   8.650   2.596  1.00  0.00     0.012 C 
HETATM   30  C   UNL     1       8.892   7.092   3.714  1.00  0.00     0.012 C 
ENDBRANCH  15  28
BRANCH  14  31
HETATM   31  C   UNL     1      13.542   4.994   1.079  1.00  0.00     0.014 C 
HETATM   32  C   UNL     1      12.012   4.931   1.077  1.00  0.00     0.012 C 
BRANCH  31  33
HETATM   33  C   UNL     1      14.048   5.435  -0.306  1.00  0.00     0.002 C 
HETATM   34  C   UNL     1      15.109   4.512  -0.890  1.00  0.00     0.005 C 
ENDBRANCH  31  33
ENDBRANCH  14  31
BRANCH  13  35
HETATM   35  C   UNL     1      11.042   9.337   8.808  1.00  0.00     0.014 C 
HETATM   36  C   UNL     1      11.695  10.594   9.389  1.00  0.00     0.012 C 
BRANCH  35  37
HETATM   37  C   UNL     1       9.767   9.723   8.036  1.00  0.00     0.002 C 
HETATM   38  C   UNL     1       9.104  10.992   8.551  1.00  0.00     0.005 C 
ENDBRANCH  35  37
ENDBRANCH  13  35
BRANCH  17  39
HETATM   39  C   UNL     1      18.444   6.606   3.887  1.00  0.00     0.016 C 
HETATM   40  C   UNL     1      19.438   5.512   4.267  1.00  0.00     0.012 C 
HETATM   41  C   UNL     1      18.931   7.968   4.378  1.00  0.00     0.012 C 
ENDBRANCH  17  39
BRANCH  18  42
HETATM   42  C   UNL     1      13.589   4.619   9.061  1.00  0.00     0.016 C 
HETATM   43  C   UNL     1      12.367   4.391   8.171  1.00  0.00     0.012 C 
HETATM   44  C   UNL     1      14.418   3.340   9.168  1.00  0.00     0.012 C 
ENDBRANCH  18  42
BRANCH  16  45
HETATM   45  C   UNL     1      17.287   9.088   7.789  1.00  0.00     0.010 C 
HETATM   46  C   UNL     1      16.671  10.016   6.743  1.00  0.00     0.012 C 
HETATM   47  C   UNL     1      18.777   8.888   7.515  1.00  0.00     0.012 C 
ENDBRANCH  16  45
TORSDOF 8
ENDMDL
MODEL 16
REMARK VINA RESULT:    -3.926     10.751     14.499
REMARK INTER + INTRA:          -5.463
REMARK INTER:                  -5.677
REMARK INTRA:                   0.214
REMARK UNBOUND:                 0.299
REMARK  8 active torsions:
REMARK  status: ('A' for Active; 'I' for Inactive)
REMARK    1  A    between atoms: C_13  and  C_15 
REMARK    2  A    between atoms: C_14  and  C_16 
REMARK    3  A    between atoms: C_15  and  C_22 
REMARK    4  A    between atoms: C_16  and  C_23 
REMARK    5  A    between atoms: C_17  and  C_21 
REMARK    6  A    between atoms: C_18  and  C_24 
REMARK    7  A    between atoms: C_19  and  C_27 
REMARK    8  A    between atoms: C_20  and  C_30 
ROOT
HETATM    1  O   UNL     1      16.491   6.551   5.078  1.00  0.00    -0.304 OA
HETATM    2  O   UNL     1      13.477   2.772   4.782  1.00  0.00    -0.304 OA
HETATM    3  O   UNL     1      11.786   5.828   6.840  1.00  0.00    -0.304 OA
HETATM    4  O   UNL     1      14.323   5.694   3.852  1.00  0.00    -0.270 OA
HETATM    5  O   UNL     1      16.294   5.105   6.866  1.00  0.00    -0.263 OA
HETATM    6  O   UNL     1      13.385   7.779   6.246  1.00  0.00    -0.270 OA
HETATM    7  O   UNL     1      12.460   1.458   3.189  1.00  0.00    -0.263 OA
HETATM    8  O   UNL     1      11.169   0.438   5.836  1.00  0.00    -0.270 OA
HETATM    9  O   UNL     1      10.760   4.210   8.124  1.00  0.00    -0.263 OA
HETATM   10  N   UNL     1      15.241   3.723   3.046  1.00  0.00    -0.340 N 
HETATM   11  N   UNL     1      14.792   7.191   7.994  1.00  0.00    -0.340 N 
HETATM   12  N   UNL     1      10.461   2.646   5.842  1.00  0.00    -0.340 N 
HETATM   13  C   UNL     1      13.939   3.265   2.505  1.00  0.00     0.190 C 
HETATM   14  C   UNL     1      15.985   7.500   7.182  1.00  0.00     0.190 C 
HETATM   15  C   UNL     1      16.684   5.453   4.164  1.00  0.00     0.227 C 
HETATM   16  C   UNL     1      10.733   4.090   5.683  1.00  0.00     0.190 C 
HETATM   17  C   UNL     1      12.399   6.467   7.980  1.00  0.00     0.227 C 
HETATM   18  C   UNL     1      12.924   2.081   5.906  1.00  0.00     0.227 C 
HETATM   19  C   UNL     1      15.311   4.972   3.681  1.00  0.00     0.250 C 
HETATM   20  C   UNL     1      16.275   6.232   6.390  1.00  0.00     0.283 C 
HETATM   21  C   UNL     1      13.552   7.228   7.339  1.00  0.00     0.250 C 
HETATM   22  C   UNL     1      13.230   2.355   3.509  1.00  0.00     0.283 C 
HETATM   23  C   UNL     1      11.444   1.643   5.840  1.00  0.00     0.250 C 
HETATM   24  C   UNL     1      11.070   4.684   7.042  1.00  0.00     0.283 C 
HETATM   25  C   UNL     1      16.361   2.782   2.936  1.00  0.00     0.153 C 
HETATM   26  C   UNL     1      14.972   6.729   9.373  1.00  0.00     0.153 C 
HETATM   27  C   UNL     1       9.068   2.235   6.012  1.00  0.00     0.153 C 
ENDROOT
BRANCH  15  28
HETATM   28  C   UNL     1      17.495   5.988   2.991  1.00  0.00     0.016 C 
HETATM   29  C   UNL     1      17.682   7.500   3.109  1.00  0.00     0.012 C 
HETATM   30  C   UNL     1      18.849   5.286   2.907  1.00  0.00     0.012 C 
ENDBRANCH  15  28
BRANCH  14  31
HETATM   31  C   UNL     1      17.233   7.928   7.942  1.00  0.00     0.014 C 
HETATM   32  C   UNL     1      18.480   7.592   7.120  1.00  0.00     0.012 C 
BRANCH  31  33
HETATM   33  C   UNL     1      17.223   9.428   8.286  1.00  0.00     0.002 C 
HETATM   34  C   UNL     1      16.602  10.297   7.201  1.00  0.00     0.005 C 
ENDBRANCH  31  33
ENDBRANCH  14  31
BRANCH  13  35
HETATM   35  C   UNL     1      14.051   2.604   1.132  1.00  0.00     0.014 C 
HETATM   36  C   UNL     1      12.684   2.603   0.443  1.00  0.00     0.012 C 
BRANCH  35  37
HETATM   37  C   UNL     1      15.087   3.297   0.229  1.00  0.00     0.002 C 
HETATM   38  C   UNL     1      14.602   4.616  -0.354  1.00  0.00     0.005 C 
ENDBRANCH  35  37
ENDBRANCH  13  35
BRANCH  17  39
HETATM   39  C   UNL     1      11.421   7.425   8.635  1.00  0.00     0.016 C 
HETATM   40  C   UNL     1      11.906   8.866   8.496  1.00  0.00     0.012 C 
HETATM   41  C   UNL     1      11.221   7.065  10.106  1.00  0.00     0.012 C 
ENDBRANCH  17  39
BRANCH  18  42
HETATM   42  C   UNL     1      13.843   0.899   6.218  1.00  0.00     0.016 C 
HETATM   43  C   UNL     1      15.300   1.255   5.922  1.00  0.00     0.012 C 
HETATM   44  C   UNL     1      13.684   0.461   7.672  1.00  0.00     0.012 C 
ENDBRANCH  18  42
BRANCH  16  45
HETATM   45  C   UNL     1       9.611   4.891   5.025  1.00  0.00     0.010 C 
HETATM   46  C   UNL     1      10.129   5.637   3.796  1.00  0.00     0.012 C 
HETATM   47  C   UNL     1       8.990   5.870   6.021  1.00  0.00     0.012 C 
ENDBRANCH  16  45
TORSDOF 8
ENDMDL
MODEL 17
REMARK VINA RESULT:    -3.887      7.786     13.210
REMARK INTER + INTRA:          -5.405
REMARK INTER:                  -5.887
REMARK INTRA:                   0.482
REMARK UNBOUND:                 0.299
REMARK  8 active torsions:
REMARK  status: ('A' for Active; 'I' for Inactive)
REMARK    1  A    between atoms: C_13  and  C_15 
REMARK    2  A    between atoms: C_14  and  C_16 
REMARK    3  A    between atoms: C_15  and  C_22 
REMARK    4  A    between atoms: C_16  and  C_23 
REMARK    5  A    between atoms: C_17  and  C_21 
REMARK    6  A    between atoms: C_18  and  C_24 
REMARK    7  A    between atoms: C_19  and  C_27 
REMARK    8  A    between atoms: C_20  and  C_30 
ROOT
HETATM    1  O   UNL     1      11.348   7.681   2.277  1.00  0.00    -0.304 OA
HETATM    2  O   UNL     1      14.440   5.106   4.972  1.00  0.00    -0.304 OA
HETATM    3  O   UNL     1      10.606   4.005   5.698  1.00  0.00    -0.304 OA
HETATM    4  O   UNL     1      12.457   5.301   2.492  1.00  0.00    -0.270 OA
HETATM    5  O   UNL     1      11.704   8.268   4.481  1.00  0.00    -0.263 OA
HETATM    6  O   UNL     1       9.380   5.107   3.698  1.00  0.00    -0.270 OA
HETATM    7  O   UNL     1      16.247   3.704   4.714  1.00  0.00    -0.263 OA
HETATM    8  O   UNL     1      15.696   3.544   7.778  1.00  0.00    -0.270 OA
HETATM    9  O   UNL     1      11.268   3.656   7.880  1.00  0.00    -0.263 OA
HETATM   10  N   UNL     1      14.656   6.038   2.500  1.00  0.00    -0.340 N 
HETATM   11  N   UNL     1       9.185   7.094   4.880  1.00  0.00    -0.340 N 
HETATM   12  N   UNL     1      13.706   2.696   6.943  1.00  0.00    -0.340 N 
HETATM   13  C   UNL     1      15.177   4.674   2.756  1.00  0.00     0.190 C 
HETATM   14  C   UNL     1       9.443   7.884   3.660  1.00  0.00     0.190 C 
HETATM   15  C   UNL     1      12.766   7.628   2.024  1.00  0.00     0.227 C 
HETATM   16  C   UNL     1      12.563   2.765   6.009  1.00  0.00     0.190 C 
HETATM   17  C   UNL     1       9.561   4.929   6.073  1.00  0.00     0.227 C 
HETATM   18  C   UNL     1      14.429   5.056   6.402  1.00  0.00     0.227 C 
HETATM   19  C   UNL     1      13.272   6.221   2.363  1.00  0.00     0.250 C 
HETATM   20  C   UNL     1      10.959   7.979   3.554  1.00  0.00     0.283 C 
HETATM   21  C   UNL     1       9.340   5.704   4.780  1.00  0.00     0.250 C 
HETATM   22  C   UNL     1      15.397   4.456   4.253  1.00  0.00     0.283 C 
HETATM   23  C   UNL     1      14.681   3.696   7.089  1.00  0.00     0.250 C 
HETATM   24  C   UNL     1      11.421   3.513   6.676  1.00  0.00     0.283 C 
HETATM   25  C   UNL     1      15.644   7.121   2.480  1.00  0.00     0.153 C 
HETATM   26  C   UNL     1       8.929   7.797   6.139  1.00  0.00     0.153 C 
HETATM   27  C   UNL     1      13.829   1.498   7.775  1.00  0.00     0.153 C 
ENDROOT
BRANCH  15  28
HETATM   28  C   UNL     1      12.965   7.914   0.541  1.00  0.00     0.016 C 
HETATM   29  C   UNL     1      12.749   6.647  -0.285  1.00  0.00     0.012 C 
HETATM   30  C   UNL     1      12.024   9.023   0.075  1.00  0.00     0.012 C 
ENDBRANCH  15  28
BRANCH  14  31
HETATM   31  C   UNL     1       8.835   9.279   3.612  1.00  0.00     0.014 C 
HETATM   32  C   UNL     1       9.574  10.129   2.576  1.00  0.00     0.012 C 
BRANCH  31  33
HETATM   33  C   UNL     1       7.331   9.251   3.286  1.00  0.00     0.002 C 
HETATM   34  C   UNL     1       6.487  10.091   4.234  1.00  0.00     0.005 C 
ENDBRANCH  31  33
ENDBRANCH  14  31
BRANCH  13  35
HETATM   35  C   UNL     1      16.433   4.343   1.951  1.00  0.00     0.014 C 
HETATM   36  C   UNL     1      16.699   2.836   2.000  1.00  0.00     0.012 C 
BRANCH  35  37
HETATM   37  C   UNL     1      16.332   4.806   0.487  1.00  0.00     0.002 C 
HETATM   38  C   UNL     1      17.666   4.810  -0.244  1.00  0.00     0.005 C 
ENDBRANCH  35  37
ENDBRANCH  13  35
BRANCH  17  39
HETATM   39  C   UNL     1       8.306   4.171   6.467  1.00  0.00     0.016 C 
HETATM   40  C   UNL     1       7.140   4.555   5.559  1.00  0.00     0.012 C 
HETATM   41  C   UNL     1       7.957   4.435   7.930  1.00  0.00     0.012 C 
ENDBRANCH  17  39
BRANCH  18  42
HETATM   42  C   UNL     1      15.397   6.126   6.908  1.00  0.00     0.016 C 
HETATM   43  C   UNL     1      15.362   7.358   6.003  1.00  0.00     0.012 C 
HETATM   44  C   UNL     1      15.072   6.512   8.349  1.00  0.00     0.012 C 
ENDBRANCH  18  42
BRANCH  16  45
HETATM   45  C   UNL     1      12.071   1.416   5.488  1.00  0.00     0.010 C 
HETATM   46  C   UNL     1      12.063   1.397   3.959  1.00  0.00     0.012 C 
HETATM   47  C   UNL     1      10.679   1.100   6.033  1.00  0.00     0.012 C 
ENDBRANCH  16  45
TORSDOF 8
ENDMDL
MODEL 18
REMARK VINA RESULT:    -3.859      3.186      5.971
REMARK INTER + INTRA:          -5.364
REMARK INTER:                  -5.805
REMARK INTRA:                   0.441
REMARK UNBOUND:                 0.299
REMARK  8 active torsions:
REMARK  status: ('A' for Active; 'I' for Inactive)
REMARK    1  A    between atoms: C_13  and  C_15 
REMARK    2  A    between atoms: C_14  and  C_16 
REMARK    3  A    between atoms: C_15  and  C_22 
REMARK    4  A    between atoms: C_16  and  C_23 
REMARK    5  A    between atoms: C_17  and  C_21 
REMARK    6  A    between atoms: C_18  and  C_24 
REMARK    7  A    between atoms: C_19  and  C_27 
REMARK    8  A    between atoms: C_20  and  C_30 
ROOT
HETATM    1  O   UNL     1       6.302  13.335  -4.869  1.00  0.00    -0.304 OA
HETATM    2  O   UNL     1       4.749  12.584  -0.344  1.00  0.00    -0.304 OA
HETATM    3  O   UNL     1       2.133  11.080  -3.053  1.00  0.00    -0.304 OA
HETATM    4  O   UNL     1       6.036  11.468  -3.031  1.00  0.00    -0.270 OA
HETATM    5  O   UNL     1       4.710  14.739  -3.961  1.00  0.00    -0.263 OA
HETATM    6  O   UNL     1       3.570  11.113  -5.209  1.00  0.00    -0.270 OA
HETATM    7  O   UNL     1       5.441  11.575   1.605  1.00  0.00    -0.263 OA
HETATM    8  O   UNL     1       2.522  12.429   2.283  1.00  0.00    -0.270 OA
HETATM    9  O   UNL     1       0.470  11.684  -1.572  1.00  0.00    -0.263 OA
HETATM   10  N   UNL     1       7.198  12.580  -1.359  1.00  0.00    -0.340 N 
HETATM   11  N   UNL     1       2.950  13.312  -5.618  1.00  0.00    -0.340 N 
HETATM   12  N   UNL     1       2.138  10.957   0.533  1.00  0.00    -0.340 N 
HETATM   13  C   UNL     1       6.880  11.535  -0.357  1.00  0.00     0.190 C 
HETATM   14  C   UNL     1       4.306  13.641  -6.097  1.00  0.00     0.190 C 
HETATM   15  C   UNL     1       7.144  13.479  -3.708  1.00  0.00     0.227 C 
HETATM   16  C   UNL     1       2.444  10.453  -0.822  1.00  0.00     0.190 C 
HETATM   17  C   UNL     1       1.567  11.848  -4.136  1.00  0.00     0.227 C 
HETATM   18  C   UNL     1       3.503  13.054   0.178  1.00  0.00     0.227 C 
HETATM   19  C   UNL     1       6.737  12.422  -2.675  1.00  0.00     0.250 C 
HETATM   20  C   UNL     1       5.103  13.992  -4.847  1.00  0.00     0.283 C 
HETATM   21  C   UNL     1       2.767  12.041  -5.054  1.00  0.00     0.250 C 
HETATM   22  C   UNL     1       5.639  11.923   0.447  1.00  0.00     0.283 C 
HETATM   23  C   UNL     1       2.694  12.115   1.100  1.00  0.00     0.250 C 
HETATM   24  C   UNL     1       1.539  11.149  -1.826  1.00  0.00     0.283 C 
HETATM   25  C   UNL     1       7.922  13.757  -0.868  1.00  0.00     0.153 C 
HETATM   26  C   UNL     1       1.923  14.357  -5.621  1.00  0.00     0.153 C 
HETATM   27  C   UNL     1       1.187  10.192   1.341  1.00  0.00     0.153 C 
ENDROOT
BRANCH  15  28
HETATM   28  C   UNL     1       8.577  13.241  -4.166  1.00  0.00     0.016 C 
HETATM   29  C   UNL     1       8.601  12.554  -5.530  1.00  0.00     0.012 C 
HETATM   30  C   UNL     1       9.353  14.556  -4.216  1.00  0.00     0.012 C 
ENDBRANCH  15  28
BRANCH  14  31
HETATM   31  C   UNL     1       4.414  14.772  -7.111  1.00  0.00     0.014 C 
HETATM   32  C   UNL     1       5.888  15.088  -7.377  1.00  0.00     0.012 C 
BRANCH  31  33
HETATM   33  C   UNL     1       3.704  14.441  -8.435  1.00  0.00     0.002 C 
HETATM   34  C   UNL     1       4.165  15.299  -9.605  1.00  0.00     0.005 C 
ENDBRANCH  31  33
ENDBRANCH  14  31
BRANCH  13  35
HETATM   35  C   UNL     1       8.055  11.193   0.557  1.00  0.00     0.014 C 
HETATM   36  C   UNL     1       7.812   9.840   1.230  1.00  0.00     0.012 C 
BRANCH  35  37
HETATM   37  C   UNL     1       9.397  11.165  -0.197  1.00  0.00     0.002 C 
HETATM   38  C   UNL     1      10.496  10.418   0.544  1.00  0.00     0.005 C 
ENDBRANCH  35  37
ENDBRANCH  13  35
BRANCH  17  39
HETATM   39  C   UNL     1       0.480  11.050  -4.833  1.00  0.00     0.016 C 
HETATM   40  C   UNL     1       0.854  10.792  -6.290  1.00  0.00     0.012 C 
HETATM   41  C   UNL     1      -0.860  11.778  -4.744  1.00  0.00     0.012 C 
ENDBRANCH  17  39
BRANCH  18  42
HETATM   42  C   UNL     1       3.764  14.405   0.846  1.00  0.00     0.016 C 
HETATM   43  C   UNL     1       4.913  15.137   0.154  1.00  0.00     0.012 C 
HETATM   44  C   UNL     1       2.501  15.264   0.839  1.00  0.00     0.012 C 
ENDBRANCH  18  42
BRANCH  16  45
HETATM   45  C   UNL     1       2.342   8.938  -0.987  1.00  0.00     0.010 C 
HETATM   46  C   UNL     1       3.658   8.362  -1.510  1.00  0.00     0.012 C 
HETATM   47  C   UNL     1       1.190   8.572  -1.922  1.00  0.00     0.012 C 
ENDBRANCH  16  45
TORSDOF 8
ENDMDL
MODEL 19
REMARK VINA RESULT:    -3.770      1.645      2.207
REMARK INTER + INTRA:          -5.234
REMARK INTER:                  -6.228
REMARK INTRA:                   0.994
REMARK UNBOUND:                 0.299
REMARK  8 active torsions:
REMARK  status: ('A' for Active; 'I' for Inactive)
REMARK    1  A    between atoms: C_13  and  C_15 
REMARK    2  A    between atoms: C_14  and  C_16 
REMARK    3  A    between atoms: C_15  and  C_22 
REMARK    4  A    between atoms: C_16  and  C_23 
REMARK    5  A    between atoms: C_17  and  C_21 
REMARK    6  A    between atoms: C_18  and  C_24 
REMARK    7  A    between atoms: C_19  and  C_27 
REMARK    8  A    between atoms: C_20  and  C_30 
ROOT
HETATM    1  O   UNL     1       8.961   9.794  -5.926  1.00  0.00    -0.304 OA
HETATM    2  O   UNL     1       7.313  12.844  -2.545  1.00  0.00    -0.304 OA
HETATM    3  O   UNL     1       4.812  12.711  -5.734  1.00  0.00    -0.304 OA
HETATM    4  O   UNL     1       7.136  10.043  -4.043  1.00  0.00    -0.270 OA
HETATM    5  O   UNL     1       9.311  12.062  -6.167  1.00  0.00    -0.263 OA
HETATM    6  O   UNL     1       5.674  10.597  -6.960  1.00  0.00    -0.270 OA
HETATM    7  O   UNL     1       6.710  12.843  -0.324  1.00  0.00    -0.263 OA
HETATM    8  O   UNL     1       5.921  15.716  -1.241  1.00  0.00    -0.270 OA
HETATM    9  O   UNL     1       4.413  14.948  -5.336  1.00  0.00    -0.263 OA
HETATM   10  N   UNL     1       8.607  10.541  -2.319  1.00  0.00    -0.340 N 
HETATM   11  N   UNL     1       7.264  11.864  -8.078  1.00  0.00    -0.340 N 
HETATM   12  N   UNL     1       4.542  14.443  -2.602  1.00  0.00    -0.340 N 
HETATM   13  C   UNL     1       7.501  10.792  -1.365  1.00  0.00     0.190 C 
HETATM   14  C   UNL     1       8.261  10.783  -7.955  1.00  0.00     0.190 C 
HETATM   15  C   UNL     1       9.460   9.823  -4.574  1.00  0.00     0.227 C 
HETATM   16  C   UNL     1       4.329  13.308  -3.525  1.00  0.00     0.190 C 
HETATM   17  C   UNL     1       5.232  12.940  -7.096  1.00  0.00     0.227 C 
HETATM   18  C   UNL     1       7.056  14.235  -2.759  1.00  0.00     0.227 C 
HETATM   19  C   UNL     1       8.297  10.148  -3.630  1.00  0.00     0.250 C 
HETATM   20  C   UNL     1       8.911  10.987  -6.593  1.00  0.00     0.283 C 
HETATM   21  C   UNL     1       6.053  11.692  -7.392  1.00  0.00     0.250 C 
HETATM   22  C   UNL     1       7.163  12.282  -1.314  1.00  0.00     0.283 C 
HETATM   23  C   UNL     1       5.794  14.854  -2.117  1.00  0.00     0.250 C 
HETATM   24  C   UNL     1       4.511  13.791  -4.955  1.00  0.00     0.283 C 
HETATM   25  C   UNL     1       9.965  10.800  -1.829  1.00  0.00     0.153 C 
HETATM   26  C   UNL     1       7.637  13.098  -8.775  1.00  0.00     0.153 C 
HETATM   27  C   UNL     1       3.363  15.188  -2.163  1.00  0.00     0.153 C 
ENDROOT
BRANCH  15  28
HETATM   28  C   UNL     1      10.009   8.435  -4.272  1.00  0.00     0.016 C 
HETATM   29  C   UNL     1       9.434   7.405  -5.243  1.00  0.00     0.012 C 
HETATM   30  C   UNL     1      11.536   8.433  -4.333  1.00  0.00     0.012 C 
ENDBRANCH  15  28
BRANCH  14  31
HETATM   31  C   UNL     1       9.335  10.721  -9.033  1.00  0.00     0.014 C 
HETATM   32  C   UNL     1      10.556   9.965  -8.504  1.00  0.00     0.012 C 
BRANCH  31  33
HETATM   33  C   UNL     1       8.828  10.056 -10.325  1.00  0.00     0.002 C 
HETATM   34  C   UNL     1       9.927   9.788 -11.344  1.00  0.00     0.005 C 
ENDBRANCH  31  33
ENDBRANCH  14  31
BRANCH  13  35
HETATM   35  C   UNL     1       7.765  10.229   0.031  1.00  0.00     0.014 C 
HETATM   36  C   UNL     1       7.941   8.710  -0.047  1.00  0.00     0.012 C 
BRANCH  35  37
HETATM   37  C   UNL     1       9.001  10.863   0.696  1.00  0.00     0.002 C 
HETATM   38  C   UNL     1       9.252  10.366   2.112  1.00  0.00     0.005 C 
ENDBRANCH  35  37
ENDBRANCH  13  35
BRANCH  17  39
HETATM   39  C   UNL     1       4.025  13.019  -8.012  1.00  0.00     0.016 C 
HETATM   40  C   UNL     1       3.717  14.471  -8.370  1.00  0.00     0.012 C 
HETATM   41  C   UNL     1       2.812  12.358  -7.360  1.00  0.00     0.012 C 
ENDBRANCH  17  39
BRANCH  18  42
HETATM   42  C   UNL     1       8.318  15.003  -2.362  1.00  0.00     0.016 C 
HETATM   43  C   UNL     1       9.567  14.161  -2.623  1.00  0.00     0.012 C 
HETATM   44  C   UNL     1       8.401  16.330  -3.112  1.00  0.00     0.012 C 
ENDBRANCH  18  42
BRANCH  16  45
HETATM   45  C   UNL     1       2.984  12.599  -3.379  1.00  0.00     0.010 C 
HETATM   46  C   UNL     1       3.125  11.106  -3.675  1.00  0.00     0.012 C 
HETATM   47  C   UNL     1       1.938  13.229  -4.298  1.00  0.00     0.012 C 
ENDBRANCH  16  45
TORSDOF 8
ENDMDL
MODEL 20
REMARK VINA RESULT:    -3.658      2.616      4.818
REMARK INTER + INTRA:          -5.069
REMARK INTER:                  -6.219
REMARK INTRA:                   1.150
REMARK UNBOUND:                 0.299
REMARK  8 active torsions:
REMARK  status: ('A' for Active; 'I' for Inactive)
REMARK    1  A    between atoms: C_13  and  C_15 
REMARK    2  A    between atoms: C_14  and  C_16 
REMARK    3  A    between atoms: C_15  and  C_22 
REMARK    4  A    between atoms: C_16  and  C_23 
REMARK    5  A    between atoms: C_17  and  C_21 
REMARK    6  A    between atoms: C_18  and  C_24 
REMARK    7  A    between atoms: C_19  and  C_27 
REMARK    8  A    between atoms: C_20  and  C_30 
ROOT
HETATM    1  O   UNL     1       9.206  12.914  -4.111  1.00  0.00    -0.304 OA
HETATM    2  O   UNL     1       4.462  13.884  -4.144  1.00  0.00    -0.304 OA
HETATM    3  O   UNL     1       5.136   9.891  -4.359  1.00  0.00    -0.304 OA
HETATM    4  O   UNL     1       7.044  12.838  -2.609  1.00  0.00    -0.270 OA
HETATM    5  O   UNL     1       8.059  12.931  -6.114  1.00  0.00    -0.263 OA
HETATM    6  O   UNL     1       7.639   9.769  -3.698  1.00  0.00    -0.270 OA
HETATM    7  O   UNL     1       2.877  14.942  -2.854  1.00  0.00    -0.263 OA
HETATM    8  O   UNL     1       1.160  13.643  -5.107  1.00  0.00    -0.270 OA
HETATM    9  O   UNL     1       3.264   9.790  -5.704  1.00  0.00    -0.263 OA
HETATM   10  N   UNL     1       6.463  15.068  -2.872  1.00  0.00    -0.340 N 
HETATM   11  N   UNL     1       8.265  10.139  -5.902  1.00  0.00    -0.340 N 
HETATM   12  N   UNL     1       2.076  11.752  -4.128  1.00  0.00    -0.340 N 
HETATM   13  C   UNL     1       5.197  14.891  -2.124  1.00  0.00     0.190 C 
HETATM   14  C   UNL     1       9.390  10.994  -5.475  1.00  0.00     0.190 C 
HETATM   15  C   UNL     1       8.657  14.195  -3.743  1.00  0.00     0.227 C 
HETATM   16  C   UNL     1       3.234  11.010  -3.586  1.00  0.00     0.190 C 
HETATM   17  C   UNL     1       5.986   9.272  -5.348  1.00  0.00     0.227 C 
HETATM   18  C   UNL     1       3.559  13.503  -5.187  1.00  0.00     0.227 C 
HETATM   19  C   UNL     1       7.319  13.967  -3.030  1.00  0.00     0.250 C 
HETATM   20  C   UNL     1       8.797  12.386  -5.304  1.00  0.00     0.283 C 
HETATM   21  C   UNL     1       7.373   9.718  -4.904  1.00  0.00     0.250 C 
HETATM   22  C   UNL     1       4.037  14.626  -3.084  1.00  0.00     0.283 C 
HETATM   23  C   UNL     1       2.158  12.987  -4.791  1.00  0.00     0.250 C 
HETATM   24  C   UNL     1       3.840  10.159  -4.691  1.00  0.00     0.283 C 
HETATM   25  C   UNL     1       6.693  16.390  -3.465  1.00  0.00     0.153 C 
HETATM   26  C   UNL     1       8.059   9.900  -7.332  1.00  0.00     0.153 C 
HETATM   27  C   UNL     1       0.751  11.155  -3.959  1.00  0.00     0.153 C 
ENDROOT
BRANCH  15  28
HETATM   28  C   UNL     1       9.652  14.851  -2.795  1.00  0.00     0.016 C 
HETATM   29  C   UNL     1      10.031  13.895  -1.665  1.00  0.00     0.012 C 
HETATM   30  C   UNL     1      10.898  15.306  -3.552  1.00  0.00     0.012 C 
ENDBRANCH  15  28
BRANCH  14  31
HETATM   31  C   UNL     1      10.590  11.056  -6.409  1.00  0.00     0.014 C 
HETATM   32  C   UNL     1      11.383  12.338  -6.147  1.00  0.00     0.012 C 
BRANCH  31  33
HETATM   33  C   UNL     1      11.511   9.832  -6.260  1.00  0.00     0.002 C 
HETATM   34  C   UNL     1      11.417   9.161  -4.897  1.00  0.00     0.005 C 
ENDBRANCH  31  33
ENDBRANCH  14  31
BRANCH  13  35
HETATM   35  C   UNL     1       4.886  16.049  -1.176  1.00  0.00     0.014 C 
HETATM   36  C   UNL     1       3.555  16.697  -1.568  1.00  0.00     0.012 C 
BRANCH  35  37
HETATM   37  C   UNL     1       4.834  15.605   0.297  1.00  0.00     0.002 C 
HETATM   38  C   UNL     1       3.641  14.719   0.624  1.00  0.00     0.005 C 
ENDBRANCH  35  37
ENDBRANCH  13  35
BRANCH  17  39
HETATM   39  C   UNL     1       5.859   7.761  -5.277  1.00  0.00     0.016 C 
HETATM   40  C   UNL     1       4.971   7.243  -6.405  1.00  0.00     0.012 C 
HETATM   41  C   UNL     1       5.306   7.332  -3.919  1.00  0.00     0.012 C 
ENDBRANCH  17  39
BRANCH  18  42
HETATM   42  C   UNL     1       3.468  14.673  -6.167  1.00  0.00     0.016 C 
HETATM   43  C   UNL     1       4.818  15.377  -6.297  1.00  0.00     0.012 C 
HETATM   44  C   UNL     1       2.980  14.196  -7.534  1.00  0.00     0.012 C 
ENDBRANCH  18  42
BRANCH  16  45
HETATM   45  C   UNL     1       2.933  10.143  -2.364  1.00  0.00     0.010 C 
HETATM   46  C   UNL     1       4.132  10.109  -1.417  1.00  0.00     0.012 C 
HETATM   47  C   UNL     1       2.547   8.727  -2.788  1.00  0.00     0.012 C 
ENDBRANCH  16  45
TORSDOF 8
ENDMDL
