MODEL 1
REMARK VINA RESULT:    -6.453      0.000      0.000
REMARK INTER + INTRA:          -8.693
REMARK INTER:                  -9.470
REMARK INTRA:                   0.778
REMARK UNBOUND:                 0.778
REMARK  8 active torsions:
REMARK  status: ('A' for Active; 'I' for Inactive)
REMARK    1  A    between atoms: C_13  and  C_15 
REMARK    2  A    between atoms: C_14  and  C_16 
REMARK    3  A    between atoms: C_15  and  C_22 
REMARK    4  A    between atoms: C_16  and  C_23 
REMARK    5  A    between atoms: C_17  and  C_21 
REMARK    6  A    between atoms: C_18  and  C_24 
REMARK    7  A    between atoms: C_19  and  C_27 
REMARK    8  A    between atoms: C_20  and  C_30 
ROOT
HETATM    1  O   UNL     1      31.965   7.319  -5.905  1.00  0.00    -0.304 OA
HETATM    2  O   UNL     1      35.279   6.992  -9.420  1.00  0.00    -0.304 OA
HETATM    3  O   UNL     1      33.858   3.331  -8.411  1.00  0.00    -0.304 OA
HETATM    4  O   UNL     1      32.238   6.903  -8.491  1.00  0.00    -0.270 OA
HETATM    5  O   UNL     1      34.135   6.734  -5.377  1.00  0.00    -0.263 OA
HETATM    6  O   UNL     1      31.760   3.971  -7.031  1.00  0.00    -0.270 OA
HETATM    7  O   UNL     1      35.664   7.778 -11.549  1.00  0.00    -0.263 OA
HETATM    8  O   UNL     1      37.997   5.751 -11.142  1.00  0.00    -0.270 OA
HETATM    9  O   UNL     1      35.981   2.542  -8.847  1.00  0.00    -0.263 OA
HETATM   10  N   UNL     1      33.437   8.837  -8.942  1.00  0.00    -0.340 N 
HETATM   11  N   UNL     1      33.050   4.158  -5.111  1.00  0.00    -0.340 N 
HETATM   12  N   UNL     1      36.169   4.336 -10.966  1.00  0.00    -0.340 N 
HETATM   13  C   UNL     1      33.653   8.448 -10.355  1.00  0.00     0.190 C 
HETATM   14  C   UNL     1      32.275   5.332  -4.664  1.00  0.00     0.190 C 
HETATM   15  C   UNL     1      32.419   8.451  -6.674  1.00  0.00     0.227 C 
HETATM   16  C   UNL     1      34.832   4.014 -10.424  1.00  0.00     0.190 C 
HETATM   17  C   UNL     1      33.850   2.816  -7.063  1.00  0.00     0.227 C 
HETATM   18  C   UNL     1      36.491   6.236  -9.331  1.00  0.00     0.227 C 
HETATM   19  C   UNL     1      32.690   7.989  -8.110  1.00  0.00     0.250 C 
HETATM   20  C   UNL     1      32.929   6.529  -5.341  1.00  0.00     0.283 C 
HETATM   21  C   UNL     1      32.779   3.672  -6.399  1.00  0.00     0.250 C 
HETATM   22  C   UNL     1      35.002   7.747 -10.520  1.00  0.00     0.283 C 
HETATM   23  C   UNL     1      36.948   5.436 -10.570  1.00  0.00     0.250 C 
HETATM   24  C   UNL     1      34.996   3.197  -9.153  1.00  0.00     0.283 C 
HETATM   25  C   UNL     1      34.096  10.069  -8.495  1.00  0.00     0.153 C 
HETATM   26  C   UNL     1      34.138   3.662  -4.265  1.00  0.00     0.153 C 
HETATM   27  C   UNL     1      36.718   3.445 -11.988  1.00  0.00     0.153 C 
ENDROOT
BRANCH  15  28
HETATM   28  C   UNL     1      31.295   9.479  -6.657  1.00  0.00     0.016 C 
HETATM   29  C   UNL     1      29.939   8.794  -6.497  1.00  0.00     0.012 C 
HETATM   30  C   UNL     1      31.514  10.499  -5.542  1.00  0.00     0.012 C 
ENDBRANCH  15  28
BRANCH  14  31
HETATM   31  C   UNL     1      32.201   5.567  -3.161  1.00  0.00     0.014 C 
HETATM   32  C   UNL     1      31.877   7.037  -2.883  1.00  0.00     0.012 C 
BRANCH  31  33
HETATM   33  C   UNL     1      31.158   4.664  -2.479  1.00  0.00     0.002 C 
HETATM   34  C   UNL     1      30.417   5.346  -1.337  1.00  0.00     0.005 C 
ENDBRANCH  31  33
ENDBRANCH  14  31
BRANCH  13  35
HETATM   35  C   UNL     1      33.504   9.612 -11.335  1.00  0.00     0.014 C 
HETATM   36  C   UNL     1      34.842  10.340 -11.482  1.00  0.00     0.012 C 
BRANCH  35  37
HETATM   37  C   UNL     1      33.005   9.156 -12.717  1.00  0.00     0.002 C 
HETATM   38  C   UNL     1      33.390  10.101 -13.846  1.00  0.00     0.005 C 
ENDBRANCH  35  37
ENDBRANCH  13  35
BRANCH  17  39
HETATM   39  C   UNL     1      33.445   1.353  -7.062  1.00  0.00     0.016 C 
HETATM   40  C   UNL     1      32.269   1.122  -6.116  1.00  0.00     0.012 C 
HETATM   41  C   UNL     1      34.628   0.468  -6.674  1.00  0.00     0.012 C 
ENDBRANCH  17  39
BRANCH  18  42
HETATM   42  C   UNL     1      37.588   7.181  -8.840  1.00  0.00     0.016 C 
HETATM   43  C   UNL     1      37.022   8.198  -7.849  1.00  0.00     0.012 C 
HETATM   44  C   UNL     1      38.733   6.395  -8.204  1.00  0.00     0.012 C 
ENDBRANCH  18  42
BRANCH  16  45
HETATM   45  C   UNL     1      33.898   3.292 -11.393  1.00  0.00     0.010 C 
HETATM   46  C   UNL     1      32.593   4.067 -11.565  1.00  0.00     0.012 C 
HETATM   47  C   UNL     1      33.614   1.869 -10.913  1.00  0.00     0.012 C 
ENDBRANCH  16  45
TORSDOF 8
ENDMDL
MODEL 2
REMARK VINA RESULT:    -6.140      2.266      6.352
REMARK INTER + INTRA:          -8.233
REMARK INTER:                  -8.671
REMARK INTRA:                   0.438
REMARK UNBOUND:                 0.778
REMARK  8 active torsions:
REMARK  status: ('A' for Active; 'I' for Inactive)
REMARK    1  A    between atoms: C_13  and  C_15 
REMARK    2  A    between atoms: C_14  and  C_16 
REMARK    3  A    between atoms: C_15  and  C_22 
REMARK    4  A    between atoms: C_16  and  C_23 
REMARK    5  A    between atoms: C_17  and  C_21 
REMARK    6  A    between atoms: C_18  and  C_24 
REMARK    7  A    between atoms: C_19  and  C_27 
REMARK    8  A    between atoms: C_20  and  C_30 
ROOT
HETATM    1  O   UNL     1      33.922   3.239  -5.260  1.00  0.00    -0.304 OA
HETATM    2  O   UNL     1      35.305   3.464  -9.896  1.00  0.00    -0.304 OA
HETATM    3  O   UNL     1      33.782   7.011  -8.654  1.00  0.00    -0.304 OA
HETATM    4  O   UNL     1      35.807   4.185  -6.838  1.00  0.00    -0.270 OA
HETATM    5  O   UNL     1      32.345   3.032  -6.933  1.00  0.00    -0.263 OA
HETATM    6  O   UNL     1      33.762   6.676  -6.084  1.00  0.00    -0.270 OA
HETATM    7  O   UNL     1      37.186   3.152 -11.184  1.00  0.00    -0.263 OA
HETATM    8  O   UNL     1      35.129   4.264 -13.245  1.00  0.00    -0.270 OA
HETATM    9  O   UNL     1      32.953   7.244 -10.794  1.00  0.00    -0.263 OA
HETATM   10  N   UNL     1      36.351   2.163  -7.837  1.00  0.00    -0.340 N 
HETATM   11  N   UNL     1      31.679   5.661  -6.207  1.00  0.00    -0.340 N 
HETATM   12  N   UNL     1      35.267   6.052 -11.776  1.00  0.00    -0.340 N 
HETATM   13  C   UNL     1      37.295   2.811  -8.778  1.00  0.00     0.190 C 
HETATM   14  C   UNL     1      32.056   4.685  -5.167  1.00  0.00     0.190 C 
HETATM   15  C   UNL     1      34.767   2.252  -5.884  1.00  0.00     0.227 C 
HETATM   16  C   UNL     1      35.278   6.598 -10.403  1.00  0.00     0.190 C 
HETATM   17  C   UNL     1      32.482   7.158  -8.042  1.00  0.00     0.227 C 
HETATM   18  C   UNL     1      34.443   3.797 -10.988  1.00  0.00     0.227 C 
HETATM   19  C   UNL     1      35.681   2.957  -6.893  1.00  0.00     0.250 C 
HETATM   20  C   UNL     1      32.761   3.557  -5.908  1.00  0.00     0.283 C 
HETATM   21  C   UNL     1      32.693   6.506  -6.681  1.00  0.00     0.250 C 
HETATM   22  C   UNL     1      36.605   3.116 -10.107  1.00  0.00     0.283 C 
HETATM   23  C   UNL     1      34.993   4.714 -12.102  1.00  0.00     0.250 C 
HETATM   24  C   UNL     1      33.862   6.994 -10.016  1.00  0.00     0.283 C 
HETATM   25  C   UNL     1      36.132   0.724  -8.017  1.00  0.00     0.153 C 
HETATM   26  C   UNL     1      30.333   5.602  -6.783  1.00  0.00     0.153 C 
HETATM   27  C   UNL     1      35.566   6.974 -12.873  1.00  0.00     0.153 C 
ENDROOT
BRANCH  15  28
HETATM   28  C   UNL     1      35.600   1.615  -4.778  1.00  0.00     0.016 C 
HETATM   29  C   UNL     1      35.637   2.516  -3.545  1.00  0.00     0.012 C 
HETATM   30  C   UNL     1      35.052   0.236  -4.417  1.00  0.00     0.012 C 
ENDBRANCH  15  28
BRANCH  14  31
HETATM   31  C   UNL     1      30.922   4.117  -4.324  1.00  0.00     0.014 C 
HETATM   32  C   UNL     1      30.832   2.604  -4.530  1.00  0.00     0.012 C 
BRANCH  31  33
HETATM   33  C   UNL     1      31.093   4.431  -2.827  1.00  0.00     0.002 C 
HETATM   34  C   UNL     1      32.224   5.407  -2.534  1.00  0.00     0.005 C 
ENDBRANCH  31  33
ENDBRANCH  14  31
BRANCH  13  35
HETATM   35  C   UNL     1      38.584   2.017  -8.986  1.00  0.00     0.014 C 
HETATM   36  C   UNL     1      39.650   2.915  -9.619  1.00  0.00     0.012 C 
BRANCH  35  37
HETATM   37  C   UNL     1      39.123   1.417  -7.674  1.00  0.00     0.002 C 
HETATM   38  C   UNL     1      40.148   0.312  -7.886  1.00  0.00     0.005 C 
ENDBRANCH  35  37
ENDBRANCH  13  35
BRANCH  17  39
HETATM   39  C   UNL     1      32.139   8.628  -7.886  1.00  0.00     0.016 C 
HETATM   40  C   UNL     1      31.992   8.992  -6.411  1.00  0.00     0.012 C 
HETATM   41  C   UNL     1      30.860   8.965  -8.651  1.00  0.00     0.012 C 
ENDBRANCH  17  39
BRANCH  18  42
HETATM   42  C   UNL     1      33.897   2.488 -11.560  1.00  0.00     0.016 C 
HETATM   43  C   UNL     1      33.818   1.415 -10.474  1.00  0.00     0.012 C 
HETATM   44  C   UNL     1      32.527   2.706 -12.197  1.00  0.00     0.012 C 
ENDBRANCH  18  42
BRANCH  16  45
HETATM   45  C   UNL     1      36.229   7.773 -10.180  1.00  0.00     0.010 C 
HETATM   46  C   UNL     1      37.180   7.485  -9.020  1.00  0.00     0.012 C 
HETATM   47  C   UNL     1      35.447   9.061  -9.924  1.00  0.00     0.012 C 
ENDBRANCH  16  45
TORSDOF 8
ENDMDL
MODEL 3
REMARK VINA RESULT:    -5.831      1.550      6.550
REMARK INTER + INTRA:          -7.781
REMARK INTER:                  -8.171
REMARK INTRA:                   0.391
REMARK UNBOUND:                 0.778
REMARK  8 active torsions:
REMARK  status: ('A' for Active; 'I' for Inactive)
REMARK    1  A    between atoms: C_13  and  C_15 
REMARK    2  A    between atoms: C_14  and  C_16 
REMARK    3  A    between atoms: C_15  and  C_22 
REMARK    4  A    between atoms: C_16  and  C_23 
REMARK    5  A    between atoms: C_17  and  C_21 
REMARK    6  A    between atoms: C_18  and  C_24 
REMARK    7  A    between atoms: C_19  and  C_27 
REMARK    8  A    between atoms: C_20  and  C_30 
ROOT
HETATM    1  O   UNL     1      32.498   6.286  -5.929  1.00  0.00    -0.304 OA
HETATM    2  O   UNL     1      34.934   3.201  -8.757  1.00  0.00    -0.304 OA
HETATM    3  O   UNL     1      36.255   7.000  -9.266  1.00  0.00    -0.304 OA
HETATM    4  O   UNL     1      34.815   5.058  -6.177  1.00  0.00    -0.270 OA
HETATM    5  O   UNL     1      31.922   6.080  -8.155  1.00  0.00    -0.263 OA
HETATM    6  O   UNL     1      35.197   8.178  -7.215  1.00  0.00    -0.270 OA
HETATM    7  O   UNL     1      36.230   1.307  -8.581  1.00  0.00    -0.263 OA
HETATM    8  O   UNL     1      36.462   2.008 -11.609  1.00  0.00    -0.270 OA
HETATM    9  O   UNL     1      36.598   6.435 -11.476  1.00  0.00    -0.263 OA
HETATM   10  N   UNL     1      33.958   2.907  -6.310  1.00  0.00    -0.340 N 
HETATM   11  N   UNL     1      33.240   8.547  -8.406  1.00  0.00    -0.340 N 
HETATM   12  N   UNL     1      37.408   3.901 -10.661  1.00  0.00    -0.340 N 
HETATM   13  C   UNL     1      35.294   2.324  -6.579  1.00  0.00     0.190 C 
HETATM   14  C   UNL     1      32.420   8.269  -7.211  1.00  0.00     0.190 C 
HETATM   15  C   UNL     1      32.468   4.856  -5.751  1.00  0.00     0.227 C 
HETATM   16  C   UNL     1      37.390   4.995  -9.667  1.00  0.00     0.190 C 
HETATM   17  C   UNL     1      35.396   8.113  -9.594  1.00  0.00     0.227 C 
HETATM   18  C   UNL     1      35.004   3.284 -10.183  1.00  0.00     0.227 C 
HETATM   19  C   UNL     1      33.850   4.290  -6.102  1.00  0.00     0.250 C 
HETATM   20  C   UNL     1      32.239   6.758  -7.186  1.00  0.00     0.283 C 
HETATM   21  C   UNL     1      34.618   8.309  -8.300  1.00  0.00     0.250 C 
HETATM   22  C   UNL     1      35.520   2.172  -8.083  1.00  0.00     0.283 C 
HETATM   23  C   UNL     1      36.358   2.993 -10.869  1.00  0.00     0.250 C 
HETATM   24  C   UNL     1      36.715   6.211 -10.281  1.00  0.00     0.283 C 
HETATM   25  C   UNL     1      32.821   1.982  -6.355  1.00  0.00     0.153 C 
HETATM   26  C   UNL     1      32.570   8.907  -9.658  1.00  0.00     0.153 C 
HETATM   27  C   UNL     1      38.609   3.755 -11.484  1.00  0.00     0.153 C 
ENDROOT
BRANCH  15  28
HETATM   28  C   UNL     1      32.152   4.596  -4.284  1.00  0.00     0.016 C 
HETATM   29  C   UNL     1      32.257   5.886  -3.473  1.00  0.00     0.012 C 
HETATM   30  C   UNL     1      30.762   3.980  -4.132  1.00  0.00     0.012 C 
ENDBRANCH  15  28
BRANCH  14  31
HETATM   31  C   UNL     1      31.060   8.952  -7.145  1.00  0.00     0.014 C 
HETATM   32  C   UNL     1      29.970   7.908  -6.887  1.00  0.00     0.012 C 
BRANCH  31  33
HETATM   33  C   UNL     1      31.005  10.042  -6.060  1.00  0.00     0.002 C 
HETATM   34  C   UNL     1      32.238  10.076  -5.167  1.00  0.00     0.005 C 
ENDBRANCH  31  33
ENDBRANCH  14  31
BRANCH  13  35
HETATM   35  C   UNL     1      35.544   1.011  -5.839  1.00  0.00     0.014 C 
HETATM   36  C   UNL     1      37.001   0.580  -6.025  1.00  0.00     0.012 C 
BRANCH  35  37
HETATM   37  C   UNL     1      35.219   1.112  -4.338  1.00  0.00     0.002 C 
HETATM   38  C   UNL     1      35.884   2.296  -3.649  1.00  0.00     0.005 C 
ENDBRANCH  35  37
ENDBRANCH  13  35
BRANCH  17  39
HETATM   39  C   UNL     1      36.228   9.342  -9.913  1.00  0.00     0.016 C 
HETATM   40  C   UNL     1      35.965  10.447  -8.892  1.00  0.00     0.012 C 
HETATM   41  C   UNL     1      35.934   9.837 -11.327  1.00  0.00     0.012 C 
ENDBRANCH  17  39
BRANCH  18  42
HETATM   42  C   UNL     1      33.889   2.405 -10.752  1.00  0.00     0.016 C 
HETATM   43  C   UNL     1      32.679   2.395  -9.817  1.00  0.00     0.012 C 
HETATM   44  C   UNL     1      33.484   2.880 -12.146  1.00  0.00     0.012 C 
ENDBRANCH  18  42
BRANCH  16  45
HETATM   45  C   UNL     1      38.757   5.382  -9.106  1.00  0.00     0.010 C 
HETATM   46  C   UNL     1      38.798   5.175  -7.592  1.00  0.00     0.012 C 
HETATM   47  C   UNL     1      39.094   6.831  -9.456  1.00  0.00     0.012 C 
ENDBRANCH  16  45
TORSDOF 8
ENDMDL
MODEL 4
REMARK VINA RESULT:    -5.578      1.930      4.941
REMARK INTER + INTRA:          -7.409
REMARK INTER:                  -8.306
REMARK INTRA:                   0.897
REMARK UNBOUND:                 0.778
REMARK  8 active torsions:
REMARK  status: ('A' for Active; 'I' for Inactive)
REMARK    1  A    between atoms: C_13  and  C_15 
REMARK    2  A    between atoms: C_14  and  C_16 
REMARK    3  A    between atoms: C_15  and  C_22 
REMARK    4  A    between atoms: C_16  and  C_23 
REMARK    5  A    between atoms: C_17  and  C_21 
REMARK    6  A    between atoms: C_18  and  C_24 
REMARK    7  A    between atoms: C_19  and  C_27 
REMARK    8  A    between atoms: C_20  and  C_30 
ROOT
HETATM    1  O   UNL     1      33.601   7.854  -9.257  1.00  0.00    -0.304 OA
HETATM    2  O   UNL     1      36.620   4.114  -8.669  1.00  0.00    -0.304 OA
HETATM    3  O   UNL     1      33.622   4.011  -5.942  1.00  0.00    -0.304 OA
HETATM    4  O   UNL     1      33.821   5.260  -9.655  1.00  0.00    -0.270 OA
HETATM    5  O   UNL     1      35.224   7.945  -7.619  1.00  0.00    -0.263 OA
HETATM    6  O   UNL     1      31.963   5.725  -6.955  1.00  0.00    -0.270 OA
HETATM    7  O   UNL     1      37.459   2.331  -9.858  1.00  0.00    -0.263 OA
HETATM    8  O   UNL     1      38.576   1.822  -6.993  1.00  0.00    -0.270 OA
HETATM    9  O   UNL     1      35.174   3.134  -4.477  1.00  0.00    -0.263 OA
HETATM   10  N   UNL     1      35.797   5.348 -10.866  1.00  0.00    -0.340 N 
HETATM   11  N   UNL     1      33.068   7.463  -5.887  1.00  0.00    -0.340 N 
HETATM   12  N   UNL     1      36.297   1.707  -6.586  1.00  0.00    -0.340 N 
HETATM   13  C   UNL     1      35.903   3.871 -10.920  1.00  0.00     0.190 C 
HETATM   14  C   UNL     1      32.888   8.343  -7.058  1.00  0.00     0.190 C 
HETATM   15  C   UNL     1      34.570   7.455 -10.247  1.00  0.00     0.227 C 
HETATM   16  C   UNL     1      34.928   2.244  -6.741  1.00  0.00     0.190 C 
HETATM   17  C   UNL     1      33.291   5.112  -5.068  1.00  0.00     0.227 C 
HETATM   18  C   UNL     1      37.344   3.832  -7.467  1.00  0.00     0.227 C 
HETATM   19  C   UNL     1      34.693   5.927 -10.222  1.00  0.00     0.250 C 
HETATM   20  C   UNL     1      34.059   8.032  -7.981  1.00  0.00     0.283 C 
HETATM   21  C   UNL     1      32.690   6.121  -6.037  1.00  0.00     0.250 C 
HETATM   22  C   UNL     1      36.790   3.354  -9.787  1.00  0.00     0.283 C 
HETATM   23  C   UNL     1      37.464   2.361  -7.013  1.00  0.00     0.250 C 
HETATM   24  C   UNL     1      34.618   3.157  -5.565  1.00  0.00     0.283 C 
HETATM   25  C   UNL     1      36.916   6.104 -11.439  1.00  0.00     0.153 C 
HETATM   26  C   UNL     1      33.752   7.989  -4.703  1.00  0.00     0.153 C 
HETATM   27  C   UNL     1      36.443   0.401  -5.943  1.00  0.00     0.153 C 
ENDROOT
BRANCH  15  28
HETATM   28  C   UNL     1      34.042   7.917 -11.599  1.00  0.00     0.016 C 
HETATM   29  C   UNL     1      33.323   6.776 -12.316  1.00  0.00     0.012 C 
HETATM   30  C   UNL     1      33.110   9.116 -11.433  1.00  0.00     0.012 C 
ENDBRANCH  15  28
BRANCH  14  31
HETATM   31  C   UNL     1      32.832   9.839  -6.784  1.00  0.00     0.014 C 
HETATM   32  C   UNL     1      32.983  10.612  -8.096  1.00  0.00     0.012 C 
BRANCH  31  33
HETATM   33  C   UNL     1      31.529  10.256  -6.079  1.00  0.00     0.002 C 
HETATM   34  C   UNL     1      30.296   9.532  -6.600  1.00  0.00     0.005 C 
ENDBRANCH  31  33
ENDBRANCH  14  31
BRANCH  13  35
HETATM   35  C   UNL     1      36.366   3.344 -12.277  1.00  0.00     0.014 C 
HETATM   36  C   UNL     1      35.967   1.873 -12.427  1.00  0.00     0.012 C 
BRANCH  35  37
HETATM   37  C   UNL     1      35.793   4.160 -13.450  1.00  0.00     0.002 C 
HETATM   38  C   UNL     1      36.663   4.125 -14.698  1.00  0.00     0.005 C 
ENDBRANCH  35  37
ENDBRANCH  13  35
BRANCH  17  39
HETATM   39  C   UNL     1      32.264   4.675  -4.039  1.00  0.00     0.016 C 
HETATM   40  C   UNL     1      30.981   4.213  -4.726  1.00  0.00     0.012 C 
HETATM   41  C   UNL     1      31.970   5.809  -3.059  1.00  0.00     0.012 C 
ENDBRANCH  17  39
BRANCH  18  42
HETATM   42  C   UNL     1      38.718   4.493  -7.591  1.00  0.00     0.016 C 
HETATM   43  C   UNL     1      38.582   5.932  -8.090  1.00  0.00     0.012 C 
HETATM   44  C   UNL     1      39.456   4.458  -6.254  1.00  0.00     0.012 C 
ENDBRANCH  18  42
BRANCH  16  45
HETATM   45  C   UNL     1      33.833   1.190  -6.888  1.00  0.00     0.010 C 
HETATM   46  C   UNL     1      32.992   1.455  -8.136  1.00  0.00     0.012 C 
HETATM   47  C   UNL     1      32.946   1.154  -5.644  1.00  0.00     0.012 C 
ENDBRANCH  16  45
TORSDOF 8
ENDMDL
MODEL 5
REMARK VINA RESULT:    -5.426      2.161      6.508
REMARK INTER + INTRA:          -7.185
REMARK INTER:                  -7.524
REMARK INTRA:                   0.339
REMARK UNBOUND:                 0.778
REMARK  8 active torsions:
REMARK  status: ('A' for Active; 'I' for Inactive)
REMARK    1  A    between atoms: C_13  and  C_15 
REMARK    2  A    between atoms: C_14  and  C_16 
REMARK    3  A    between atoms: C_15  and  C_22 
REMARK    4  A    between atoms: C_16  and  C_23 
REMARK    5  A    between atoms: C_17  and  C_21 
REMARK    6  A    between atoms: C_18  and  C_24 
REMARK    7  A    between atoms: C_19  and  C_27 
REMARK    8  A    between atoms: C_20  and  C_30 
ROOT
HETATM    1  O   UNL     1      35.457   4.402  -7.397  1.00  0.00    -0.304 OA
HETATM    2  O   UNL     1      35.932   8.386 -10.108  1.00  0.00    -0.304 OA
HETATM    3  O   UNL     1      33.453   9.045  -6.968  1.00  0.00    -0.304 OA
HETATM    4  O   UNL     1      36.610   6.770  -7.454  1.00  0.00    -0.270 OA
HETATM    5  O   UNL     1      33.820   4.939  -8.933  1.00  0.00    -0.263 OA
HETATM    6  O   UNL     1      33.953   6.975  -5.491  1.00  0.00    -0.270 OA
HETATM    7  O   UNL     1      37.577   9.798 -10.881  1.00  0.00    -0.263 OA
HETATM    8  O   UNL     1      34.966  11.229 -11.804  1.00  0.00    -0.270 OA
HETATM    9  O   UNL     1      32.275  10.446  -8.373  1.00  0.00    -0.263 OA
HETATM   10  N   UNL     1      37.679   6.490  -9.494  1.00  0.00    -0.340 N 
HETATM   11  N   UNL     1      32.378   5.733  -6.658  1.00  0.00    -0.340 N 
HETATM   12  N   UNL     1      34.680  11.268  -9.504  1.00  0.00    -0.340 N 
HETATM   13  C   UNL     1      38.172   7.888  -9.497  1.00  0.00     0.190 C 
HETATM   14  C   UNL     1      33.236   4.532  -6.603  1.00  0.00     0.190 C 
HETATM   15  C   UNL     1      36.492   4.568  -8.387  1.00  0.00     0.227 C 
HETATM   16  C   UNL     1      34.707  10.597  -8.187  1.00  0.00     0.190 C 
HETATM   17  C   UNL     1      32.299   8.231  -6.670  1.00  0.00     0.227 C 
HETATM   18  C   UNL     1      34.849   9.073 -10.744  1.00  0.00     0.227 C 
HETATM   19  C   UNL     1      36.924   6.039  -8.400  1.00  0.00     0.250 C 
HETATM   20  C   UNL     1      34.173   4.651  -7.797  1.00  0.00     0.283 C 
HETATM   21  C   UNL     1      32.937   6.933  -6.194  1.00  0.00     0.250 C 
HETATM   22  C   UNL     1      37.221   8.791 -10.283  1.00  0.00     0.283 C 
HETATM   23  C   UNL     1      34.856  10.617 -10.736  1.00  0.00     0.250 C 
HETATM   24  C   UNL     1      33.321  10.053  -7.879  1.00  0.00     0.283 C 
HETATM   25  C   UNL     1      37.964   5.694 -10.692  1.00  0.00     0.153 C 
HETATM   26  C   UNL     1      31.071   5.642  -7.313  1.00  0.00     0.153 C 
HETATM   27  C   UNL     1      34.456  12.714  -9.522  1.00  0.00     0.153 C 
ENDROOT
BRANCH  15  28
HETATM   28  C   UNL     1      37.657   3.682  -7.967  1.00  0.00     0.016 C 
HETATM   29  C   UNL     1      37.395   3.061  -6.596  1.00  0.00     0.012 C 
HETATM   30  C   UNL     1      37.910   2.593  -9.008  1.00  0.00     0.012 C 
ENDBRANCH  15  28
BRANCH  14  31
HETATM   31  C   UNL     1      32.525   3.186  -6.639  1.00  0.00     0.014 C 
HETATM   32  C   UNL     1      33.388   2.166  -7.385  1.00  0.00     0.012 C 
BRANCH  31  33
HETATM   33  C   UNL     1      32.195   2.661  -5.231  1.00  0.00     0.002 C 
HETATM   34  C   UNL     1      30.879   3.188  -4.677  1.00  0.00     0.005 C 
ENDBRANCH  31  33
ENDBRANCH  14  31
BRANCH  13  35
HETATM   35  C   UNL     1      39.610   8.023  -9.994  1.00  0.00     0.014 C 
HETATM   36  C   UNL     1      40.175   9.386  -9.584  1.00  0.00     0.012 C 
BRANCH  35  37
HETATM   37  C   UNL     1      40.523   6.902  -9.464  1.00  0.00     0.002 C 
HETATM   38  C   UNL     1      40.885   7.056  -7.994  1.00  0.00     0.005 C 
ENDBRANCH  35  37
ENDBRANCH  13  35
BRANCH  17  39
HETATM   39  C   UNL     1      31.480   8.866  -5.560  1.00  0.00     0.016 C 
HETATM   40  C   UNL     1      31.507   7.994  -4.307  1.00  0.00     0.012 C 
HETATM   41  C   UNL     1      30.043   9.101  -6.020  1.00  0.00     0.012 C 
ENDBRANCH  17  39
BRANCH  18  42
HETATM   42  C   UNL     1      34.727   8.522 -12.166  1.00  0.00     0.016 C 
HETATM   43  C   UNL     1      35.004   7.019 -12.189  1.00  0.00     0.012 C 
HETATM   44  C   UNL     1      33.345   8.820 -12.743  1.00  0.00     0.012 C 
ENDBRANCH  18  42
BRANCH  16  45
HETATM   45  C   UNL     1      35.198  11.464  -7.029  1.00  0.00     0.010 C 
HETATM   46  C   UNL     1      36.291  10.744  -6.240  1.00  0.00     0.012 C 
HETATM   47  C   UNL     1      34.038  11.845  -6.109  1.00  0.00     0.012 C 
ENDBRANCH  16  45
TORSDOF 8
ENDMDL
MODEL 6
REMARK VINA RESULT:    -5.413      2.906      6.675
REMARK INTER + INTRA:          -7.167
REMARK INTER:                  -7.513
REMARK INTRA:                   0.346
REMARK UNBOUND:                 0.778
REMARK  8 active torsions:
REMARK  status: ('A' for Active; 'I' for Inactive)
REMARK    1  A    between atoms: C_13  and  C_15 
REMARK    2  A    between atoms: C_14  and  C_16 
REMARK    3  A    between atoms: C_15  and  C_22 
REMARK    4  A    between atoms: C_16  and  C_23 
REMARK    5  A    between atoms: C_17  and  C_21 
REMARK    6  A    between atoms: C_18  and  C_24 
REMARK    7  A    between atoms: C_19  and  C_27 
REMARK    8  A    between atoms: C_20  and  C_30 
ROOT
HETATM    1  O   UNL     1      34.237  10.286  -6.586  1.00  0.00    -0.304 OA
HETATM    2  O   UNL     1      34.052   7.627 -10.629  1.00  0.00    -0.304 OA
HETATM    3  O   UNL     1      37.876   8.602  -9.699  1.00  0.00    -0.304 OA
HETATM    4  O   UNL     1      34.697   7.867  -7.523  1.00  0.00    -0.270 OA
HETATM    5  O   UNL     1      34.366  11.326  -8.642  1.00  0.00    -0.263 OA
HETATM    6  O   UNL     1      37.604   9.427  -7.257  1.00  0.00    -0.270 OA
HETATM    7  O   UNL     1      33.293   5.577 -11.349  1.00  0.00    -0.263 OA
HETATM    8  O   UNL     1      34.807   6.657 -13.850  1.00  0.00    -0.270 OA
HETATM    9  O   UNL     1      38.253   8.713 -11.972  1.00  0.00    -0.263 OA
HETATM   10  N   UNL     1      32.585   7.531  -8.423  1.00  0.00    -0.340 N 
HETATM   11  N   UNL     1      37.091  11.562  -8.010  1.00  0.00    -0.340 N 
HETATM   12  N   UNL     1      36.544   6.545 -12.319  1.00  0.00    -0.340 N 
HETATM   13  C   UNL     1      32.981   6.238  -9.029  1.00  0.00     0.190 C 
HETATM   14  C   UNL     1      36.074  11.726  -6.953  1.00  0.00     0.190 C 
HETATM   15  C   UNL     1      33.071   9.543  -6.993  1.00  0.00     0.227 C 
HETATM   16  C   UNL     1      37.099   6.803 -10.974  1.00  0.00     0.190 C 
HETATM   17  C   UNL     1      38.329   9.954  -9.471  1.00  0.00     0.227 C 
HETATM   18  C   UNL     1      34.553   8.045 -11.903  1.00  0.00     0.227 C 
HETATM   19  C   UNL     1      33.529   8.246  -7.670  1.00  0.00     0.250 C 
HETATM   20  C   UNL     1      34.800  11.112  -7.518  1.00  0.00     0.283 C 
HETATM   21  C   UNL     1      37.672  10.292  -8.138  1.00  0.00     0.250 C 
HETATM   22  C   UNL     1      33.411   6.434 -10.482  1.00  0.00     0.283 C 
HETATM   23  C   UNL     1      35.298   7.008 -12.772  1.00  0.00     0.250 C 
HETATM   24  C   UNL     1      37.816   8.144 -10.983  1.00  0.00     0.283 C 
HETATM   25  C   UNL     1      31.231   8.007  -8.727  1.00  0.00     0.153 C 
HETATM   26  C   UNL     1      37.330  12.665  -8.943  1.00  0.00     0.153 C 
HETATM   27  C   UNL     1      37.351   5.747 -13.242  1.00  0.00     0.153 C 
ENDROOT
BRANCH  15  28
HETATM   28  C   UNL     1      32.282   9.225  -5.730  1.00  0.00     0.016 C 
HETATM   29  C   UNL     1      33.083   9.602  -4.484  1.00  0.00     0.012 C 
HETATM   30  C   UNL     1      30.936   9.948  -5.738  1.00  0.00     0.012 C 
ENDBRANCH  15  28
BRANCH  14  31
HETATM   31  C   UNL     1      35.797  13.151  -6.491  1.00  0.00     0.014 C 
HETATM   32  C   UNL     1      34.366  13.253  -5.959  1.00  0.00     0.012 C 
BRANCH  31  33
HETATM   33  C   UNL     1      36.790  13.618  -5.411  1.00  0.00     0.002 C 
HETATM   34  C   UNL     1      36.240  14.719  -4.514  1.00  0.00     0.005 C 
ENDBRANCH  31  33
ENDBRANCH  14  31
BRANCH  13  35
HETATM   35  C   UNL     1      31.909   5.156  -8.903  1.00  0.00     0.014 C 
HETATM   36  C   UNL     1      32.546   3.773  -9.072  1.00  0.00     0.012 C 
BRANCH  35  37
HETATM   37  C   UNL     1      31.161   5.223  -7.560  1.00  0.00     0.002 C 
HETATM   38  C   UNL     1      31.884   4.514  -6.424  1.00  0.00     0.005 C 
ENDBRANCH  35  37
ENDBRANCH  13  35
BRANCH  17  39
HETATM   39  C   UNL     1      39.841   9.988  -9.348  1.00  0.00     0.016 C 
HETATM   40  C   UNL     1      40.257  10.458  -7.956  1.00  0.00     0.012 C 
HETATM   41  C   UNL     1      40.447  10.890 -10.422  1.00  0.00     0.012 C 
ENDBRANCH  17  39
BRANCH  18  42
HETATM   42  C   UNL     1      33.393   8.685 -12.666  1.00  0.00     0.016 C 
HETATM   43  C   UNL     1      32.598   9.621 -11.757  1.00  0.00     0.012 C 
HETATM   44  C   UNL     1      33.903   9.437 -13.893  1.00  0.00     0.012 C 
ENDBRANCH  18  42
BRANCH  16  45
HETATM   45  C   UNL     1      38.028   5.716 -10.437  1.00  0.00     0.010 C 
HETATM   46  C   UNL     1      37.532   5.199  -9.087  1.00  0.00     0.012 C 
HETATM   47  C   UNL     1      39.459   6.239 -10.315  1.00  0.00     0.012 C 
ENDBRANCH  16  45
TORSDOF 8
ENDMDL
MODEL 7
REMARK VINA RESULT:    -5.395     18.760     22.049
REMARK INTER + INTRA:          -7.140
REMARK INTER:                  -7.884
REMARK INTRA:                   0.744
REMARK UNBOUND:                 0.778
REMARK  8 active torsions:
REMARK  status: ('A' for Active; 'I' for Inactive)
REMARK    1  A    between atoms: C_13  and  C_15 
REMARK    2  A    between atoms: C_14  and  C_16 
REMARK    3  A    between atoms: C_15  and  C_22 
REMARK    4  A    between atoms: C_16  and  C_23 
REMARK    5  A    between atoms: C_17  and  C_21 
REMARK    6  A    between atoms: C_18  and  C_24 
REMARK    7  A    between atoms: C_19  and  C_27 
REMARK    8  A    between atoms: C_20  and  C_30 
ROOT
HETATM    1  O   UNL     1      26.944  25.903   1.881  1.00  0.00    -0.304 OA
HETATM    2  O   UNL     1      31.457  25.738   0.134  1.00  0.00    -0.304 OA
HETATM    3  O   UNL     1      31.098  23.453   3.465  1.00  0.00    -0.304 OA
HETATM    4  O   UNL     1      28.622  24.360   0.561  1.00  0.00    -0.270 OA
HETATM    5  O   UNL     1      28.586  27.215   2.836  1.00  0.00    -0.263 OA
HETATM    6  O   UNL     1      28.521  23.309   3.698  1.00  0.00    -0.270 OA
HETATM    7  O   UNL     1      32.572  25.181  -1.801  1.00  0.00    -0.263 OA
HETATM    8  O   UNL     1      34.905  25.738   0.190  1.00  0.00    -0.270 OA
HETATM    9  O   UNL     1      33.265  24.073   3.954  1.00  0.00    -0.263 OA
HETATM   10  N   UNL     1      29.122  25.889  -1.111  1.00  0.00    -0.340 N 
HETATM   11  N   UNL     1      28.492  25.301   4.887  1.00  0.00    -0.340 N 
HETATM   12  N   UNL     1      33.869  23.950   1.240  1.00  0.00    -0.340 N 
HETATM   13  C   UNL     1      30.148  24.999  -1.704  1.00  0.00     0.190 C 
HETATM   14  C   UNL     1      27.246  25.722   4.217  1.00  0.00     0.190 C 
HETATM   15  C   UNL     1      27.299  26.355   0.559  1.00  0.00     0.227 C 
HETATM   16  C   UNL     1      32.653  23.266   1.729  1.00  0.00     0.190 C 
HETATM   17  C   UNL     1      30.583  23.940   4.723  1.00  0.00     0.227 C 
HETATM   18  C   UNL     1      32.628  26.119   0.864  1.00  0.00     0.227 C 
HETATM   19  C   UNL     1      28.406  25.446   0.012  1.00  0.00     0.250 C 
HETATM   20  C   UNL     1      27.689  26.386   2.921  1.00  0.00     0.283 C 
HETATM   21  C   UNL     1      29.105  24.132   4.411  1.00  0.00     0.250 C 
HETATM   22  C   UNL     1      31.537  25.348  -1.169  1.00  0.00     0.283 C 
HETATM   23  C   UNL     1      33.898  25.252   0.715  1.00  0.00     0.250 C 
HETATM   24  C   UNL     1      32.418  23.651   3.181  1.00  0.00     0.283 C 
HETATM   25  C   UNL     1      28.985  27.219  -1.713  1.00  0.00     0.153 C 
HETATM   26  C   UNL     1      29.089  26.182   5.894  1.00  0.00     0.153 C 
HETATM   27  C   UNL     1      35.132  23.214   1.307  1.00  0.00     0.153 C 
ENDROOT
BRANCH  15  28
HETATM   28  C   UNL     1      26.049  26.237  -0.303  1.00  0.00     0.016 C 
HETATM   29  C   UNL     1      25.205  25.040   0.132  1.00  0.00     0.012 C 
HETATM   30  C   UNL     1      25.226  27.523  -0.239  1.00  0.00     0.012 C 
ENDBRANCH  15  28
BRANCH  14  31
HETATM   31  C   UNL     1      26.340  26.666   4.996  1.00  0.00     0.014 C 
HETATM   32  C   UNL     1      25.354  27.341   4.040  1.00  0.00     0.012 C 
BRANCH  31  33
HETATM   33  C   UNL     1      25.571  25.947   6.118  1.00  0.00     0.002 C 
HETATM   34  C   UNL     1      26.011  26.355   7.517  1.00  0.00     0.005 C 
ENDBRANCH  31  33
ENDBRANCH  14  31
BRANCH  13  35
HETATM   35  C   UNL     1      30.125  24.980  -3.231  1.00  0.00     0.014 C 
HETATM   36  C   UNL     1      30.911  23.772  -3.747  1.00  0.00     0.012 C 
BRANCH  35  37
HETATM   37  C   UNL     1      28.694  24.948  -3.797  1.00  0.00     0.002 C 
HETATM   38  C   UNL     1      27.992  23.612  -3.604  1.00  0.00     0.005 C 
ENDBRANCH  35  37
ENDBRANCH  13  35
BRANCH  17  39
HETATM   39  C   UNL     1      30.773  22.896   5.808  1.00  0.00     0.016 C 
HETATM   40  C   UNL     1      29.572  21.955   5.862  1.00  0.00     0.012 C 
HETATM   41  C   UNL     1      30.993  23.564   7.163  1.00  0.00     0.012 C 
ENDBRANCH  17  39
BRANCH  18  42
HETATM   42  C   UNL     1      32.913  27.587   0.543  1.00  0.00     0.016 C 
HETATM   43  C   UNL     1      31.609  28.372   0.402  1.00  0.00     0.012 C 
HETATM   44  C   UNL     1      33.799  28.212   1.618  1.00  0.00     0.012 C 
ENDBRANCH  18  42
BRANCH  16  45
HETATM   45  C   UNL     1      32.663  21.746   1.585  1.00  0.00     0.010 C 
HETATM   46  C   UNL     1      32.292  21.335   0.161  1.00  0.00     0.012 C 
HETATM   47  C   UNL     1      31.711  21.101   2.592  1.00  0.00     0.012 C 
ENDBRANCH  16  45
TORSDOF 8
ENDMDL
MODEL 8
REMARK VINA RESULT:    -5.350      2.443      6.682
REMARK INTER + INTRA:          -7.074
REMARK INTER:                  -7.805
REMARK INTRA:                   0.731
REMARK UNBOUND:                 0.778
REMARK  8 active torsions:
REMARK  status: ('A' for Active; 'I' for Inactive)
REMARK    1  A    between atoms: C_13  and  C_15 
REMARK    2  A    between atoms: C_14  and  C_16 
REMARK    3  A    between atoms: C_15  and  C_22 
REMARK    4  A    between atoms: C_16  and  C_23 
REMARK    5  A    between atoms: C_17  and  C_21 
REMARK    6  A    between atoms: C_18  and  C_24 
REMARK    7  A    between atoms: C_19  and  C_27 
REMARK    8  A    between atoms: C_20  and  C_30 
ROOT
HETATM    1  O   UNL     1      38.237   6.576  -8.293  1.00  0.00    -0.304 OA
HETATM    2  O   UNL     1      34.366   9.483  -8.409  1.00  0.00    -0.304 OA
HETATM    3  O   UNL     1      33.318   5.699  -7.398  1.00  0.00    -0.304 OA
HETATM    4  O   UNL     1      36.531   7.852  -6.744  1.00  0.00    -0.270 OA
HETATM    5  O   UNL     1      36.860   6.570 -10.146  1.00  0.00    -0.263 OA
HETATM    6  O   UNL     1      35.631   4.668  -6.847  1.00  0.00    -0.270 OA
HETATM    7  O   UNL     1      33.599  11.426  -7.442  1.00  0.00    -0.263 OA
HETATM    8  O   UNL     1      31.135  10.473  -9.096  1.00  0.00    -0.270 OA
HETATM    9  O   UNL     1      31.360   6.081  -8.556  1.00  0.00    -0.263 OA
HETATM   10  N   UNL     1      36.865   9.955  -7.664  1.00  0.00    -0.340 N 
HETATM   11  N   UNL     1      35.953   4.135  -9.083  1.00  0.00    -0.340 N 
HETATM   12  N   UNL     1      31.366   8.701  -7.618  1.00  0.00    -0.340 N 
HETATM   13  C   UNL     1      35.790  10.555  -6.840  1.00  0.00     0.190 C 
HETATM   14  C   UNL     1      37.384   4.488  -8.996  1.00  0.00     0.190 C 
HETATM   15  C   UNL     1      38.327   8.015  -8.319  1.00  0.00     0.227 C 
HETATM   16  C   UNL     1      32.200   7.697  -6.925  1.00  0.00     0.190 C 
HETATM   17  C   UNL     1      33.655   4.534  -8.182  1.00  0.00     0.227 C 
HETATM   18  C   UNL     1      33.218   9.279  -9.238  1.00  0.00     0.227 C 
HETATM   19  C   UNL     1      37.160   8.592  -7.509  1.00  0.00     0.250 C 
HETATM   20  C   UNL     1      37.445   5.989  -9.241  1.00  0.00     0.283 C 
HETATM   21  C   UNL     1      35.159   4.426  -7.964  1.00  0.00     0.250 C 
HETATM   22  C   UNL     1      34.472  10.585  -7.615  1.00  0.00     0.283 C 
HETATM   23  C   UNL     1      31.822   9.554  -8.637  1.00  0.00     0.250 C 
HETATM   24  C   UNL     1      32.204   6.411  -7.737  1.00  0.00     0.283 C 
HETATM   25  C   UNL     1      37.501  10.836  -8.650  1.00  0.00     0.153 C 
HETATM   26  C   UNL     1      35.419   3.646 -10.356  1.00  0.00     0.153 C 
HETATM   27  C   UNL     1      29.965   8.815  -7.211  1.00  0.00     0.153 C 
ENDROOT
BRANCH  15  28
HETATM   28  C   UNL     1      39.652   8.390  -7.670  1.00  0.00     0.016 C 
HETATM   29  C   UNL     1      40.058   7.346  -6.630  1.00  0.00     0.012 C 
HETATM   30  C   UNL     1      40.745   8.546  -8.726  1.00  0.00     0.012 C 
ENDBRANCH  15  28
BRANCH  14  31
HETATM   31  C   UNL     1      38.321   3.770  -9.957  1.00  0.00     0.014 C 
HETATM   32  C   UNL     1      39.594   4.598 -10.153  1.00  0.00     0.012 C 
BRANCH  31  33
HETATM   33  C   UNL     1      38.688   2.357  -9.472  1.00  0.00     0.002 C 
HETATM   34  C   UNL     1      38.843   2.253  -7.960  1.00  0.00     0.005 C 
ENDBRANCH  31  33
ENDBRANCH  14  31
BRANCH  13  35
HETATM   35  C   UNL     1      36.146  11.935  -6.288  1.00  0.00     0.014 C 
HETATM   36  C   UNL     1      34.902  12.586  -5.676  1.00  0.00     0.012 C 
BRANCH  35  37
HETATM   37  C   UNL     1      37.271  11.875  -5.239  1.00  0.00     0.002 C 
HETATM   38  C   UNL     1      37.218  10.635  -4.360  1.00  0.00     0.005 C 
ENDBRANCH  35  37
ENDBRANCH  13  35
BRANCH  17  39
HETATM   39  C   UNL     1      32.943   3.310  -7.637  1.00  0.00     0.016 C 
HETATM   40  C   UNL     1      33.577   2.862  -6.322  1.00  0.00     0.012 C 
HETATM   41  C   UNL     1      32.968   2.175  -8.659  1.00  0.00     0.012 C 
ENDBRANCH  17  39
BRANCH  18  42
HETATM   42  C   UNL     1      33.436  10.069 -10.529  1.00  0.00     0.016 C 
HETATM   43  C   UNL     1      34.913  10.068 -10.920  1.00  0.00     0.012 C 
HETATM   44  C   UNL     1      32.583   9.500 -11.661  1.00  0.00     0.012 C 
ENDBRANCH  18  42
BRANCH  16  45
HETATM   45  C   UNL     1      31.795   7.404  -5.482  1.00  0.00     0.010 C 
HETATM   46  C   UNL     1      32.875   7.879  -4.511  1.00  0.00     0.012 C 
HETATM   47  C   UNL     1      31.522   5.913  -5.289  1.00  0.00     0.012 C 
ENDBRANCH  16  45
TORSDOF 8
ENDMDL
MODEL 9
REMARK VINA RESULT:    -5.343     17.297     21.211
REMARK INTER + INTRA:          -7.064
REMARK INTER:                  -7.300
REMARK INTRA:                   0.236
REMARK UNBOUND:                 0.778
REMARK  8 active torsions:
REMARK  status: ('A' for Active; 'I' for Inactive)
REMARK    1  A    between atoms: C_13  and  C_15 
REMARK    2  A    between atoms: C_14  and  C_16 
REMARK    3  A    between atoms: C_15  and  C_22 
REMARK    4  A    between atoms: C_16  and  C_23 
REMARK    5  A    between atoms: C_17  and  C_21 
REMARK    6  A    between atoms: C_18  and  C_24 
REMARK    7  A    between atoms: C_19  and  C_27 
REMARK    8  A    between atoms: C_20  and  C_30 
ROOT
HETATM    1  O   UNL     1      28.477  26.020  -0.115  1.00  0.00    -0.304 OA
HETATM    2  O   UNL     1      26.246  24.923  -4.270  1.00  0.00    -0.304 OA
HETATM    3  O   UNL     1      30.186  23.978  -4.436  1.00  0.00    -0.304 OA
HETATM    4  O   UNL     1      27.557  23.994  -1.525  1.00  0.00    -0.270 OA
HETATM    5  O   UNL     1      28.643  27.457  -1.913  1.00  0.00    -0.263 OA
HETATM    6  O   UNL     1      30.840  24.114  -1.932  1.00  0.00    -0.270 OA
HETATM    7  O   UNL     1      24.493  23.644  -5.037  1.00  0.00    -0.263 OA
HETATM    8  O   UNL     1      25.778  24.688  -7.678  1.00  0.00    -0.270 OA
HETATM    9  O   UNL     1      30.089  24.567  -6.664  1.00  0.00    -0.263 OA
HETATM   10  N   UNL     1      25.396  24.802  -1.763  1.00  0.00    -0.340 N 
HETATM   11  N   UNL     1      31.231  26.393  -2.133  1.00  0.00    -0.340 N 
HETATM   12  N   UNL     1      27.540  23.460  -6.805  1.00  0.00    -0.340 N 
HETATM   13  C   UNL     1      25.012  23.687  -2.661  1.00  0.00     0.190 C 
HETATM   14  C   UNL     1      30.650  26.644  -0.800  1.00  0.00     0.190 C 
HETATM   15  C   UNL     1      27.044  25.955  -0.251  1.00  0.00     0.227 C 
HETATM   16  C   UNL     1      28.418  23.082  -5.677  1.00  0.00     0.190 C 
HETATM   17  C   UNL     1      31.249  24.910  -4.146  1.00  0.00     0.227 C 
HETATM   18  C   UNL     1      26.607  25.447  -5.552  1.00  0.00     0.227 C 
HETATM   19  C   UNL     1      26.696  24.833  -1.237  1.00  0.00     0.250 C 
HETATM   20  C   UNL     1      29.151  26.779  -1.030  1.00  0.00     0.283 C 
HETATM   21  C   UNL     1      31.116  25.090  -2.640  1.00  0.00     0.250 C 
HETATM   22  C   UNL     1      25.172  24.098  -4.125  1.00  0.00     0.283 C 
HETATM   23  C   UNL     1      26.588  24.492  -6.766  1.00  0.00     0.250 C 
HETATM   24  C   UNL     1      29.655  23.966  -5.693  1.00  0.00     0.283 C 
HETATM   25  C   UNL     1      24.387  25.844  -1.547  1.00  0.00     0.153 C 
HETATM   26  C   UNL     1      31.755  27.523  -2.904  1.00  0.00     0.153 C 
HETATM   27  C   UNL     1      27.675  22.703  -8.049  1.00  0.00     0.153 C 
ENDROOT
BRANCH  15  28
HETATM   28  C   UNL     1      26.479  25.636   1.127  1.00  0.00     0.016 C 
HETATM   29  C   UNL     1      27.577  25.118   2.053  1.00  0.00     0.012 C 
HETATM   30  C   UNL     1      25.805  26.867   1.732  1.00  0.00     0.012 C 
ENDBRANCH  15  28
BRANCH  14  31
HETATM   31  C   UNL     1      31.168  27.865  -0.051  1.00  0.00     0.014 C 
HETATM   32  C   UNL     1      30.140  28.305   0.994  1.00  0.00     0.012 C 
BRANCH  31  33
HETATM   33  C   UNL     1      32.524  27.603   0.628  1.00  0.00     0.002 C 
HETATM   34  C   UNL     1      32.666  26.192   1.181  1.00  0.00     0.005 C 
ENDBRANCH  31  33
ENDBRANCH  14  31
BRANCH  13  35
HETATM   35  C   UNL     1      23.613  23.138  -2.383  1.00  0.00     0.014 C 
HETATM   36  C   UNL     1      23.479  21.734  -2.980  1.00  0.00     0.012 C 
BRANCH  35  37
HETATM   37  C   UNL     1      23.286  23.097  -0.880  1.00  0.00     0.002 C 
HETATM   38  C   UNL     1      21.935  22.472  -0.567  1.00  0.00     0.005 C 
ENDBRANCH  35  37
ENDBRANCH  13  35
BRANCH  17  39
HETATM   39  C   UNL     1      32.593  24.299  -4.498  1.00  0.00     0.016 C 
HETATM   40  C   UNL     1      33.464  24.164  -3.252  1.00  0.00     0.012 C 
HETATM   41  C   UNL     1      33.302  25.137  -5.560  1.00  0.00     0.012 C 
ENDBRANCH  17  39
BRANCH  18  42
HETATM   42  C   UNL     1      25.745  26.685  -5.802  1.00  0.00     0.016 C 
HETATM   43  C   UNL     1      25.520  27.459  -4.503  1.00  0.00     0.012 C 
HETATM   44  C   UNL     1      26.386  27.586  -6.856  1.00  0.00     0.012 C 
ENDBRANCH  18  42
BRANCH  16  45
HETATM   45  C   UNL     1      28.826  21.611  -5.639  1.00  0.00     0.010 C 
HETATM   46  C   UNL     1      28.528  21.002  -4.270  1.00  0.00     0.012 C 
HETATM   47  C   UNL     1      30.306  21.451  -5.984  1.00  0.00     0.012 C 
ENDBRANCH  16  45
TORSDOF 8
ENDMDL
MODEL 10
REMARK VINA RESULT:    -5.334      3.290      6.513
REMARK INTER + INTRA:          -7.051
REMARK INTER:                  -7.576
REMARK INTRA:                   0.524
REMARK UNBOUND:                 0.778
REMARK  8 active torsions:
REMARK  status: ('A' for Active; 'I' for Inactive)
REMARK    1  A    between atoms: C_13  and  C_15 
REMARK    2  A    between atoms: C_14  and  C_16 
REMARK    3  A    between atoms: C_15  and  C_22 
REMARK    4  A    between atoms: C_16  and  C_23 
REMARK    5  A    between atoms: C_17  and  C_21 
REMARK    6  A    between atoms: C_18  and  C_24 
REMARK    7  A    between atoms: C_19  and  C_27 
REMARK    8  A    between atoms: C_20  and  C_30 
ROOT
HETATM    1  O   UNL     1      37.000  12.483  -8.497  1.00  0.00    -0.304 OA
HETATM    2  O   UNL     1      35.345   8.355 -10.413  1.00  0.00    -0.304 OA
HETATM    3  O   UNL     1      33.310   9.317  -7.040  1.00  0.00    -0.304 OA
HETATM    4  O   UNL     1      34.987  11.467  -9.859  1.00  0.00    -0.270 OA
HETATM    5  O   UNL     1      37.692  10.461  -7.624  1.00  0.00    -0.263 OA
HETATM    6  O   UNL     1      34.030  11.784  -6.707  1.00  0.00    -0.270 OA
HETATM    7  O   UNL     1      34.449   7.569 -12.381  1.00  0.00    -0.263 OA
HETATM    8  O   UNL     1      34.200   5.104 -10.490  1.00  0.00    -0.270 OA
HETATM    9  O   UNL     1      33.174   7.048  -6.643  1.00  0.00    -0.263 OA
HETATM   10  N   UNL     1      36.263  10.557 -11.569  1.00  0.00    -0.340 N 
HETATM   11  N   UNL     1      35.918  11.102  -5.544  1.00  0.00    -0.340 N 
HETATM   12  N   UNL     1      32.857   6.631  -9.376  1.00  0.00    -0.340 N 
HETATM   13  C   UNL     1      35.083   9.909 -12.189  1.00  0.00     0.190 C 
HETATM   14  C   UNL     1      36.729  12.163  -6.171  1.00  0.00     0.190 C 
HETATM   15  C   UNL     1      37.309  12.052  -9.837  1.00  0.00     0.227 C 
HETATM   16  C   UNL     1      32.617   7.984  -8.832  1.00  0.00     0.190 C 
HETATM   17  C   UNL     1      33.940   9.589  -5.770  1.00  0.00     0.227 C 
HETATM   18  C   UNL     1      35.316   7.096  -9.734  1.00  0.00     0.227 C 
HETATM   19  C   UNL     1      36.084  11.333 -10.414  1.00  0.00     0.250 C 
HETATM   20  C   UNL     1      37.208  11.578  -7.493  1.00  0.00     0.283 C 
HETATM   21  C   UNL     1      34.613  10.931  -6.027  1.00  0.00     0.250 C 
HETATM   22  C   UNL     1      34.951   8.463 -11.712  1.00  0.00     0.283 C 
HETATM   23  C   UNL     1      34.076   6.193  -9.919  1.00  0.00     0.250 C 
HETATM   24  C   UNL     1      33.058   8.018  -7.377  1.00  0.00     0.283 C 
HETATM   25  C   UNL     1      37.564  10.269 -12.183  1.00  0.00     0.153 C 
HETATM   26  C   UNL     1      36.551  10.205  -4.574  1.00  0.00     0.153 C 
HETATM   27  C   UNL     1      31.744   5.682  -9.347  1.00  0.00     0.153 C 
ENDROOT
BRANCH  15  28
HETATM   28  C   UNL     1      37.613  13.304 -10.649  1.00  0.00     0.016 C 
HETATM   29  C   UNL     1      37.046  14.544  -9.960  1.00  0.00     0.012 C 
HETATM   30  C   UNL     1      39.118  13.454 -10.866  1.00  0.00     0.012 C 
ENDBRANCH  15  28
BRANCH  14  31
HETATM   31  C   UNL     1      37.921  12.671  -5.371  1.00  0.00     0.014 C 
HETATM   32  C   UNL     1      38.928  13.339  -6.312  1.00  0.00     0.012 C 
BRANCH  31  33
HETATM   33  C   UNL     1      37.505  13.658  -4.266  1.00  0.00     0.002 C 
HETATM   34  C   UNL     1      36.332  14.548  -4.653  1.00  0.00     0.005 C 
ENDBRANCH  31  33
ENDBRANCH  14  31
BRANCH  13  35
HETATM   35  C   UNL     1      35.072   9.999 -13.714  1.00  0.00     0.014 C 
HETATM   36  C   UNL     1      33.642   9.831 -14.234  1.00  0.00     0.012 C 
BRANCH  35  37
HETATM   37  C   UNL     1      35.660  11.326 -14.228  1.00  0.00     0.002 C 
HETATM   38  C   UNL     1      34.875  11.933 -15.382  1.00  0.00     0.005 C 
ENDBRANCH  35  37
ENDBRANCH  13  35
BRANCH  17  39
HETATM   39  C   UNL     1      32.892   9.713  -4.679  1.00  0.00     0.016 C 
HETATM   40  C   UNL     1      32.855   8.448  -3.825  1.00  0.00     0.012 C 
HETATM   41  C   UNL     1      31.518   9.993  -5.284  1.00  0.00     0.012 C 
ENDBRANCH  17  39
BRANCH  18  42
HETATM   42  C   UNL     1      36.606   6.353 -10.085  1.00  0.00     0.016 C 
HETATM   43  C   UNL     1      37.777   7.329 -10.199  1.00  0.00     0.012 C 
HETATM   44  C   UNL     1      36.907   5.274  -9.047  1.00  0.00     0.012 C 
ENDBRANCH  18  42
BRANCH  16  45
HETATM   45  C   UNL     1      31.179   8.485  -8.955  1.00  0.00     0.010 C 
HETATM   46  C   UNL     1      31.153   9.981  -9.263  1.00  0.00     0.012 C 
HETATM   47  C   UNL     1      30.392   8.189  -7.679  1.00  0.00     0.012 C 
ENDBRANCH  16  45
TORSDOF 8
ENDMDL
MODEL 11
REMARK VINA RESULT:    -5.238      2.380      5.803
REMARK INTER + INTRA:          -6.911
REMARK INTER:                  -7.219
REMARK INTRA:                   0.308
REMARK UNBOUND:                 0.778
REMARK  8 active torsions:
REMARK  status: ('A' for Active; 'I' for Inactive)
REMARK    1  A    between atoms: C_13  and  C_15 
REMARK    2  A    between atoms: C_14  and  C_16 
REMARK    3  A    between atoms: C_15  and  C_22 
REMARK    4  A    between atoms: C_16  and  C_23 
REMARK    5  A    between atoms: C_17  and  C_21 
REMARK    6  A    between atoms: C_18  and  C_24 
REMARK    7  A    between atoms: C_19  and  C_27 
REMARK    8  A    between atoms: C_20  and  C_30 
ROOT
HETATM    1  O   UNL     1      37.455   8.103  -6.693  1.00  0.00    -0.304 OA
HETATM    2  O   UNL     1      33.801   6.687  -9.539  1.00  0.00    -0.304 OA
HETATM    3  O   UNL     1      36.465   3.681  -8.981  1.00  0.00    -0.304 OA
HETATM    4  O   UNL     1      35.261   6.645  -6.712  1.00  0.00    -0.270 OA
HETATM    5  O   UNL     1      37.740   8.066  -8.983  1.00  0.00    -0.263 OA
HETATM    6  O   UNL     1      37.847   4.599  -6.990  1.00  0.00    -0.270 OA
HETATM    7  O   UNL     1      31.507   6.515  -9.495  1.00  0.00    -0.263 OA
HETATM    8  O   UNL     1      32.237   5.158 -12.204  1.00  0.00    -0.270 OA
HETATM    9  O   UNL     1      35.982   3.040 -11.144  1.00  0.00    -0.263 OA
HETATM   10  N   UNL     1      33.840   8.323  -7.453  1.00  0.00    -0.340 N 
HETATM   11  N   UNL     1      39.234   5.750  -8.452  1.00  0.00    -0.340 N 
HETATM   12  N   UNL     1      33.325   3.750 -10.717  1.00  0.00    -0.340 N 
HETATM   13  C   UNL     1      32.693   7.390  -7.560  1.00  0.00     0.190 C 
HETATM   14  C   UNL     1      39.308   6.900  -7.530  1.00  0.00     0.190 C 
HETATM   15  C   UNL     1      36.220   8.836  -6.821  1.00  0.00     0.227 C 
HETATM   16  C   UNL     1      34.201   3.537  -9.545  1.00  0.00     0.190 C 
HETATM   17  C   UNL     1      37.880   3.802  -9.241  1.00  0.00     0.227 C 
HETATM   18  C   UNL     1      33.952   6.194 -10.874  1.00  0.00     0.227 C 
HETATM   19  C   UNL     1      35.072   7.834  -6.993  1.00  0.00     0.250 C 
HETATM   20  C   UNL     1      38.091   7.756  -7.853  1.00  0.00     0.283 C 
HETATM   21  C   UNL     1      38.334   4.727  -8.119  1.00  0.00     0.250 C 
HETATM   22  C   UNL     1      32.568   6.853  -8.986  1.00  0.00     0.283 C 
HETATM   23  C   UNL     1      33.081   4.997 -11.315  1.00  0.00     0.250 C 
HETATM   24  C   UNL     1      35.636   3.376 -10.021  1.00  0.00     0.283 C 
HETATM   25  C   UNL     1      33.610   9.695  -7.916  1.00  0.00     0.153 C 
HETATM   26  C   UNL     1      39.979   5.802  -9.712  1.00  0.00     0.153 C 
HETATM   27  C   UNL     1      32.667   2.577 -11.292  1.00  0.00     0.153 C 
ENDROOT
BRANCH  15  28
HETATM   28  C   UNL     1      36.037   9.628  -5.534  1.00  0.00     0.016 C 
HETATM   29  C   UNL     1      37.221   9.411  -4.594  1.00  0.00     0.012 C 
HETATM   30  C   UNL     1      35.859  11.115  -5.836  1.00  0.00     0.012 C 
ENDBRANCH  15  28
BRANCH  14  31
HETATM   31  C   UNL     1      40.569   7.751  -7.603  1.00  0.00     0.014 C 
HETATM   32  C   UNL     1      40.253   9.181  -7.161  1.00  0.00     0.012 C 
BRANCH  31  33
HETATM   33  C   UNL     1      41.711   7.179  -6.744  1.00  0.00     0.002 C 
HETATM   34  C   UNL     1      41.228   6.443  -5.501  1.00  0.00     0.005 C 
ENDBRANCH  31  33
ENDBRANCH  14  31
BRANCH  13  35
HETATM   35  C   UNL     1      31.376   7.989  -7.069  1.00  0.00     0.014 C 
HETATM   36  C   UNL     1      30.321   6.887  -6.938  1.00  0.00     0.012 C 
BRANCH  35  37
HETATM   37  C   UNL     1      31.529   8.724  -5.725  1.00  0.00     0.002 C 
HETATM   38  C   UNL     1      31.826   7.797  -4.555  1.00  0.00     0.005 C 
ENDBRANCH  35  37
ENDBRANCH  13  35
BRANCH  17  39
HETATM   39  C   UNL     1      38.553   2.446  -9.126  1.00  0.00     0.016 C 
HETATM   40  C   UNL     1      39.540   2.434  -7.961  1.00  0.00     0.012 C 
HETATM   41  C   UNL     1      39.259   2.084 -10.431  1.00  0.00     0.012 C 
ENDBRANCH  17  39
BRANCH  18  42
HETATM   42  C   UNL     1      33.793   7.382 -11.824  1.00  0.00     0.016 C 
HETATM   43  C   UNL     1      34.331   8.662 -11.184  1.00  0.00     0.012 C 
HETATM   44  C   UNL     1      34.498   7.110 -13.151  1.00  0.00     0.012 C 
ENDBRANCH  18  42
BRANCH  16  45
HETATM   45  C   UNL     1      33.810   2.361  -8.652  1.00  0.00     0.010 C 
HETATM   46  C   UNL     1      33.564   2.830  -7.218  1.00  0.00     0.012 C 
HETATM   47  C   UNL     1      34.888   1.278  -8.681  1.00  0.00     0.012 C 
ENDBRANCH  16  45
TORSDOF 8
ENDMDL
MODEL 12
REMARK VINA RESULT:    -5.042      2.375      6.753
REMARK INTER + INTRA:          -6.623
REMARK INTER:                  -8.589
REMARK INTRA:                   1.967
REMARK UNBOUND:                 0.778
REMARK  8 active torsions:
REMARK  status: ('A' for Active; 'I' for Inactive)
REMARK    1  A    between atoms: C_13  and  C_15 
REMARK    2  A    between atoms: C_14  and  C_16 
REMARK    3  A    between atoms: C_15  and  C_22 
REMARK    4  A    between atoms: C_16  and  C_23 
REMARK    5  A    between atoms: C_17  and  C_21 
REMARK    6  A    between atoms: C_18  and  C_24 
REMARK    7  A    between atoms: C_19  and  C_27 
REMARK    8  A    between atoms: C_20  and  C_30 
ROOT
HETATM    1  O   UNL     1      34.524   9.588  -6.596  1.00  0.00    -0.304 OA
HETATM    2  O   UNL     1      33.255   4.974  -7.338  1.00  0.00    -0.304 OA
HETATM    3  O   UNL     1      37.255   5.474  -7.771  1.00  0.00    -0.304 OA
HETATM    4  O   UNL     1      34.574   7.199  -5.486  1.00  0.00    -0.270 OA
HETATM    5  O   UNL     1      34.287   8.802  -8.753  1.00  0.00    -0.263 OA
HETATM    6  O   UNL     1      37.585   7.817  -6.714  1.00  0.00    -0.270 OA
HETATM    7  O   UNL     1      32.196   3.247  -6.246  1.00  0.00    -0.263 OA
HETATM    8  O   UNL     1      33.213   1.878  -8.855  1.00  0.00    -0.270 OA
HETATM    9  O   UNL     1      37.138   3.857  -9.412  1.00  0.00    -0.263 OA
HETATM   10  N   UNL     1      32.298   6.785  -5.656  1.00  0.00    -0.340 N 
HETATM   11  N   UNL     1      37.094   8.829  -8.744  1.00  0.00    -0.340 N 
HETATM   12  N   UNL     1      35.226   2.517  -7.898  1.00  0.00    -0.340 N 
HETATM   13  C   UNL     1      32.448   5.402  -5.146  1.00  0.00     0.190 C 
HETATM   14  C   UNL     1      36.347   9.905  -8.065  1.00  0.00     0.190 C 
HETATM   15  C   UNL     1      33.242   9.048  -6.219  1.00  0.00     0.227 C 
HETATM   16  C   UNL     1      36.078   3.526  -7.235  1.00  0.00     0.190 C 
HETATM   17  C   UNL     1      37.853   6.448  -8.653  1.00  0.00     0.227 C 
HETATM   18  C   UNL     1      33.500   4.246  -8.545  1.00  0.00     0.227 C 
HETATM   19  C   UNL     1      33.436   7.598  -5.760  1.00  0.00     0.250 C 
HETATM   20  C   UNL     1      34.936   9.363  -7.880  1.00  0.00     0.283 C 
HETATM   21  C   UNL     1      37.530   7.759  -7.948  1.00  0.00     0.250 C 
HETATM   22  C   UNL     1      32.567   4.412  -6.305  1.00  0.00     0.283 C 
HETATM   23  C   UNL     1      33.953   2.773  -8.433  1.00  0.00     0.250 C 
HETATM   24  C   UNL     1      36.882   4.268  -8.291  1.00  0.00     0.283 C 
HETATM   25  C   UNL     1      30.953   7.179  -6.089  1.00  0.00     0.153 C 
HETATM   26  C   UNL     1      37.213   8.859 -10.204  1.00  0.00     0.153 C 
HETATM   27  C   UNL     1      35.748   1.154  -8.003  1.00  0.00     0.153 C 
ENDROOT
BRANCH  15  28
HETATM   28  C   UNL     1      32.722   9.898  -5.066  1.00  0.00     0.016 C 
HETATM   29  C   UNL     1      33.321   9.433  -3.740  1.00  0.00     0.012 C 
HETATM   30  C   UNL     1      33.031  11.375  -5.304  1.00  0.00     0.012 C 
ENDBRANCH  15  28
BRANCH  14  31
HETATM   31  C   UNL     1      36.292  11.250  -8.778  1.00  0.00     0.014 C 
HETATM   32  C   UNL     1      35.007  11.987  -8.393  1.00  0.00     0.012 C 
BRANCH  31  33
HETATM   33  C   UNL     1      37.514  12.130  -8.461  1.00  0.00     0.002 C 
HETATM   34  C   UNL     1      38.425  12.361  -9.659  1.00  0.00     0.005 C 
ENDBRANCH  31  33
ENDBRANCH  14  31
BRANCH  13  35
HETATM   35  C   UNL     1      31.346   4.991  -4.171  1.00  0.00     0.014 C 
HETATM   36  C   UNL     1      30.697   3.686  -4.640  1.00  0.00     0.012 C 
BRANCH  35  37
HETATM   37  C   UNL     1      31.867   4.825  -2.732  1.00  0.00     0.002 C 
HETATM   38  C   UNL     1      32.152   6.145  -2.031  1.00  0.00     0.005 C 
ENDBRANCH  35  37
ENDBRANCH  13  35
BRANCH  17  39
HETATM   39  C   UNL     1      39.354   6.236  -8.730  1.00  0.00     0.016 C 
HETATM   40  C   UNL     1      40.097   7.432  -8.140  1.00  0.00     0.012 C 
HETATM   41  C   UNL     1      39.788   5.993 -10.174  1.00  0.00     0.012 C 
ENDBRANCH  17  39
BRANCH  18  42
HETATM   42  C   UNL     1      32.256   4.382  -9.425  1.00  0.00     0.016 C 
HETATM   43  C   UNL     1      31.639   5.772  -9.277  1.00  0.00     0.012 C 
HETATM   44  C   UNL     1      32.597   4.101 -10.888  1.00  0.00     0.012 C 
ENDBRANCH  18  42
BRANCH  16  45
HETATM   45  C   UNL     1      37.012   2.977  -6.157  1.00  0.00     0.010 C 
HETATM   46  C   UNL     1      38.108   2.114  -6.780  1.00  0.00     0.012 C 
HETATM   47  C   UNL     1      36.227   2.176  -5.118  1.00  0.00     0.012 C 
ENDBRANCH  16  45
TORSDOF 8
ENDMDL
MODEL 13
REMARK VINA RESULT:    -4.788      2.369      5.612
REMARK INTER + INTRA:          -6.249
REMARK INTER:                  -6.774
REMARK INTRA:                   0.526
REMARK UNBOUND:                 0.778
REMARK  8 active torsions:
REMARK  status: ('A' for Active; 'I' for Inactive)
REMARK    1  A    between atoms: C_13  and  C_15 
REMARK    2  A    between atoms: C_14  and  C_16 
REMARK    3  A    between atoms: C_15  and  C_22 
REMARK    4  A    between atoms: C_16  and  C_23 
REMARK    5  A    between atoms: C_17  and  C_21 
REMARK    6  A    between atoms: C_18  and  C_24 
REMARK    7  A    between atoms: C_19  and  C_27 
REMARK    8  A    between atoms: C_20  and  C_30 
ROOT
HETATM    1  O   UNL     1      35.186  10.686  -9.889  1.00  0.00    -0.304 OA
HETATM    2  O   UNL     1      36.568   6.052  -9.643  1.00  0.00    -0.304 OA
HETATM    3  O   UNL     1      33.455   6.780  -7.149  1.00  0.00    -0.304 OA
HETATM    4  O   UNL     1      34.496   8.254 -10.631  1.00  0.00    -0.270 OA
HETATM    5  O   UNL     1      36.542   9.990  -8.156  1.00  0.00    -0.263 OA
HETATM    6  O   UNL     1      32.648   9.085  -8.014  1.00  0.00    -0.270 OA
HETATM    7  O   UNL     1      36.831   4.223 -11.015  1.00  0.00    -0.263 OA
HETATM    8  O   UNL     1      37.369   3.031  -8.185  1.00  0.00    -0.270 OA
HETATM    9  O   UNL     1      34.415   5.237  -5.728  1.00  0.00    -0.263 OA
HETATM   10  N   UNL     1      36.491   7.730 -11.693  1.00  0.00    -0.340 N 
HETATM   11  N   UNL     1      34.182  10.163  -6.646  1.00  0.00    -0.340 N 
HETATM   12  N   UNL     1      35.172   3.730  -7.941  1.00  0.00    -0.340 N 
HETATM   13  C   UNL     1      36.062   6.335 -11.946  1.00  0.00     0.190 C 
HETATM   14  C   UNL     1      34.461  11.166  -7.692  1.00  0.00     0.190 C 
HETATM   15  C   UNL     1      36.047  10.063 -10.863  1.00  0.00     0.227 C 
HETATM   16  C   UNL     1      34.115   4.750  -8.104  1.00  0.00     0.190 C 
HETATM   17  C   UNL     1      33.451   7.824  -6.152  1.00  0.00     0.227 C 
HETATM   18  C   UNL     1      37.005   5.394  -8.450  1.00  0.00     0.227 C 
HETATM   19  C   UNL     1      35.607   8.606 -11.044  1.00  0.00     0.250 C 
HETATM   20  C   UNL     1      35.534  10.543  -8.575  1.00  0.00     0.283 C 
HETATM   21  C   UNL     1      33.364   9.082  -7.006  1.00  0.00     0.250 C 
HETATM   22  C   UNL     1      36.573   5.407 -10.843  1.00  0.00     0.283 C 
HETATM   23  C   UNL     1      36.536   3.943  -8.199  1.00  0.00     0.250 C 
HETATM   24  C   UNL     1      34.029   5.581  -6.834  1.00  0.00     0.283 C 
HETATM   25  C   UNL     1      37.863   8.073 -12.084  1.00  0.00     0.153 C 
HETATM   26  C   UNL     1      34.876  10.267  -5.360  1.00  0.00     0.153 C 
HETATM   27  C   UNL     1      34.765   2.402  -7.480  1.00  0.00     0.153 C 
ENDROOT
BRANCH  15  28
HETATM   28  C   UNL     1      35.873  10.830 -12.167  1.00  0.00     0.016 C 
HETATM   29  C   UNL     1      34.399  10.893 -12.563  1.00  0.00     0.012 C 
HETATM   30  C   UNL     1      36.455  12.238 -12.047  1.00  0.00     0.012 C 
ENDBRANCH  15  28
BRANCH  14  31
HETATM   31  C   UNL     1      34.919  12.537  -7.215  1.00  0.00     0.014 C 
HETATM   32  C   UNL     1      35.735  13.221  -8.315  1.00  0.00     0.012 C 
BRANCH  31  33
HETATM   33  C   UNL     1      33.741  13.437  -6.803  1.00  0.00     0.002 C 
HETATM   34  C   UNL     1      33.256  14.355  -7.917  1.00  0.00     0.005 C 
ENDBRANCH  31  33
ENDBRANCH  14  31
BRANCH  13  35
HETATM   35  C   UNL     1      36.449   5.822 -13.332  1.00  0.00     0.014 C 
HETATM   36  C   UNL     1      35.862   4.426 -13.552  1.00  0.00     0.012 C 
BRANCH  35  37
HETATM   37  C   UNL     1      35.985   6.765 -14.457  1.00  0.00     0.002 C 
HETATM   38  C   UNL     1      35.971   6.111 -15.832  1.00  0.00     0.005 C 
ENDBRANCH  35  37
ENDBRANCH  13  35
BRANCH  17  39
HETATM   39  C   UNL     1      32.229   7.693  -5.261  1.00  0.00     0.016 C 
HETATM   40  C   UNL     1      31.307   8.897  -5.435  1.00  0.00     0.012 C 
HETATM   41  C   UNL     1      32.645   7.543  -3.799  1.00  0.00     0.012 C 
ENDBRANCH  17  39
BRANCH  18  42
HETATM   42  C   UNL     1      38.529   5.506  -8.394  1.00  0.00     0.016 C 
HETATM   43  C   UNL     1      38.981   6.918  -8.763  1.00  0.00     0.012 C 
HETATM   44  C   UNL     1      39.048   5.123  -7.009  1.00  0.00     0.012 C 
ENDBRANCH  18  42
BRANCH  16  45
HETATM   45  C   UNL     1      32.736   4.201  -8.465  1.00  0.00     0.010 C 
HETATM   46  C   UNL     1      32.264   4.765  -9.805  1.00  0.00     0.012 C 
HETATM   47  C   UNL     1      31.723   4.518  -7.366  1.00  0.00     0.012 C 
ENDBRANCH  16  45
TORSDOF 8
ENDMDL
MODEL 14
REMARK VINA RESULT:    -4.757      3.313      8.860
REMARK INTER + INTRA:          -6.203
REMARK INTER:                  -6.835
REMARK INTRA:                   0.632
REMARK UNBOUND:                 0.778
REMARK  8 active torsions:
REMARK  status: ('A' for Active; 'I' for Inactive)
REMARK    1  A    between atoms: C_13  and  C_15 
REMARK    2  A    between atoms: C_14  and  C_16 
REMARK    3  A    between atoms: C_15  and  C_22 
REMARK    4  A    between atoms: C_16  and  C_23 
REMARK    5  A    between atoms: C_17  and  C_21 
REMARK    6  A    between atoms: C_18  and  C_24 
REMARK    7  A    between atoms: C_19  and  C_27 
REMARK    8  A    between atoms: C_20  and  C_30 
ROOT
HETATM    1  O   UNL     1      34.089   7.764 -10.667  1.00  0.00    -0.304 OA
HETATM    2  O   UNL     1      35.993   9.529  -6.579  1.00  0.00    -0.304 OA
HETATM    3  O   UNL     1      35.753  12.398  -9.433  1.00  0.00    -0.304 OA
HETATM    4  O   UNL     1      33.535   9.277  -8.583  1.00  0.00    -0.270 OA
HETATM    5  O   UNL     1      36.378   7.998 -10.482  1.00  0.00    -0.263 OA
HETATM    6  O   UNL     1      34.172  11.268 -11.149  1.00  0.00    -0.270 OA
HETATM    7  O   UNL     1      35.462   9.758  -4.351  1.00  0.00    -0.263 OA
HETATM    8  O   UNL     1      38.143  11.332  -4.576  1.00  0.00    -0.270 OA
HETATM    9  O   UNL     1      37.709  13.243  -8.550  1.00  0.00    -0.263 OA
HETATM   10  N   UNL     1      34.102   7.712  -6.967  1.00  0.00    -0.340 N 
HETATM   11  N   UNL     1      35.978  10.216 -12.156  1.00  0.00    -0.340 N 
HETATM   12  N   UNL     1      36.803  12.570  -6.006  1.00  0.00    -0.340 N 
HETATM   13  C   UNL     1      33.892   8.681  -5.866  1.00  0.00     0.190 C 
HETATM   14  C   UNL     1      35.189   8.986 -12.364  1.00  0.00     0.190 C 
HETATM   15  C   UNL     1      34.019   7.079  -9.401  1.00  0.00     0.227 C 
HETATM   16  C   UNL     1      35.823  12.654  -7.110  1.00  0.00     0.190 C 
HETATM   17  C   UNL     1      36.308  12.263 -10.759  1.00  0.00     0.227 C 
HETATM   18  C   UNL     1      37.285  10.134  -6.477  1.00  0.00     0.227 C 
HETATM   19  C   UNL     1      33.867   8.123  -8.288  1.00  0.00     0.250 C 
HETATM   20  C   UNL     1      35.322   8.196 -11.069  1.00  0.00     0.283 C 
HETATM   21  C   UNL     1      35.384  11.229 -11.390  1.00  0.00     0.250 C 
HETATM   22  C   UNL     1      35.213   9.347  -5.478  1.00  0.00     0.283 C 
HETATM   23  C   UNL     1      37.437  11.389  -5.589  1.00  0.00     0.250 C 
HETATM   24  C   UNL     1      36.570  12.818  -8.424  1.00  0.00     0.283 C 
HETATM   25  C   UNL     1      34.618   6.393  -6.587  1.00  0.00     0.153 C 
HETATM   26  C   UNL     1      37.365  10.257 -12.626  1.00  0.00     0.153 C 
HETATM   27  C   UNL     1      37.131  13.808  -5.298  1.00  0.00     0.153 C 
ENDROOT
BRANCH  15  28
HETATM   28  C   UNL     1      32.791   6.180  -9.448  1.00  0.00     0.016 C 
HETATM   29  C   UNL     1      31.526   6.979  -9.142  1.00  0.00     0.012 C 
HETATM   30  C   UNL     1      32.675   5.496 -10.809  1.00  0.00     0.012 C 
ENDBRANCH  15  28
BRANCH  14  31
HETATM   31  C   UNL     1      35.590   8.112 -13.544  1.00  0.00     0.014 C 
HETATM   32  C   UNL     1      35.180   6.662 -13.276  1.00  0.00     0.012 C 
BRANCH  31  33
HETATM   33  C   UNL     1      34.969   8.593 -14.867  1.00  0.00     0.002 C 
HETATM   34  C   UNL     1      35.234   7.660 -16.040  1.00  0.00     0.005 C 
ENDBRANCH  31  33
ENDBRANCH  14  31
BRANCH  13  35
HETATM   35  C   UNL     1      33.191   8.077  -4.650  1.00  0.00     0.014 C 
HETATM   36  C   UNL     1      33.005   9.148  -3.572  1.00  0.00     0.012 C 
BRANCH  35  37
HETATM   37  C   UNL     1      31.828   7.456  -5.007  1.00  0.00     0.002 C 
HETATM   38  C   UNL     1      30.866   8.436  -5.663  1.00  0.00     0.005 C 
ENDBRANCH  35  37
ENDBRANCH  13  35
BRANCH  17  39
HETATM   39  C   UNL     1      36.224  13.584 -11.501  1.00  0.00     0.016 C 
HETATM   40  C   UNL     1      35.586  13.388 -12.874  1.00  0.00     0.012 C 
HETATM   41  C   UNL     1      37.609  14.212 -11.638  1.00  0.00     0.012 C 
ENDBRANCH  17  39
BRANCH  18  42
HETATM   42  C   UNL     1      38.276   9.041  -6.075  1.00  0.00     0.016 C 
HETATM   43  C   UNL     1      38.095   7.799  -6.948  1.00  0.00     0.012 C 
HETATM   44  C   UNL     1      39.712   9.554  -6.165  1.00  0.00     0.012 C 
ENDBRANCH  18  42
BRANCH  16  45
HETATM   45  C   UNL     1      34.775  13.755  -6.963  1.00  0.00     0.010 C 
HETATM   46  C   UNL     1      33.366  13.163  -6.955  1.00  0.00     0.012 C 
HETATM   47  C   UNL     1      34.913  14.787  -8.082  1.00  0.00     0.012 C 
ENDBRANCH  16  45
TORSDOF 8
ENDMDL
MODEL 15
REMARK VINA RESULT:    -4.733     13.470     17.650
REMARK INTER + INTRA:          -6.168
REMARK INTER:                  -6.378
REMARK INTRA:                   0.210
REMARK UNBOUND:                 0.778
REMARK  8 active torsions:
REMARK  status: ('A' for Active; 'I' for Inactive)
REMARK    1  A    between atoms: C_13  and  C_15 
REMARK    2  A    between atoms: C_14  and  C_16 
REMARK    3  A    between atoms: C_15  and  C_22 
REMARK    4  A    between atoms: C_16  and  C_23 
REMARK    5  A    between atoms: C_17  and  C_21 
REMARK    6  A    between atoms: C_18  and  C_24 
REMARK    7  A    between atoms: C_19  and  C_27 
REMARK    8  A    between atoms: C_20  and  C_30 
ROOT
HETATM    1  O   UNL     1      36.506  18.729  -3.537  1.00  0.00    -0.304 OA
HETATM    2  O   UNL     1      34.524  22.261  -0.882  1.00  0.00    -0.304 OA
HETATM    3  O   UNL     1      37.633  20.538   1.070  1.00  0.00    -0.304 OA
HETATM    4  O   UNL     1      36.893  21.205  -2.724  1.00  0.00    -0.270 OA
HETATM    5  O   UNL     1      35.022  18.194  -1.853  1.00  0.00    -0.263 OA
HETATM    6  O   UNL     1      38.759  19.213  -0.852  1.00  0.00    -0.270 OA
HETATM    7  O   UNL     1      34.063  24.512  -1.018  1.00  0.00    -0.263 OA
HETATM    8  O   UNL     1      33.294  23.837   1.927  1.00  0.00    -0.270 OA
HETATM    9  O   UNL     1      36.439  20.910   3.008  1.00  0.00    -0.263 OA
HETATM   10  N   UNL     1      34.878  22.052  -3.501  1.00  0.00    -0.340 N 
HETATM   11  N   UNL     1      37.340  17.415  -0.475  1.00  0.00    -0.340 N 
HETATM   12  N   UNL     1      35.556  23.328   1.952  1.00  0.00    -0.340 N 
HETATM   13  C   UNL     1      35.128  23.378  -2.888  1.00  0.00     0.190 C 
HETATM   14  C   UNL     1      37.225  17.159  -1.924  1.00  0.00     0.190 C 
HETATM   15  C   UNL     1      35.599  19.711  -4.076  1.00  0.00     0.227 C 
HETATM   16  C   UNL     1      36.741  22.682   1.351  1.00  0.00     0.190 C 
HETATM   17  C   UNL     1      37.745  19.119   1.309  1.00  0.00     0.227 C 
HETATM   18  C   UNL     1      33.971  22.084   0.426  1.00  0.00     0.227 C 
HETATM   19  C   UNL     1      35.850  21.049  -3.369  1.00  0.00     0.250 C 
HETATM   20  C   UNL     1      36.105  18.071  -2.408  1.00  0.00     0.283 C 
HETATM   21  C   UNL     1      38.020  18.579  -0.089  1.00  0.00     0.250 C 
HETATM   22  C   UNL     1      34.469  23.467  -1.512  1.00  0.00     0.283 C 
HETATM   23  C   UNL     1      34.240  23.174   1.487  1.00  0.00     0.250 C 
HETATM   24  C   UNL     1      36.899  21.290   1.942  1.00  0.00     0.283 C 
HETATM   25  C   UNL     1      33.575  21.867  -4.148  1.00  0.00     0.153 C 
HETATM   26  C   UNL     1      36.630  16.539   0.459  1.00  0.00     0.153 C 
HETATM   27  C   UNL     1      35.772  24.192   3.113  1.00  0.00     0.153 C 
ENDROOT
BRANCH  15  28
HETATM   28  C   UNL     1      35.909  19.837  -5.562  1.00  0.00     0.016 C 
HETATM   29  C   UNL     1      37.307  19.301  -5.868  1.00  0.00     0.012 C 
HETATM   30  C   UNL     1      34.860  19.103  -6.395  1.00  0.00     0.012 C 
ENDBRANCH  15  28
BRANCH  14  31
HETATM   31  C   UNL     1      36.936  15.724  -2.341  1.00  0.00     0.014 C 
HETATM   32  C   UNL     1      36.286  15.708  -3.726  1.00  0.00     0.012 C 
BRANCH  31  33
HETATM   33  C   UNL     1      38.204  14.851  -2.350  1.00  0.00     0.002 C 
HETATM   34  C   UNL     1      38.168  13.714  -1.337  1.00  0.00     0.005 C 
ENDBRANCH  31  33
ENDBRANCH  14  31
BRANCH  13  35
HETATM   35  C   UNL     1      34.717  24.547  -3.783  1.00  0.00     0.014 C 
HETATM   36  C   UNL     1      35.326  25.847  -3.250  1.00  0.00     0.012 C 
BRANCH  35  37
HETATM   37  C   UNL     1      35.135  24.340  -5.249  1.00  0.00     0.002 C 
HETATM   38  C   UNL     1      36.641  24.377  -5.464  1.00  0.00     0.005 C 
ENDBRANCH  35  37
ENDBRANCH  13  35
BRANCH  17  39
HETATM   39  C   UNL     1      38.914  18.834   2.235  1.00  0.00     0.016 C 
HETATM   40  C   UNL     1      39.938  17.935   1.546  1.00  0.00     0.012 C 
HETATM   41  C   UNL     1      38.426  18.194   3.533  1.00  0.00     0.012 C 
ENDBRANCH  17  39
BRANCH  18  42
HETATM   42  C   UNL     1      32.473  21.821   0.261  1.00  0.00     0.016 C 
HETATM   43  C   UNL     1      32.218  20.866  -0.905  1.00  0.00     0.012 C 
HETATM   44  C   UNL     1      31.878  21.261   1.551  1.00  0.00     0.012 C 
ENDBRANCH  18  42
BRANCH  16  45
HETATM   45  C   UNL     1      38.046  23.462   1.494  1.00  0.00     0.010 C 
HETATM   46  C   UNL     1      38.711  23.657   0.132  1.00  0.00     0.012 C 
HETATM   47  C   UNL     1      38.998  22.753   2.456  1.00  0.00     0.012 C 
ENDBRANCH  16  45
TORSDOF 8
ENDMDL
MODEL 16
REMARK VINA RESULT:    -4.731      2.511      6.849
REMARK INTER + INTRA:          -6.165
REMARK INTER:                  -6.667
REMARK INTRA:                   0.502
REMARK UNBOUND:                 0.778
REMARK  8 active torsions:
REMARK  status: ('A' for Active; 'I' for Inactive)
REMARK    1  A    between atoms: C_13  and  C_15 
REMARK    2  A    between atoms: C_14  and  C_16 
REMARK    3  A    between atoms: C_15  and  C_22 
REMARK    4  A    between atoms: C_16  and  C_23 
REMARK    5  A    between atoms: C_17  and  C_21 
REMARK    6  A    between atoms: C_18  and  C_24 
REMARK    7  A    between atoms: C_19  and  C_27 
REMARK    8  A    between atoms: C_20  and  C_30 
ROOT
HETATM    1  O   UNL     1      36.977   4.822  -8.485  1.00  0.00    -0.304 OA
HETATM    2  O   UNL     1      36.189   9.558  -9.116  1.00  0.00    -0.304 OA
HETATM    3  O   UNL     1      33.222   7.864  -6.931  1.00  0.00    -0.304 OA
HETATM    4  O   UNL     1      37.065   7.143  -7.241  1.00  0.00    -0.270 OA
HETATM    5  O   UNL     1      35.508   5.527 -10.120  1.00  0.00    -0.263 OA
HETATM    6  O   UNL     1      34.295   5.589  -6.308  1.00  0.00    -0.270 OA
HETATM    7  O   UNL     1      37.214  11.578  -8.708  1.00  0.00    -0.263 OA
HETATM    8  O   UNL     1      34.414  12.440  -9.774  1.00  0.00    -0.270 OA
HETATM    9  O   UNL     1      31.799   9.353  -7.971  1.00  0.00    -0.263 OA
HETATM   10  N   UNL     1      38.444   8.208  -8.773  1.00  0.00    -0.340 N 
HETATM   11  N   UNL     1      33.551   4.664  -8.302  1.00  0.00    -0.340 N 
HETATM   12  N   UNL     1      33.802  11.281  -7.862  1.00  0.00    -0.340 N 
HETATM   13  C   UNL     1      38.321   9.508  -8.072  1.00  0.00     0.190 C 
HETATM   14  C   UNL     1      34.803   3.897  -8.452  1.00  0.00     0.190 C 
HETATM   15  C   UNL     1      37.989   5.739  -8.946  1.00  0.00     0.227 C 
HETATM   16  C   UNL     1      33.904  10.100  -6.979  1.00  0.00     0.190 C 
HETATM   17  C   UNL     1      32.467   6.710  -7.359  1.00  0.00     0.227 C 
HETATM   18  C   UNL     1      35.028  10.115  -9.740  1.00  0.00     0.227 C 
HETATM   19  C   UNL     1      37.784   7.087  -8.245  1.00  0.00     0.250 C 
HETATM   20  C   UNL     1      35.777   4.845  -9.140  1.00  0.00     0.283 C 
HETATM   21  C   UNL     1      33.499   5.595  -7.254  1.00  0.00     0.250 C 
HETATM   22  C   UNL     1      37.213  10.354  -8.700  1.00  0.00     0.283 C 
HETATM   23  C   UNL     1      34.406  11.389  -9.125  1.00  0.00     0.250 C 
HETATM   24  C   UNL     1      32.829   9.097  -7.366  1.00  0.00     0.283 C 
HETATM   25  C   UNL     1      39.200   8.211 -10.029  1.00  0.00     0.153 C 
HETATM   26  C   UNL     1      32.505   4.522  -9.318  1.00  0.00     0.153 C 
HETATM   27  C   UNL     1      33.016  12.418  -7.383  1.00  0.00     0.153 C 
ENDROOT
BRANCH  15  28
HETATM   28  C   UNL     1      39.337   5.146  -8.560  1.00  0.00     0.016 C 
HETATM   29  C   UNL     1      39.187   4.189  -7.379  1.00  0.00     0.012 C 
HETATM   30  C   UNL     1      39.973   4.430  -9.751  1.00  0.00     0.012 C 
ENDBRANCH  15  28
BRANCH  14  31
HETATM   31  C   UNL     1      34.713   2.595  -9.236  1.00  0.00     0.014 C 
HETATM   32  C   UNL     1      36.065   2.288  -9.886  1.00  0.00     0.012 C 
BRANCH  31  33
HETATM   33  C   UNL     1      34.277   1.411  -8.355  1.00  0.00     0.002 C 
HETATM   34  C   UNL     1      34.515   1.638  -6.868  1.00  0.00     0.005 C 
ENDBRANCH  31  33
ENDBRANCH  14  31
BRANCH  13  35
HETATM   35  C   UNL     1      39.637  10.280  -7.992  1.00  0.00     0.014 C 
HETATM   36  C   UNL     1      39.698  11.321  -9.113  1.00  0.00     0.012 C 
BRANCH  35  37
HETATM   37  C   UNL     1      39.830  10.971  -6.630  1.00  0.00     0.002 C 
HETATM   38  C   UNL     1      39.048  10.319  -5.500  1.00  0.00     0.005 C 
ENDBRANCH  35  37
ENDBRANCH  13  35
BRANCH  17  39
HETATM   39  C   UNL     1      31.308   6.461  -6.412  1.00  0.00     0.016 C 
HETATM   40  C   UNL     1      31.544   5.191  -5.598  1.00  0.00     0.012 C 
HETATM   41  C   UNL     1      29.994   6.367  -7.184  1.00  0.00     0.012 C 
ENDBRANCH  17  39
BRANCH  18  42
HETATM   42  C   UNL     1      35.350  10.310 -11.222  1.00  0.00     0.016 C 
HETATM   43  C   UNL     1      36.214   9.160 -11.743  1.00  0.00     0.012 C 
HETATM   44  C   UNL     1      34.068  10.429 -12.043  1.00  0.00     0.012 C 
ENDBRANCH  18  42
BRANCH  16  45
HETATM   45  C   UNL     1      33.824  10.402  -5.484  1.00  0.00     0.010 C 
HETATM   46  C   UNL     1      34.981   9.741  -4.736  1.00  0.00     0.012 C 
HETATM   47  C   UNL     1      32.485   9.940  -4.910  1.00  0.00     0.012 C 
ENDBRANCH  16  45
TORSDOF 8
ENDMDL
MODEL 17
REMARK VINA RESULT:    -4.556      5.132      8.835
REMARK INTER + INTRA:          -5.908
REMARK INTER:                  -6.333
REMARK INTRA:                   0.424
REMARK UNBOUND:                 0.778
REMARK  8 active torsions:
REMARK  status: ('A' for Active; 'I' for Inactive)
REMARK    1  A    between atoms: C_13  and  C_15 
REMARK    2  A    between atoms: C_14  and  C_16 
REMARK    3  A    between atoms: C_15  and  C_22 
REMARK    4  A    between atoms: C_16  and  C_23 
REMARK    5  A    between atoms: C_17  and  C_21 
REMARK    6  A    between atoms: C_18  and  C_24 
REMARK    7  A    between atoms: C_19  and  C_27 
REMARK    8  A    between atoms: C_20  and  C_30 
ROOT
HETATM    1  O   UNL     1      39.471   9.372  -5.158  1.00  0.00    -0.304 OA
HETATM    2  O   UNL     1      37.171  13.339  -6.714  1.00  0.00    -0.304 OA
HETATM    3  O   UNL     1      35.062   9.991  -7.597  1.00  0.00    -0.304 OA
HETATM    4  O   UNL     1      37.433  10.954  -4.625  1.00  0.00    -0.270 OA
HETATM    5  O   UNL     1      39.624   9.983  -7.379  1.00  0.00    -0.263 OA
HETATM    6  O   UNL     1      36.256   8.239  -6.106  1.00  0.00    -0.270 OA
HETATM    7  O   UNL     1      36.329  15.317  -5.891  1.00  0.00    -0.263 OA
HETATM    8  O   UNL     1      35.371  15.354  -8.857  1.00  0.00    -0.270 OA
HETATM    9  O   UNL     1      34.406  11.081  -9.521  1.00  0.00    -0.263 OA
HETATM   10  N   UNL     1      38.649  12.929  -4.552  1.00  0.00    -0.340 N 
HETATM   11  N   UNL     1      37.829   7.860  -7.769  1.00  0.00    -0.340 N 
HETATM   12  N   UNL     1      34.282  13.459  -8.082  1.00  0.00    -0.340 N 
HETATM   13  C   UNL     1      37.426  13.749  -4.389  1.00  0.00     0.190 C 
HETATM   14  C   UNL     1      38.907   7.737  -6.768  1.00  0.00     0.190 C 
HETATM   15  C   UNL     1      39.812  10.705  -4.730  1.00  0.00     0.227 C 
HETATM   16  C   UNL     1      34.283  12.180  -7.342  1.00  0.00     0.190 C 
HETATM   17  C   UNL     1      35.607   8.864  -8.318  1.00  0.00     0.227 C 
HETATM   18  C   UNL     1      36.806  13.589  -8.075  1.00  0.00     0.227 C 
HETATM   19  C   UNL     1      38.526  11.534  -4.636  1.00  0.00     0.250 C 
HETATM   20  C   UNL     1      39.379   9.161  -6.506  1.00  0.00     0.283 C 
HETATM   21  C   UNL     1      36.572   8.270  -7.301  1.00  0.00     0.250 C 
HETATM   22  C   UNL     1      36.941  14.267  -5.743  1.00  0.00     0.283 C 
HETATM   23  C   UNL     1      35.426  14.224  -8.358  1.00  0.00     0.250 C 
HETATM   24  C   UNL     1      34.574  11.046  -8.311  1.00  0.00     0.283 C 
HETATM   25  C   UNL     1      39.913  13.661  -4.689  1.00  0.00     0.153 C 
HETATM   26  C   UNL     1      38.156   7.693  -9.187  1.00  0.00     0.153 C 
HETATM   27  C   UNL     1      32.994  13.963  -8.560  1.00  0.00     0.153 C 
ENDROOT
BRANCH  15  28
HETATM   28  C   UNL     1      40.456  10.579  -3.355  1.00  0.00     0.016 C 
HETATM   29  C   UNL     1      40.179   9.203  -2.753  1.00  0.00     0.012 C 
HETATM   30  C   UNL     1      41.960  10.833  -3.439  1.00  0.00     0.012 C 
ENDBRANCH  15  28
BRANCH  14  31
HETATM   31  C   UNL     1      40.094   6.863  -7.150  1.00  0.00     0.014 C 
HETATM   32  C   UNL     1      41.286   7.186  -6.245  1.00  0.00     0.012 C 
BRANCH  31  33
HETATM   33  C   UNL     1      39.766   5.362  -7.065  1.00  0.00     0.002 C 
HETATM   34  C   UNL     1      40.479   4.645  -5.927  1.00  0.00     0.005 C 
ENDBRANCH  31  33
ENDBRANCH  14  31
BRANCH  13  35
HETATM   35  C   UNL     1      37.587  14.885  -3.380  1.00  0.00     0.014 C 
HETATM   36  C   UNL     1      36.300  15.712  -3.319  1.00  0.00     0.012 C 
BRANCH  35  37
HETATM   37  C   UNL     1      37.944  14.374  -1.972  1.00  0.00     0.002 C 
HETATM   38  C   UNL     1      39.109  15.116  -1.332  1.00  0.00     0.005 C 
ENDBRANCH  35  37
ENDBRANCH  13  35
BRANCH  17  39
HETATM   39  C   UNL     1      34.506   7.876  -8.656  1.00  0.00     0.016 C 
HETATM   40  C   UNL     1      34.744   6.545  -7.947  1.00  0.00     0.012 C 
HETATM   41  C   UNL     1      34.414   7.670 -10.166  1.00  0.00     0.012 C 
ENDBRANCH  17  39
BRANCH  18  42
HETATM   42  C   UNL     1      37.936  14.397  -8.714  1.00  0.00     0.016 C 
HETATM   43  C   UNL     1      39.294  13.948  -8.175  1.00  0.00     0.012 C 
HETATM   44  C   UNL     1      37.896  14.270 -10.236  1.00  0.00     0.012 C 
ENDBRANCH  18  42
BRANCH  16  45
HETATM   45  C   UNL     1      33.005  11.885  -6.559  1.00  0.00     0.010 C 
HETATM   46  C   UNL     1      33.317  11.660  -5.080  1.00  0.00     0.012 C 
HETATM   47  C   UNL     1      32.281  10.672  -7.142  1.00  0.00     0.012 C 
ENDBRANCH  16  45
TORSDOF 8
ENDMDL
MODEL 18
REMARK VINA RESULT:    -4.548      2.085      6.080
REMARK INTER + INTRA:          -5.897
REMARK INTER:                  -7.648
REMARK INTRA:                   1.751
REMARK UNBOUND:                 0.778
REMARK  8 active torsions:
REMARK  status: ('A' for Active; 'I' for Inactive)
REMARK    1  A    between atoms: C_13  and  C_15 
REMARK    2  A    between atoms: C_14  and  C_16 
REMARK    3  A    between atoms: C_15  and  C_22 
REMARK    4  A    between atoms: C_16  and  C_23 
REMARK    5  A    between atoms: C_17  and  C_21 
REMARK    6  A    between atoms: C_18  and  C_24 
REMARK    7  A    between atoms: C_19  and  C_27 
REMARK    8  A    between atoms: C_20  and  C_30 
ROOT
HETATM    1  O   UNL     1      37.299   4.340  -7.301  1.00  0.00    -0.304 OA
HETATM    2  O   UNL     1      35.117   7.873  -9.792  1.00  0.00    -0.304 OA
HETATM    3  O   UNL     1      32.770   6.564  -6.756  1.00  0.00    -0.304 OA
HETATM    4  O   UNL     1      36.655   6.891  -7.186  1.00  0.00    -0.270 OA
HETATM    5  O   UNL     1      35.715   3.804  -8.891  1.00  0.00    -0.263 OA
HETATM    6  O   UNL     1      34.474   5.204  -5.355  1.00  0.00    -0.270 OA
HETATM    7  O   UNL     1      35.470  10.061 -10.411  1.00  0.00    -0.263 OA
HETATM    8  O   UNL     1      32.561   9.538 -11.399  1.00  0.00    -0.270 OA
HETATM    9  O   UNL     1      30.979   6.973  -8.151  1.00  0.00    -0.263 OA
HETATM   10  N   UNL     1      37.670   7.507  -9.179  1.00  0.00    -0.340 N 
HETATM   11  N   UNL     1      34.082   3.325  -6.659  1.00  0.00    -0.340 N 
HETATM   12  N   UNL     1      32.297   9.225  -9.117  1.00  0.00    -0.340 N 
HETATM   13  C   UNL     1      37.145   8.890  -9.091  1.00  0.00     0.190 C 
HETATM   14  C   UNL     1      35.510   2.956  -6.617  1.00  0.00     0.190 C 
HETATM   15  C   UNL     1      37.992   5.200  -8.227  1.00  0.00     0.227 C 
HETATM   16  C   UNL     1      32.739   8.639  -7.834  1.00  0.00     0.190 C 
HETATM   17  C   UNL     1      32.410   5.181  -6.556  1.00  0.00     0.227 C 
HETATM   18  C   UNL     1      33.853   7.745 -10.450  1.00  0.00     0.227 C 
HETATM   19  C   UNL     1      37.374   6.601  -8.149  1.00  0.00     0.250 C 
HETATM   20  C   UNL     1      36.161   3.733  -7.754  1.00  0.00     0.283 C 
HETATM   21  C   UNL     1      33.730   4.567  -6.110  1.00  0.00     0.250 C 
HETATM   22  C   UNL     1      35.843   9.022  -9.881  1.00  0.00     0.283 C 
HETATM   23  C   UNL     1      32.862   8.927 -10.367  1.00  0.00     0.250 C 
HETATM   24  C   UNL     1      32.028   7.312  -7.624  1.00  0.00     0.283 C 
HETATM   25  C   UNL     1      38.412   7.166 -10.397  1.00  0.00     0.153 C 
HETATM   26  C   UNL     1      33.147   2.461  -7.384  1.00  0.00     0.153 C 
HETATM   27  C   UNL     1      31.194  10.185  -9.078  1.00  0.00     0.153 C 
ENDROOT
BRANCH  15  28
HETATM   28  C   UNL     1      39.450   5.244  -7.790  1.00  0.00     0.016 C 
HETATM   29  C   UNL     1      39.625   4.573  -6.429  1.00  0.00     0.012 C 
HETATM   30  C   UNL     1      40.346   4.580  -8.833  1.00  0.00     0.012 C 
ENDBRANCH  15  28
BRANCH  14  31
HETATM   31  C   UNL     1      35.835   1.475  -6.753  1.00  0.00     0.014 C 
HETATM   32  C   UNL     1      37.296   1.303  -7.177  1.00  0.00     0.012 C 
BRANCH  31  33
HETATM   33  C   UNL     1      35.574   0.697  -5.451  1.00  0.00     0.002 C 
HETATM   34  C   UNL     1      35.718   1.546  -4.195  1.00  0.00     0.005 C 
ENDBRANCH  31  33
ENDBRANCH  14  31
BRANCH  13  35
HETATM   35  C   UNL     1      38.162   9.952  -9.506  1.00  0.00     0.014 C 
HETATM   36  C   UNL     1      37.674  11.336  -9.068  1.00  0.00     0.012 C 
BRANCH  35  37
HETATM   37  C   UNL     1      39.561   9.686  -8.923  1.00  0.00     0.002 C 
HETATM   38  C   UNL     1      40.696  10.099  -9.848  1.00  0.00     0.005 C 
ENDBRANCH  35  37
ENDBRANCH  13  35
BRANCH  17  39
HETATM   39  C   UNL     1      31.365   5.062  -5.461  1.00  0.00     0.016 C 
HETATM   40  C   UNL     1      31.900   4.233  -4.297  1.00  0.00     0.012 C 
HETATM   41  C   UNL     1      30.079   4.449  -6.011  1.00  0.00     0.012 C 
ENDBRANCH  17  39
BRANCH  18  42
HETATM   42  C   UNL     1      34.127   7.345 -11.900  1.00  0.00     0.016 C 
HETATM   43  C   UNL     1      33.817   5.864 -12.120  1.00  0.00     0.012 C 
HETATM   44  C   UNL     1      33.313   8.210 -12.862  1.00  0.00     0.012 C 
ENDBRANCH  18  42
BRANCH  16  45
HETATM   45  C   UNL     1      32.544   9.535  -6.612  1.00  0.00     0.010 C 
HETATM   46  C   UNL     1      33.852   9.682  -5.835  1.00  0.00     0.012 C 
HETATM   47  C   UNL     1      31.444   8.984  -5.706  1.00  0.00     0.012 C 
ENDBRANCH  16  45
TORSDOF 8
ENDMDL
MODEL 19
REMARK VINA RESULT:    -4.525      2.717      7.212
REMARK INTER + INTRA:          -5.863
REMARK INTER:                  -6.831
REMARK INTRA:                   0.968
REMARK UNBOUND:                 0.778
REMARK  8 active torsions:
REMARK  status: ('A' for Active; 'I' for Inactive)
REMARK    1  A    between atoms: C_13  and  C_15 
REMARK    2  A    between atoms: C_14  and  C_16 
REMARK    3  A    between atoms: C_15  and  C_22 
REMARK    4  A    between atoms: C_16  and  C_23 
REMARK    5  A    between atoms: C_17  and  C_21 
REMARK    6  A    between atoms: C_18  and  C_24 
REMARK    7  A    between atoms: C_19  and  C_27 
REMARK    8  A    between atoms: C_20  and  C_30 
ROOT
HETATM    1  O   UNL     1      38.645   8.877  -8.724  1.00  0.00    -0.304 OA
HETATM    2  O   UNL     1      34.838   5.902  -9.048  1.00  0.00    -0.304 OA
HETATM    3  O   UNL     1      33.793   9.426  -7.338  1.00  0.00    -0.304 OA
HETATM    4  O   UNL     1      36.425   8.458 -10.080  1.00  0.00    -0.270 OA
HETATM    5  O   UNL     1      37.981   7.667  -6.874  1.00  0.00    -0.263 OA
HETATM    6  O   UNL     1      35.852  10.891  -7.911  1.00  0.00    -0.270 OA
HETATM    7  O   UNL     1      33.648   4.740 -10.640  1.00  0.00    -0.263 OA
HETATM    8  O   UNL     1      31.967   4.270  -8.057  1.00  0.00    -0.270 OA
HETATM    9  O   UNL     1      32.320   8.204  -6.051  1.00  0.00    -0.263 OA
HETATM   10  N   UNL     1      36.895   6.267 -10.680  1.00  0.00    -0.340 N 
HETATM   11  N   UNL     1      36.951  10.132  -6.013  1.00  0.00    -0.340 N 
HETATM   12  N   UNL     1      31.814   6.575  -8.249  1.00  0.00    -0.340 N 
HETATM   13  C   UNL     1      35.563   6.086 -11.302  1.00  0.00     0.190 C 
HETATM   14  C   UNL     1      38.237  10.085  -6.735  1.00  0.00     0.190 C 
HETATM   15  C   UNL     1      38.631   7.694  -9.549  1.00  0.00     0.227 C 
HETATM   16  C   UNL     1      32.436   7.897  -8.473  1.00  0.00     0.190 C 
HETATM   17  C   UNL     1      34.461   9.993  -6.191  1.00  0.00     0.227 C 
HETATM   18  C   UNL     1      34.057   5.453  -7.936  1.00  0.00     0.227 C 
HETATM   19  C   UNL     1      37.220   7.512 -10.119  1.00  0.00     0.250 C 
HETATM   20  C   UNL     1      38.267   8.725  -7.419  1.00  0.00     0.283 C 
HETATM   21  C   UNL     1      35.805  10.407  -6.774  1.00  0.00     0.250 C 
HETATM   22  C   UNL     1      34.587   5.453 -10.310  1.00  0.00     0.283 C 
HETATM   23  C   UNL     1      32.523   5.372  -8.104  1.00  0.00     0.250 C 
HETATM   24  C   UNL     1      32.810   8.502  -7.130  1.00  0.00     0.283 C 
HETATM   25  C   UNL     1      37.760   5.084 -10.633  1.00  0.00     0.153 C 
HETATM   26  C   UNL     1      36.917   9.754  -4.598  1.00  0.00     0.153 C 
HETATM   27  C   UNL     1      30.354   6.518  -8.177  1.00  0.00     0.153 C 
ENDROOT
BRANCH  15  28
HETATM   28  C   UNL     1      39.627   7.927 -10.677  1.00  0.00     0.016 C 
HETATM   29  C   UNL     1      39.851   9.421 -10.899  1.00  0.00     0.012 C 
HETATM   30  C   UNL     1      40.951   7.225 -10.381  1.00  0.00     0.012 C 
ENDBRANCH  15  28
BRANCH  14  31
HETATM   31  C   UNL     1      39.495  10.267  -5.897  1.00  0.00     0.014 C 
HETATM   32  C   UNL     1      40.701   9.688  -6.642  1.00  0.00     0.012 C 
BRANCH  31  33
HETATM   33  C   UNL     1      39.757  11.743  -5.548  1.00  0.00     0.002 C 
HETATM   34  C   UNL     1      39.841  12.009  -4.051  1.00  0.00     0.005 C 
ENDBRANCH  31  33
ENDBRANCH  14  31
BRANCH  13  35
HETATM   35  C   UNL     1      35.608   5.308 -12.617  1.00  0.00     0.014 C 
HETATM   36  C   UNL     1      36.411   6.094 -13.657  1.00  0.00     0.012 C 
BRANCH  35  37
HETATM   37  C   UNL     1      36.212   3.903 -12.447  1.00  0.00     0.002 C 
HETATM   38  C   UNL     1      35.377   2.800 -13.083  1.00  0.00     0.005 C 
ENDBRANCH  35  37
ENDBRANCH  13  35
BRANCH  17  39
HETATM   39  C   UNL     1      33.699  11.204  -5.684  1.00  0.00     0.016 C 
HETATM   40  C   UNL     1      32.673  10.791  -4.632  1.00  0.00     0.012 C 
HETATM   41  C   UNL     1      33.018  11.932  -6.841  1.00  0.00     0.012 C 
ENDBRANCH  17  39
BRANCH  18  42
HETATM   42  C   UNL     1      34.640   4.118  -7.473  1.00  0.00     0.016 C 
HETATM   43  C   UNL     1      36.154   4.086  -7.684  1.00  0.00     0.012 C 
HETATM   44  C   UNL     1      34.300   3.860  -6.007  1.00  0.00     0.012 C 
ENDBRANCH  18  42
BRANCH  16  45
HETATM   45  C   UNL     1      31.589   8.884  -9.274  1.00  0.00     0.010 C 
HETATM   46  C   UNL     1      32.473   9.754 -10.167  1.00  0.00     0.012 C 
HETATM   47  C   UNL     1      30.748   9.756  -8.343  1.00  0.00     0.012 C 
ENDBRANCH  16  45
TORSDOF 8
ENDMDL
MODEL 20
REMARK VINA RESULT:    -4.521     12.950     17.022
REMARK INTER + INTRA:          -5.857
REMARK INTER:                  -6.377
REMARK INTRA:                   0.520
REMARK UNBOUND:                 0.778
REMARK  8 active torsions:
REMARK  status: ('A' for Active; 'I' for Inactive)
REMARK    1  A    between atoms: C_13  and  C_15 
REMARK    2  A    between atoms: C_14  and  C_16 
REMARK    3  A    between atoms: C_15  and  C_22 
REMARK    4  A    between atoms: C_16  and  C_23 
REMARK    5  A    between atoms: C_17  and  C_21 
REMARK    6  A    between atoms: C_18  and  C_24 
REMARK    7  A    between atoms: C_19  and  C_27 
REMARK    8  A    between atoms: C_20  and  C_30 
ROOT
HETATM    1  O   UNL     1      39.756  14.911  -1.768  1.00  0.00    -0.304 OA
HETATM    2  O   UNL     1      41.425  18.723   0.709  1.00  0.00    -0.304 OA
HETATM    3  O   UNL     1      37.393  18.890   0.317  1.00  0.00    -0.304 OA
HETATM    4  O   UNL     1      39.927  15.916   0.661  1.00  0.00    -0.270 OA
HETATM    5  O   UNL     1      40.046  16.932  -2.843  1.00  0.00    -0.263 OA
HETATM    6  O   UNL     1      36.864  16.475  -0.461  1.00  0.00    -0.270 OA
HETATM    7  O   UNL     1      42.642  19.187   2.606  1.00  0.00    -0.263 OA
HETATM    8  O   UNL     1      41.730  22.018   1.674  1.00  0.00    -0.270 OA
HETATM    9  O   UNL     1      37.641  21.180   0.189  1.00  0.00    -0.263 OA
HETATM   10  N   UNL     1      42.230  16.197   0.665  1.00  0.00    -0.340 N 
HETATM   11  N   UNL     1      37.247  17.076  -2.669  1.00  0.00    -0.340 N 
HETATM   12  N   UNL     1      39.676  21.024   2.081  1.00  0.00    -0.340 N 
HETATM   13  C   UNL     1      42.207  16.877   1.982  1.00  0.00     0.190 C 
HETATM   14  C   UNL     1      37.901  15.782  -2.944  1.00  0.00     0.190 C 
HETATM   15  C   UNL     1      41.084  14.974  -1.211  1.00  0.00     0.227 C 
HETATM   16  C   UNL     1      38.743  19.886   1.946  1.00  0.00     0.190 C 
HETATM   17  C   UNL     1      36.704  18.807  -0.949  1.00  0.00     0.227 C 
HETATM   18  C   UNL     1      41.237  20.088   0.326  1.00  0.00     0.227 C 
HETATM   19  C   UNL     1      41.023  15.739   0.116  1.00  0.00     0.250 C 
HETATM   20  C   UNL     1      39.356  15.969  -2.535  1.00  0.00     0.283 C 
HETATM   21  C   UNL     1      36.915  17.349  -1.334  1.00  0.00     0.250 C 
HETATM   22  C   UNL     1      42.168  18.395   1.802  1.00  0.00     0.283 C 
HETATM   23  C   UNL     1      40.917  21.120   1.431  1.00  0.00     0.250 C 
HETATM   24  C   UNL     1      37.868  20.104   0.721  1.00  0.00     0.283 C 
HETATM   25  C   UNL     1      43.531  16.120  -0.008  1.00  0.00     0.153 C 
HETATM   26  C   UNL     1      37.115  18.049  -3.757  1.00  0.00     0.153 C 
HETATM   27  C   UNL     1      39.277  22.126   2.956  1.00  0.00     0.153 C 
ENDROOT
BRANCH  15  28
HETATM   28  C   UNL     1      41.535  13.540  -0.969  1.00  0.00     0.016 C 
HETATM   29  C   UNL     1      40.329  12.610  -0.844  1.00  0.00     0.012 C 
HETATM   30  C   UNL     1      42.460  13.068  -2.090  1.00  0.00     0.012 C 
ENDBRANCH  15  28
BRANCH  14  31
HETATM   31  C   UNL     1      37.830  15.274  -4.377  1.00  0.00     0.014 C 
HETATM   32  C   UNL     1      38.938  14.245  -4.616  1.00  0.00     0.012 C 
BRANCH  31  33
HETATM   33  C   UNL     1      36.462  14.655  -4.712  1.00  0.00     0.002 C 
HETATM   34  C   UNL     1      36.057  14.825  -6.170  1.00  0.00     0.005 C 
ENDBRANCH  31  33
ENDBRANCH  14  31
BRANCH  13  35
HETATM   35  C   UNL     1      43.349  16.451   2.904  1.00  0.00     0.014 C 
HETATM   36  C   UNL     1      44.455  17.510   2.882  1.00  0.00     0.012 C 
BRANCH  35  37
HETATM   37  C   UNL     1      42.880  16.220   4.351  1.00  0.00     0.002 C 
HETATM   38  C   UNL     1      41.377  16.016   4.479  1.00  0.00     0.005 C 
ENDBRANCH  35  37
ENDBRANCH  13  35
BRANCH  17  39
HETATM   39  C   UNL     1      35.227  19.106  -0.764  1.00  0.00     0.016 C 
HETATM   40  C   UNL     1      34.377  17.935  -1.251  1.00  0.00     0.012 C 
HETATM   41  C   UNL     1      34.843  20.390  -1.497  1.00  0.00     0.012 C 
ENDBRANCH  17  39
BRANCH  18  42
HETATM   42  C   UNL     1      42.456  20.509  -0.495  1.00  0.00     0.016 C 
HETATM   43  C   UNL     1      42.966  19.342  -1.341  1.00  0.00     0.012 C 
HETATM   44  C   UNL     1      42.123  21.707  -1.382  1.00  0.00     0.012 C 
ENDBRANCH  18  42
BRANCH  16  45
HETATM   45  C   UNL     1      37.870  19.616   3.170  1.00  0.00     0.010 C 
HETATM   46  C   UNL     1      38.089  18.194   3.687  1.00  0.00     0.012 C 
HETATM   47  C   UNL     1      36.395  19.845   2.845  1.00  0.00     0.012 C 
ENDBRANCH  16  45
TORSDOF 8
ENDMDL
