MODEL 1
REMARK VINA RESULT:    -6.601      0.000      0.000
REMARK INTER + INTRA:          -9.369
REMARK INTER:                  -9.688
REMARK INTRA:                   0.319
REMARK UNBOUND:                 0.319
REMARK  8 active torsions:
REMARK  status: ('A' for Active; 'I' for Inactive)
REMARK    1  A    between atoms: C_13  and  C_15 
REMARK    2  A    between atoms: C_14  and  C_16 
REMARK    3  A    between atoms: C_15  and  C_22 
REMARK    4  A    between atoms: C_16  and  C_23 
REMARK    5  A    between atoms: C_17  and  C_21 
REMARK    6  A    between atoms: C_18  and  C_24 
REMARK    7  A    between atoms: C_19  and  C_27 
REMARK    8  A    between atoms: C_20  and  C_30 
ROOT
HETATM    1  O   UNL     1       6.534  18.716  16.098  1.00  0.00    -0.304 OA
HETATM    2  O   UNL     1       4.532  21.211  12.463  1.00  0.00    -0.304 OA
HETATM    3  O   UNL     1       5.585  23.667  15.512  1.00  0.00    -0.304 OA
HETATM    4  O   UNL     1       7.113  20.339  14.106  1.00  0.00    -0.270 OA
HETATM    5  O   UNL     1       4.316  19.339  16.228  1.00  0.00    -0.263 OA
HETATM    6  O   UNL     1       7.121  22.111  16.902  1.00  0.00    -0.270 OA
HETATM    7  O   UNL     1       4.847  21.596  10.216  1.00  0.00    -0.263 OA
HETATM    8  O   UNL     1       2.525  23.553  10.922  1.00  0.00    -0.270 OA
HETATM    9  O   UNL     1       3.723  24.913  14.965  1.00  0.00    -0.263 OA
HETATM   10  N   UNL     1       6.106  19.078  12.440  1.00  0.00    -0.340 N 
HETATM   11  N   UNL     1       5.280  21.262  18.032  1.00  0.00    -0.340 N 
HETATM   12  N   UNL     1       4.211  24.388  12.276  1.00  0.00    -0.340 N 
HETATM   13  C   UNL     1       6.360  20.116  11.414  1.00  0.00     0.190 C 
HETATM   14  C   UNL     1       5.860  19.905  18.025  1.00  0.00     0.190 C 
HETATM   15  C   UNL     1       6.343  18.174  14.776  1.00  0.00     0.227 C 
HETATM   16  C   UNL     1       5.306  24.188  13.250  1.00  0.00     0.190 C 
HETATM   17  C   UNL     1       5.163  23.478  16.880  1.00  0.00     0.227 C 
HETATM   18  C   UNL     1       3.363  22.027  12.582  1.00  0.00     0.227 C 
HETATM   19  C   UNL     1       6.553  19.296  13.753  1.00  0.00     0.250 C 
HETATM   20  C   UNL     1       5.448  19.296  16.691  1.00  0.00     0.283 C 
HETATM   21  C   UNL     1       5.955  22.244  17.291  1.00  0.00     0.250 C 
HETATM   22  C   UNL     1       5.143  21.028  11.259  1.00  0.00     0.283 C 
HETATM   23  C   UNL     1       3.337  23.381  11.838  1.00  0.00     0.250 C 
HETATM   24  C   UNL     1       4.748  24.324  14.657  1.00  0.00     0.283 C 
HETATM   25  C   UNL     1       5.327  17.911  12.011  1.00  0.00     0.153 C 
HETATM   26  C   UNL     1       3.982  21.477  18.676  1.00  0.00     0.153 C 
HETATM   27  C   UNL     1       4.029  25.734  11.731  1.00  0.00     0.153 C 
ENDROOT
BRANCH  15  28
HETATM   28  C   UNL     1       7.392  17.086  14.585  1.00  0.00     0.016 C 
HETATM   29  C   UNL     1       8.793  17.635  14.851  1.00  0.00     0.012 C 
HETATM   30  C   UNL     1       7.103  15.892  15.493  1.00  0.00     0.012 C 
ENDBRANCH  15  28
BRANCH  14  31
HETATM   31  C   UNL     1       5.443  18.982  19.162  1.00  0.00     0.014 C 
HETATM   32  C   UNL     1       5.520  17.525  18.700  1.00  0.00     0.012 C 
BRANCH  31  33
HETATM   33  C   UNL     1       6.308  19.176  20.420  1.00  0.00     0.002 C 
HETATM   34  C   UNL     1       6.280  17.987  21.370  1.00  0.00     0.005 C 
ENDBRANCH  31  33
ENDBRANCH  14  31
BRANCH  13  35
HETATM   35  C   UNL     1       6.806  19.544  10.069  1.00  0.00     0.014 C 
HETATM   36  C   UNL     1       7.515  20.628   9.254  1.00  0.00     0.012 C 
BRANCH  35  37
HETATM   37  C   UNL     1       7.732  18.324  10.228  1.00  0.00     0.002 C 
HETATM   38  C   UNL     1       9.117  18.675  10.750  1.00  0.00     0.005 C 
ENDBRANCH  35  37
ENDBRANCH  13  35
BRANCH  17  39
HETATM   39  C   UNL     1       5.560  24.677  17.722  1.00  0.00     0.016 C 
HETATM   40  C   UNL     1       6.662  24.298  18.709  1.00  0.00     0.012 C 
HETATM   41  C   UNL     1       4.347  25.238  18.461  1.00  0.00     0.012 C 
ENDBRANCH  17  39
BRANCH  18  42
HETATM   42  C   UNL     1       2.158  21.162  12.211  1.00  0.00     0.016 C 
HETATM   43  C   UNL     1       2.342  19.732  12.719  1.00  0.00     0.012 C 
HETATM   44  C   UNL     1       0.869  21.765  12.767  1.00  0.00     0.012 C 
ENDBRANCH  18  42
BRANCH  16  45
HETATM   45  C   UNL     1       6.508  25.112  13.071  1.00  0.00     0.010 C 
HETATM   46  C   UNL     1       7.780  24.302  12.822  1.00  0.00     0.012 C 
HETATM   47  C   UNL     1       6.681  26.017  14.290  1.00  0.00     0.012 C 
ENDBRANCH  16  45
TORSDOF 8
ENDMDL
MODEL 2
REMARK VINA RESULT:    -5.885      1.818      7.282
REMARK INTER + INTRA:          -8.318
REMARK INTER:                  -9.335
REMARK INTRA:                   1.017
REMARK UNBOUND:                 0.319
REMARK  8 active torsions:
REMARK  status: ('A' for Active; 'I' for Inactive)
REMARK    1  A    between atoms: C_13  and  C_15 
REMARK    2  A    between atoms: C_14  and  C_16 
REMARK    3  A    between atoms: C_15  and  C_22 
REMARK    4  A    between atoms: C_16  and  C_23 
REMARK    5  A    between atoms: C_17  and  C_21 
REMARK    6  A    between atoms: C_18  and  C_24 
REMARK    7  A    between atoms: C_19  and  C_27 
REMARK    8  A    between atoms: C_20  and  C_30 
ROOT
HETATM    1  O   UNL     1       5.709  23.589  16.732  1.00  0.00    -0.304 OA
HETATM    2  O   UNL     1       4.291  19.030  15.918  1.00  0.00    -0.304 OA
HETATM    3  O   UNL     1       6.850  20.298  13.039  1.00  0.00    -0.304 OA
HETATM    4  O   UNL     1       6.524  21.087  16.867  1.00  0.00    -0.270 OA
HETATM    5  O   UNL     1       4.033  23.171  15.201  1.00  0.00    -0.263 OA
HETATM    6  O   UNL     1       7.819  22.436  14.136  1.00  0.00    -0.270 OA
HETATM    7  O   UNL     1       4.300  16.977  16.957  1.00  0.00    -0.263 OA
HETATM    8  O   UNL     1       3.208  16.296  14.118  1.00  0.00    -0.270 OA
HETATM    9  O   UNL     1       5.622  19.005  11.576  1.00  0.00    -0.263 OA
HETATM   10  N   UNL     1       4.778  20.315  18.185  1.00  0.00    -0.340 N 
HETATM   11  N   UNL     1       6.048  23.691  13.315  1.00  0.00    -0.340 N 
HETATM   12  N   UNL     1       5.315  17.100  13.581  1.00  0.00    -0.340 N 
HETATM   13  C   UNL     1       5.245  18.912  18.090  1.00  0.00     0.190 C 
HETATM   14  C   UNL     1       5.985  24.480  14.561  1.00  0.00     0.190 C 
HETATM   15  C   UNL     1       5.056  22.773  17.725  1.00  0.00     0.227 C 
HETATM   16  C   UNL     1       6.386  18.109  13.718  1.00  0.00     0.190 C 
HETATM   17  C   UNL     1       6.659  21.504  12.269  1.00  0.00     0.227 C 
HETATM   18  C   UNL     1       3.624  18.584  14.734  1.00  0.00     0.227 C 
HETATM   19  C   UNL     1       5.519  21.322  17.547  1.00  0.00     0.250 C 
HETATM   20  C   UNL     1       5.106  23.673  15.507  1.00  0.00     0.283 C 
HETATM   21  C   UNL     1       6.918  22.590  13.304  1.00  0.00     0.250 C 
HETATM   22  C   UNL     1       4.522  18.181  16.958  1.00  0.00     0.283 C 
HETATM   23  C   UNL     1       4.030  17.218  14.135  1.00  0.00     0.250 C 
HETATM   24  C   UNL     1       6.222  19.158  12.629  1.00  0.00     0.283 C 
HETATM   25  C   UNL     1       3.512  20.536  18.893  1.00  0.00     0.153 C 
HETATM   26  C   UNL     1       5.113  24.001  12.231  1.00  0.00     0.153 C 
HETATM   27  C   UNL     1       5.618  15.892  12.814  1.00  0.00     0.153 C 
ENDROOT
BRANCH  15  28
HETATM   28  C   UNL     1       5.488  23.298  19.087  1.00  0.00     0.016 C 
HETATM   29  C   UNL     1       6.727  24.182  18.957  1.00  0.00     0.012 C 
HETATM   30  C   UNL     1       4.349  24.069  19.754  1.00  0.00     0.012 C 
ENDBRANCH  15  28
BRANCH  14  31
HETATM   31  C   UNL     1       5.445  25.898  14.442  1.00  0.00     0.014 C 
HETATM   32  C   UNL     1       4.438  26.164  15.563  1.00  0.00     0.012 C 
BRANCH  31  33
HETATM   33  C   UNL     1       6.563  26.955  14.482  1.00  0.00     0.002 C 
HETATM   34  C   UNL     1       7.030  27.402  13.103  1.00  0.00     0.005 C 
ENDBRANCH  31  33
ENDBRANCH  14  31
BRANCH  13  35
HETATM   35  C   UNL     1       5.139  18.146  19.408  1.00  0.00     0.014 C 
HETATM   36  C   UNL     1       5.558  16.689  19.196  1.00  0.00     0.012 C 
BRANCH  35  37
HETATM   37  C   UNL     1       5.992  18.776  20.523  1.00  0.00     0.002 C 
HETATM   38  C   UNL     1       6.333  17.810  21.648  1.00  0.00     0.005 C 
ENDBRANCH  35  37
ENDBRANCH  13  35
BRANCH  17  39
HETATM   39  C   UNL     1       7.680  21.577  11.147  1.00  0.00     0.016 C 
HETATM   40  C   UNL     1       7.073  21.080   9.837  1.00  0.00     0.012 C 
HETATM   41  C   UNL     1       8.926  20.769  11.502  1.00  0.00     0.012 C 
ENDBRANCH  17  39
BRANCH  18  42
HETATM   42  C   UNL     1       2.120  18.653  14.998  1.00  0.00     0.016 C 
HETATM   43  C   UNL     1       1.780  19.859  15.873  1.00  0.00     0.012 C 
HETATM   44  C   UNL     1       1.342  18.709  13.685  1.00  0.00     0.012 C 
ENDBRANCH  18  42
BRANCH  16  45
HETATM   45  C   UNL     1       7.808  17.551  13.696  1.00  0.00     0.010 C 
HETATM   46  C   UNL     1       8.619  18.089  14.874  1.00  0.00     0.012 C 
HETATM   47  C   UNL     1       8.500  17.884  12.375  1.00  0.00     0.012 C 
ENDBRANCH  16  45
TORSDOF 8
ENDMDL
MODEL 3
REMARK VINA RESULT:    -5.742      2.205      5.503
REMARK INTER + INTRA:          -8.108
REMARK INTER:                  -9.883
REMARK INTRA:                   1.775
REMARK UNBOUND:                 0.319
REMARK  8 active torsions:
REMARK  status: ('A' for Active; 'I' for Inactive)
REMARK    1  A    between atoms: C_13  and  C_15 
REMARK    2  A    between atoms: C_14  and  C_16 
REMARK    3  A    between atoms: C_15  and  C_22 
REMARK    4  A    between atoms: C_16  and  C_23 
REMARK    5  A    between atoms: C_17  and  C_21 
REMARK    6  A    between atoms: C_18  and  C_24 
REMARK    7  A    between atoms: C_19  and  C_27 
REMARK    8  A    between atoms: C_20  and  C_30 
ROOT
HETATM    1  O   UNL     1       6.946  20.966  13.969  1.00  0.00    -0.304 OA
HETATM    2  O   UNL     1       4.366  24.840  15.305  1.00  0.00    -0.304 OA
HETATM    3  O   UNL     1       6.088  23.057  18.514  1.00  0.00    -0.304 OA
HETATM    4  O   UNL     1       7.184  23.464  14.770  1.00  0.00    -0.270 OA
HETATM    5  O   UNL     1       4.821  20.682  14.825  1.00  0.00    -0.263 OA
HETATM    6  O   UNL     1       7.806  21.499  17.360  1.00  0.00    -0.270 OA
HETATM    7  O   UNL     1       4.249  27.100  14.888  1.00  0.00    -0.263 OA
HETATM    8  O   UNL     1       2.186  26.728  17.194  1.00  0.00    -0.270 OA
HETATM    9  O   UNL     1       4.202  23.674  19.691  1.00  0.00    -0.263 OA
HETATM   10  N   UNL     1       5.824  24.392  13.137  1.00  0.00    -0.340 N 
HETATM   11  N   UNL     1       6.192  19.848  17.128  1.00  0.00    -0.340 N 
HETATM   12  N   UNL     1       4.135  26.056  18.255  1.00  0.00    -0.340 N 
HETATM   13  C   UNL     1       5.911  25.742  13.743  1.00  0.00     0.190 C 
HETATM   14  C   UNL     1       6.707  19.484  15.794  1.00  0.00     0.190 C 
HETATM   15  C   UNL     1       6.479  21.965  13.041  1.00  0.00     0.227 C 
HETATM   16  C   UNL     1       5.390  25.276  18.278  1.00  0.00     0.190 C 
HETATM   17  C   UNL     1       5.935  21.658  18.835  1.00  0.00     0.227 C 
HETATM   18  C   UNL     1       3.275  24.813  16.230  1.00  0.00     0.227 C 
HETATM   19  C   UNL     1       6.526  23.334  13.732  1.00  0.00     0.250 C 
HETATM   20  C   UNL     1       6.019  20.434  14.822  1.00  0.00     0.283 C 
HETATM   21  C   UNL     1       6.745  20.987  17.733  1.00  0.00     0.250 C 
HETATM   22  C   UNL     1       4.721  25.992  14.671  1.00  0.00     0.283 C 
HETATM   23  C   UNL     1       3.154  25.963  17.254  1.00  0.00     0.250 C 
HETATM   24  C   UNL     1       5.124  23.929  18.932  1.00  0.00     0.283 C 
HETATM   25  C   UNL     1       4.932  24.252  11.980  1.00  0.00     0.153 C 
HETATM   26  C   UNL     1       5.054  19.106  17.677  1.00  0.00     0.153 C 
HETATM   27  C   UNL     1       3.900  26.994  19.354  1.00  0.00     0.153 C 
ENDROOT
BRANCH  15  28
HETATM   28  C   UNL     1       7.429  21.945  11.851  1.00  0.00     0.016 C 
HETATM   29  C   UNL     1       8.749  21.275  12.225  1.00  0.00     0.012 C 
HETATM   30  C   UNL     1       6.786  21.235  10.660  1.00  0.00     0.012 C 
ENDBRANCH  15  28
BRANCH  14  31
HETATM   31  C   UNL     1       6.487  18.044  15.349  1.00  0.00     0.014 C 
HETATM   32  C   UNL     1       5.680  18.023  14.049  1.00  0.00     0.012 C 
BRANCH  31  33
HETATM   33  C   UNL     1       7.811  17.284  15.155  1.00  0.00     0.002 C 
HETATM   34  C   UNL     1       8.620  17.765  13.959  1.00  0.00     0.005 C 
ENDBRANCH  31  33
ENDBRANCH  14  31
BRANCH  13  35
HETATM   35  C   UNL     1       6.063  26.861  12.714  1.00  0.00     0.014 C 
HETATM   36  C   UNL     1       4.687  27.431  12.360  1.00  0.00     0.012 C 
BRANCH  35  37
HETATM   37  C   UNL     1       6.983  27.992  13.208  1.00  0.00     0.002 C 
HETATM   38  C   UNL     1       6.438  29.385  12.930  1.00  0.00     0.005 C 
ENDBRANCH  35  37
ENDBRANCH  13  35
BRANCH  17  39
HETATM   39  C   UNL     1       6.534  21.363  20.198  1.00  0.00     0.016 C 
HETATM   40  C   UNL     1       7.933  21.963  20.311  1.00  0.00     0.012 C 
HETATM   41  C   UNL     1       6.573  19.857  20.453  1.00  0.00     0.012 C 
ENDBRANCH  17  39
BRANCH  18  42
HETATM   42  C   UNL     1       1.988  24.649  15.419  1.00  0.00     0.016 C 
HETATM   43  C   UNL     1       2.229  23.766  14.195  1.00  0.00     0.012 C 
HETATM   44  C   UNL     1       0.874  24.068  16.287  1.00  0.00     0.012 C 
ENDBRANCH  18  42
BRANCH  16  45
HETATM   45  C   UNL     1       6.568  25.967  18.963  1.00  0.00     0.010 C 
HETATM   46  C   UNL     1       6.330  26.078  20.468  1.00  0.00     0.012 C 
HETATM   47  C   UNL     1       6.812  27.348  18.357  1.00  0.00     0.012 C 
ENDBRANCH  16  45
TORSDOF 8
ENDMDL
MODEL 4
REMARK VINA RESULT:    -5.717      2.504      6.522
REMARK INTER + INTRA:          -8.071
REMARK INTER:                  -8.982
REMARK INTRA:                   0.911
REMARK UNBOUND:                 0.319
REMARK  8 active torsions:
REMARK  status: ('A' for Active; 'I' for Inactive)
REMARK    1  A    between atoms: C_13  and  C_15 
REMARK    2  A    between atoms: C_14  and  C_16 
REMARK    3  A    between atoms: C_15  and  C_22 
REMARK    4  A    between atoms: C_16  and  C_23 
REMARK    5  A    between atoms: C_17  and  C_21 
REMARK    6  A    between atoms: C_18  and  C_24 
REMARK    7  A    between atoms: C_19  and  C_27 
REMARK    8  A    between atoms: C_20  and  C_30 
ROOT
HETATM    1  O   UNL     1       4.791  23.100  13.976  1.00  0.00    -0.304 OA
HETATM    2  O   UNL     1       6.144  18.683  12.525  1.00  0.00    -0.304 OA
HETATM    3  O   UNL     1       2.251  18.717  13.656  1.00  0.00    -0.304 OA
HETATM    4  O   UNL     1       4.574  21.395  11.980  1.00  0.00    -0.270 OA
HETATM    5  O   UNL     1       5.338  21.500  15.547  1.00  0.00    -0.263 OA
HETATM    6  O   UNL     1       1.776  21.263  13.742  1.00  0.00    -0.270 OA
HETATM    7  O   UNL     1       7.029  17.637  10.675  1.00  0.00    -0.263 OA
HETATM    8  O   UNL     1       6.400  15.245  12.572  1.00  0.00    -0.270 OA
HETATM    9  O   UNL     1       2.603  16.572  14.429  1.00  0.00    -0.263 OA
HETATM   10  N   UNL     1       6.850  21.085  11.654  1.00  0.00    -0.340 N 
HETATM   11  N   UNL     1       2.559  21.360  15.924  1.00  0.00    -0.340 N 
HETATM   12  N   UNL     1       4.270  16.104  12.251  1.00  0.00    -0.340 N 
HETATM   13  C   UNL     1       6.624  20.035  10.633  1.00  0.00     0.190 C 
HETATM   14  C   UNL     1       3.202  22.664  15.670  1.00  0.00     0.190 C 
HETATM   15  C   UNL     1       6.003  22.845  13.240  1.00  0.00     0.227 C 
HETATM   16  C   UNL     1       3.333  17.245  12.196  1.00  0.00     0.190 C 
HETATM   17  C   UNL     1       1.790  19.195  14.938  1.00  0.00     0.227 C 
HETATM   18  C   UNL     1       6.077  17.503  13.332  1.00  0.00     0.227 C 
HETATM   19  C   UNL     1       5.740  21.711  12.242  1.00  0.00     0.250 C 
HETATM   20  C   UNL     1       4.570  22.334  15.088  1.00  0.00     0.283 C 
HETATM   21  C   UNL     1       2.010  20.698  14.816  1.00  0.00     0.250 C 
HETATM   22  C   UNL     1       6.673  18.646  11.270  1.00  0.00     0.283 C 
HETATM   23  C   UNL     1       5.608  16.189  12.670  1.00  0.00     0.250 C 
HETATM   24  C   UNL     1       2.694  17.429  13.563  1.00  0.00     0.283 C 
HETATM   25  C   UNL     1       8.244  21.341  12.030  1.00  0.00     0.153 C 
HETATM   26  C   UNL     1       2.654  20.770  17.261  1.00  0.00     0.153 C 
HETATM   27  C   UNL     1       3.766  14.794  11.839  1.00  0.00     0.153 C 
ENDROOT
BRANCH  15  28
HETATM   28  C   UNL     1       6.351  24.128  12.497  1.00  0.00     0.016 C 
HETATM   29  C   UNL     1       5.090  24.934  12.194  1.00  0.00     0.012 C 
HETATM   30  C   UNL     1       7.342  24.966  13.302  1.00  0.00     0.012 C 
ENDBRANCH  15  28
BRANCH  14  31
HETATM   31  C   UNL     1       3.363  23.588  16.870  1.00  0.00     0.014 C 
HETATM   32  C   UNL     1       4.484  24.595  16.600  1.00  0.00     0.012 C 
BRANCH  31  33
HETATM   33  C   UNL     1       2.062  24.334  17.213  1.00  0.00     0.002 C 
HETATM   34  C   UNL     1       1.577  24.093  18.636  1.00  0.00     0.005 C 
ENDBRANCH  31  33
ENDBRANCH  14  31
BRANCH  13  35
HETATM   35  C   UNL     1       7.571  20.137   9.438  1.00  0.00     0.014 C 
HETATM   36  C   UNL     1       7.339  21.459   8.703  1.00  0.00     0.012 C 
BRANCH  35  37
HETATM   37  C   UNL     1       9.050  20.023   9.850  1.00  0.00     0.002 C 
HETATM   38  C   UNL     1       9.897  19.231   8.865  1.00  0.00     0.005 C 
ENDBRANCH  35  37
ENDBRANCH  13  35
BRANCH  17  39
HETATM   39  C   UNL     1       0.316  18.881  15.117  1.00  0.00     0.016 C 
HETATM   40  C   UNL     1       0.130  17.712  16.081  1.00  0.00     0.012 C 
HETATM   41  C   UNL     1      -0.335  18.574  13.769  1.00  0.00     0.012 C 
ENDBRANCH  17  39
BRANCH  18  42
HETATM   42  C   UNL     1       7.435  17.333  14.013  1.00  0.00     0.016 C 
HETATM   43  C   UNL     1       8.005  18.689  14.429  1.00  0.00     0.012 C 
HETATM   44  C   UNL     1       7.320  16.408  15.223  1.00  0.00     0.012 C 
ENDBRANCH  18  42
BRANCH  16  45
HETATM   45  C   UNL     1       2.251  17.143  11.122  1.00  0.00     0.010 C 
HETATM   46  C   UNL     1       1.839  18.531  10.636  1.00  0.00     0.012 C 
HETATM   47  C   UNL     1       1.037  16.379  11.649  1.00  0.00     0.012 C 
ENDBRANCH  16  45
TORSDOF 8
ENDMDL
MODEL 5
REMARK VINA RESULT:    -5.421     17.667     22.482
REMARK INTER + INTRA:          -7.637
REMARK INTER:                  -8.226
REMARK INTRA:                   0.590
REMARK UNBOUND:                 0.319
REMARK  8 active torsions:
REMARK  status: ('A' for Active; 'I' for Inactive)
REMARK    1  A    between atoms: C_13  and  C_15 
REMARK    2  A    between atoms: C_14  and  C_16 
REMARK    3  A    between atoms: C_15  and  C_22 
REMARK    4  A    between atoms: C_16  and  C_23 
REMARK    5  A    between atoms: C_17  and  C_21 
REMARK    6  A    between atoms: C_18  and  C_24 
REMARK    7  A    between atoms: C_19  and  C_27 
REMARK    8  A    between atoms: C_20  and  C_30 
ROOT
HETATM    1  O   UNL     1      18.747   9.867  21.080  1.00  0.00    -0.304 OA
HETATM    2  O   UNL     1      20.636   8.258  25.238  1.00  0.00    -0.304 OA
HETATM    3  O   UNL     1      23.025  11.058  23.538  1.00  0.00    -0.304 OA
HETATM    4  O   UNL     1      19.139  10.535  23.598  1.00  0.00    -0.270 OA
HETATM    5  O   UNL     1      20.414   8.271  21.034  1.00  0.00    -0.263 OA
HETATM    6  O   UNL     1      21.428  12.071  21.767  1.00  0.00    -0.270 OA
HETATM    7  O   UNL     1      20.088   8.089  27.467  1.00  0.00    -0.263 OA
HETATM    8  O   UNL     1      23.057   7.143  27.426  1.00  0.00    -0.270 OA
HETATM    9  O   UNL     1      24.802   9.857  24.389  1.00  0.00    -0.263 OA
HETATM   10  N   UNL     1      18.117   8.670  24.524  1.00  0.00    -0.340 N 
HETATM   11  N   UNL     1      22.032  10.426  20.246  1.00  0.00    -0.340 N 
HETATM   12  N   UNL     1      23.295   9.321  26.666  1.00  0.00    -0.340 N 
HETATM   13  C   UNL     1      18.503   9.064  25.900  1.00  0.00     0.190 C 
HETATM   14  C   UNL     1      20.645  10.328  19.750  1.00  0.00     0.190 C 
HETATM   15  C   UNL     1      17.997   9.109  22.050  1.00  0.00     0.227 C 
HETATM   16  C   UNL     1      22.881  10.434  25.787  1.00  0.00     0.190 C 
HETATM   17  C   UNL     1      23.513  10.983  22.182  1.00  0.00     0.227 C 
HETATM   18  C   UNL     1      21.923   7.644  25.365  1.00  0.00     0.227 C 
HETATM   19  C   UNL     1      18.474   9.502  23.453  1.00  0.00     0.250 C 
HETATM   20  C   UNL     1      19.950   9.349  20.686  1.00  0.00     0.283 C 
HETATM   21  C   UNL     1      22.247  11.234  21.372  1.00  0.00     0.250 C 
HETATM   22  C   UNL     1      19.805   8.376  26.311  1.00  0.00     0.283 C 
HETATM   23  C   UNL     1      22.792   8.012  26.588  1.00  0.00     0.250 C 
HETATM   24  C   UNL     1      23.712  10.396  24.515  1.00  0.00     0.283 C 
HETATM   25  C   UNL     1      17.441   7.376  24.381  1.00  0.00     0.153 C 
HETATM   26  C   UNL     1      23.063   9.580  19.641  1.00  0.00     0.153 C 
HETATM   27  C   UNL     1      24.298   9.605  27.692  1.00  0.00     0.153 C 
ENDROOT
BRANCH  15  28
HETATM   28  C   UNL     1      16.532   9.482  21.870  1.00  0.00     0.016 C 
HETATM   29  C   UNL     1      16.399  10.913  21.354  1.00  0.00     0.012 C 
HETATM   30  C   UNL     1      15.839   8.505  20.922  1.00  0.00     0.012 C 
ENDBRANCH  15  28
BRANCH  14  31
HETATM   31  C   UNL     1      20.468   9.875  18.307  1.00  0.00     0.014 C 
HETATM   32  C   UNL     1      19.041   9.363  18.098  1.00  0.00     0.012 C 
BRANCH  31  33
HETATM   33  C   UNL     1      20.773  10.998  17.300  1.00  0.00     0.002 C 
HETATM   34  C   UNL     1      19.934  10.923  16.032  1.00  0.00     0.005 C 
ENDBRANCH  31  33
ENDBRANCH  14  31
BRANCH  13  35
HETATM   35  C   UNL     1      17.398   8.833  26.930  1.00  0.00     0.014 C 
HETATM   36  C   UNL     1      17.650   7.520  27.675  1.00  0.00     0.012 C 
BRANCH  35  37
HETATM   37  C   UNL     1      17.286   9.990  27.939  1.00  0.00     0.002 C 
HETATM   38  C   UNL     1      17.846  11.307  27.421  1.00  0.00     0.005 C 
ENDBRANCH  35  37
ENDBRANCH  13  35
BRANCH  17  39
HETATM   39  C   UNL     1      24.537  12.075  21.930  1.00  0.00     0.016 C 
HETATM   40  C   UNL     1      24.005  13.088  20.920  1.00  0.00     0.012 C 
HETATM   41  C   UNL     1      25.855  11.473  21.445  1.00  0.00     0.012 C 
ENDBRANCH  17  39
BRANCH  18  42
HETATM   42  C   UNL     1      21.724   6.131  25.256  1.00  0.00     0.016 C 
HETATM   43  C   UNL     1      20.591   5.804  24.282  1.00  0.00     0.012 C 
HETATM   44  C   UNL     1      23.018   5.447  24.820  1.00  0.00     0.012 C 
ENDBRANCH  18  42
BRANCH  16  45
HETATM   45  C   UNL     1      22.958  11.822  26.421  1.00  0.00     0.010 C 
HETATM   46  C   UNL     1      21.678  12.612  26.150  1.00  0.00     0.012 C 
HETATM   47  C   UNL     1      24.177  12.586  25.904  1.00  0.00     0.012 C 
ENDBRANCH  16  45
TORSDOF 8
ENDMDL
MODEL 6
REMARK VINA RESULT:    -5.414      2.374      7.469
REMARK INTER + INTRA:          -7.627
REMARK INTER:                  -8.164
REMARK INTRA:                   0.537
REMARK UNBOUND:                 0.319
REMARK  8 active torsions:
REMARK  status: ('A' for Active; 'I' for Inactive)
REMARK    1  A    between atoms: C_13  and  C_15 
REMARK    2  A    between atoms: C_14  and  C_16 
REMARK    3  A    between atoms: C_15  and  C_22 
REMARK    4  A    between atoms: C_16  and  C_23 
REMARK    5  A    between atoms: C_17  and  C_21 
REMARK    6  A    between atoms: C_18  and  C_24 
REMARK    7  A    between atoms: C_19  and  C_27 
REMARK    8  A    between atoms: C_20  and  C_30 
ROOT
HETATM    1  O   UNL     1       1.556  22.389  12.436  1.00  0.00    -0.304 OA
HETATM    2  O   UNL     1       5.108  23.673  15.466  1.00  0.00    -0.304 OA
HETATM    3  O   UNL     1       5.947  20.149  13.646  1.00  0.00    -0.304 OA
HETATM    4  O   UNL     1       4.005  23.357  12.499  1.00  0.00    -0.270 OA
HETATM    5  O   UNL     1       1.660  21.443  14.539  1.00  0.00    -0.263 OA
HETATM    6  O   UNL     1       4.199  20.143  11.734  1.00  0.00    -0.270 OA
HETATM    7  O   UNL     1       6.567  25.418  15.823  1.00  0.00    -0.263 OA
HETATM    8  O   UNL     1       7.527  23.296  17.894  1.00  0.00    -0.270 OA
HETATM    9  O   UNL     1       6.971  19.534  15.620  1.00  0.00    -0.263 OA
HETATM   10  N   UNL     1       3.544  25.141  13.909  1.00  0.00    -0.340 N 
HETATM   11  N   UNL     1       2.619  19.201  13.148  1.00  0.00    -0.340 N 
HETATM   12  N   UNL     1       7.884  22.146  15.912  1.00  0.00    -0.340 N 
HETATM   13  C   UNL     1       4.972  25.528  13.989  1.00  0.00     0.190 C 
HETATM   14  C   UNL     1       1.548  20.029  12.559  1.00  0.00     0.190 C 
HETATM   15  C   UNL     1       1.688  23.715  12.985  1.00  0.00     0.227 C 
HETATM   16  C   UNL     1       7.430  21.697  14.579  1.00  0.00     0.190 C 
HETATM   17  C   UNL     1       5.060  19.010  13.651  1.00  0.00     0.227 C 
HETATM   18  C   UNL     1       5.560  22.887  16.573  1.00  0.00     0.227 C 
HETATM   19  C   UNL     1       3.180  24.047  13.109  1.00  0.00     0.250 C 
HETATM   20  C   UNL     1       1.592  21.347  13.321  1.00  0.00     0.283 C 
HETATM   21  C   UNL     1       3.932  19.478  12.742  1.00  0.00     0.250 C 
HETATM   22  C   UNL     1       5.628  24.909  15.224  1.00  0.00     0.283 C 
HETATM   23  C   UNL     1       7.078  22.814  16.849  1.00  0.00     0.250 C 
HETATM   24  C   UNL     1       6.782  20.328  14.712  1.00  0.00     0.283 C 
HETATM   25  C   UNL     1       2.613  25.904  14.747  1.00  0.00     0.153 C 
HETATM   26  C   UNL     1       2.278  18.252  14.211  1.00  0.00     0.153 C 
HETATM   27  C   UNL     1       9.274  21.876  16.280  1.00  0.00     0.153 C 
ENDROOT
BRANCH  15  28
HETATM   28  C   UNL     1       1.018  24.671  12.007  1.00  0.00     0.016 C 
HETATM   29  C   UNL     1       0.818  24.000  10.649  1.00  0.00     0.012 C 
HETATM   30  C   UNL     1      -0.317  25.163  12.563  1.00  0.00     0.012 C 
ENDBRANCH  15  28
BRANCH  14  31
HETATM   31  C   UNL     1       0.139  19.454  12.605  1.00  0.00     0.014 C 
HETATM   32  C   UNL     1      -0.870  20.578  12.848  1.00  0.00     0.012 C 
BRANCH  31  33
HETATM   33  C   UNL     1      -0.225  18.694  11.318  1.00  0.00     0.002 C 
HETATM   34  C   UNL     1       0.986  18.182  10.549  1.00  0.00     0.005 C 
ENDBRANCH  31  33
ENDBRANCH  14  31
BRANCH  13  35
HETATM   35  C   UNL     1       5.196  27.038  13.934  1.00  0.00     0.014 C 
HETATM   36  C   UNL     1       6.660  27.334  13.596  1.00  0.00     0.012 C 
BRANCH  35  37
HETATM   37  C   UNL     1       4.276  27.731  12.912  1.00  0.00     0.002 C 
HETATM   38  C   UNL     1       5.028  28.549  11.872  1.00  0.00     0.005 C 
ENDBRANCH  35  37
ENDBRANCH  13  35
BRANCH  17  39
HETATM   39  C   UNL     1       5.758  17.798  13.061  1.00  0.00     0.016 C 
HETATM   40  C   UNL     1       5.067  17.354  11.775  1.00  0.00     0.012 C 
HETATM   41  C   UNL     1       5.794  16.654  14.073  1.00  0.00     0.012 C 
ENDBRANCH  17  39
BRANCH  18  42
HETATM   42  C   UNL     1       4.788  23.348  17.811  1.00  0.00     0.016 C 
HETATM   43  C   UNL     1       3.346  23.702  17.448  1.00  0.00     0.012 C 
HETATM   44  C   UNL     1       4.818  22.274  18.896  1.00  0.00     0.012 C 
ENDBRANCH  18  42
BRANCH  16  45
HETATM   45  C   UNL     1       8.514  21.662  13.504  1.00  0.00     0.010 C 
HETATM   46  C   UNL     1       8.316  22.796  12.499  1.00  0.00     0.012 C 
HETATM   47  C   UNL     1       8.524  20.311  12.790  1.00  0.00     0.012 C 
ENDBRANCH  16  45
TORSDOF 8
ENDMDL
MODEL 7
REMARK VINA RESULT:    -5.407     16.151     21.933
REMARK INTER + INTRA:          -7.617
REMARK INTER:                  -8.222
REMARK INTRA:                   0.604
REMARK UNBOUND:                 0.319
REMARK  8 active torsions:
REMARK  status: ('A' for Active; 'I' for Inactive)
REMARK    1  A    between atoms: C_13  and  C_15 
REMARK    2  A    between atoms: C_14  and  C_16 
REMARK    3  A    between atoms: C_15  and  C_22 
REMARK    4  A    between atoms: C_16  and  C_23 
REMARK    5  A    between atoms: C_17  and  C_21 
REMARK    6  A    between atoms: C_18  and  C_24 
REMARK    7  A    between atoms: C_19  and  C_27 
REMARK    8  A    between atoms: C_20  and  C_30 
ROOT
HETATM    1  O   UNL     1      10.244   8.307  28.475  1.00  0.00    -0.304 OA
HETATM    2  O   UNL     1      12.986   9.298  32.342  1.00  0.00    -0.304 OA
HETATM    3  O   UNL     1       9.985  11.996  31.952  1.00  0.00    -0.304 OA
HETATM    4  O   UNL     1      10.277   8.177  31.106  1.00  0.00    -0.270 OA
HETATM    5  O   UNL     1      11.868   9.941  28.334  1.00  0.00    -0.263 OA
HETATM    6  O   UNL     1       8.455  10.800  30.237  1.00  0.00    -0.270 OA
HETATM    7  O   UNL     1      13.696   8.303  34.292  1.00  0.00    -0.263 OA
HETATM    8  O   UNL     1      14.771  11.214  34.584  1.00  0.00    -0.270 OA
HETATM    9  O   UNL     1      11.468  13.555  32.784  1.00  0.00    -0.263 OA
HETATM   10  N   UNL     1      12.256   6.980  31.283  1.00  0.00    -0.340 N 
HETATM   11  N   UNL     1       9.680  11.695  28.482  1.00  0.00    -0.340 N 
HETATM   12  N   UNL     1      12.488  11.612  34.494  1.00  0.00    -0.340 N 
HETATM   13  C   UNL     1      12.256   7.078  32.762  1.00  0.00     0.190 C 
HETATM   14  C   UNL     1       9.565  10.439  27.716  1.00  0.00     0.190 C 
HETATM   15  C   UNL     1      11.183   7.371  29.042  1.00  0.00     0.227 C 
HETATM   16  C   UNL     1      11.162  11.392  33.880  1.00  0.00     0.190 C 
HETATM   17  C   UNL     1       9.733  12.751  30.747  1.00  0.00     0.227 C 
HETATM   18  C   UNL     1      13.686  10.528  32.550  1.00  0.00     0.227 C 
HETATM   19  C   UNL     1      11.196   7.552  30.564  1.00  0.00     0.250 C 
HETATM   20  C   UNL     1      10.711   9.562  28.202  1.00  0.00     0.283 C 
HETATM   21  C   UNL     1       9.207  11.679  29.802  1.00  0.00     0.250 C 
HETATM   22  C   UNL     1      13.102   8.265  33.222  1.00  0.00     0.283 C 
HETATM   23  C   UNL     1      13.700  11.130  33.973  1.00  0.00     0.250 C 
HETATM   24  C   UNL     1      10.917  12.466  32.832  1.00  0.00     0.283 C 
HETATM   25  C   UNL     1      13.426   6.342  30.671  1.00  0.00     0.153 C 
HETATM   26  C   UNL     1      10.399  12.825  27.888  1.00  0.00     0.153 C 
HETATM   27  C   UNL     1      12.539  12.385  35.735  1.00  0.00     0.153 C 
ENDROOT
BRANCH  15  28
HETATM   28  C   UNL     1      10.691   5.975  28.684  1.00  0.00     0.016 C 
HETATM   29  C   UNL     1       9.180   5.868  28.881  1.00  0.00     0.012 C 
HETATM   30  C   UNL     1      11.068   5.622  27.246  1.00  0.00     0.012 C 
ENDBRANCH  15  28
BRANCH  14  31
HETATM   31  C   UNL     1       9.616  10.559  26.199  1.00  0.00     0.014 C 
HETATM   32  C   UNL     1      10.039   9.221  25.588  1.00  0.00     0.012 C 
BRANCH  31  33
HETATM   33  C   UNL     1       8.270  11.004  25.601  1.00  0.00     0.002 C 
HETATM   34  C   UNL     1       8.196  10.854  24.088  1.00  0.00     0.005 C 
ENDBRANCH  31  33
ENDBRANCH  14  31
BRANCH  13  35
HETATM   35  C   UNL     1      12.681   5.784  33.456  1.00  0.00     0.014 C 
HETATM   36  C   UNL     1      14.180   5.830  33.766  1.00  0.00     0.012 C 
BRANCH  35  37
HETATM   37  C   UNL     1      11.890   5.525  34.751  1.00  0.00     0.002 C 
HETATM   38  C   UNL     1      10.449   6.012  34.692  1.00  0.00     0.005 C 
ENDBRANCH  35  37
ENDBRANCH  13  35
BRANCH  17  39
HETATM   39  C   UNL     1       8.676  13.810  31.002  1.00  0.00     0.016 C 
HETATM   40  C   UNL     1       7.407  13.502  30.212  1.00  0.00     0.012 C 
HETATM   41  C   UNL     1       9.208  15.196  30.645  1.00  0.00     0.012 C 
ENDBRANCH  17  39
BRANCH  18  42
HETATM   42  C   UNL     1      15.104  10.349  32.005  1.00  0.00     0.016 C 
HETATM   43  C   UNL     1      15.084   9.565  30.693  1.00  0.00     0.012 C 
HETATM   44  C   UNL     1      15.781  11.704  31.808  1.00  0.00     0.012 C 
ENDBRANCH  18  42
BRANCH  16  45
HETATM   45  C   UNL     1       9.994  11.343  34.863  1.00  0.00     0.010 C 
HETATM   46  C   UNL     1       9.248  10.014  34.751  1.00  0.00     0.012 C 
HETATM   47  C   UNL     1       9.039  12.513  34.627  1.00  0.00     0.012 C 
ENDBRANCH  16  45
TORSDOF 8
ENDMDL
MODEL 8
REMARK VINA RESULT:    -5.391      2.001      5.265
REMARK INTER + INTRA:          -7.594
REMARK INTER:                  -8.606
REMARK INTRA:                   1.012
REMARK UNBOUND:                 0.319
REMARK  8 active torsions:
REMARK  status: ('A' for Active; 'I' for Inactive)
REMARK    1  A    between atoms: C_13  and  C_15 
REMARK    2  A    between atoms: C_14  and  C_16 
REMARK    3  A    between atoms: C_15  and  C_22 
REMARK    4  A    between atoms: C_16  and  C_23 
REMARK    5  A    between atoms: C_17  and  C_21 
REMARK    6  A    between atoms: C_18  and  C_24 
REMARK    7  A    between atoms: C_19  and  C_27 
REMARK    8  A    between atoms: C_20  and  C_30 
ROOT
HETATM    1  O   UNL     1       6.673  22.893  18.313  1.00  0.00    -0.304 OA
HETATM    2  O   UNL     1       4.154  20.075  15.285  1.00  0.00    -0.304 OA
HETATM    3  O   UNL     1       5.672  23.301  13.353  1.00  0.00    -0.304 OA
HETATM    4  O   UNL     1       6.950  21.140  16.367  1.00  0.00    -0.270 OA
HETATM    5  O   UNL     1       4.503  23.459  17.765  1.00  0.00    -0.263 OA
HETATM    6  O   UNL     1       7.393  24.161  15.089  1.00  0.00    -0.270 OA
HETATM    7  O   UNL     1       4.125  17.904  14.521  1.00  0.00    -0.263 OA
HETATM    8  O   UNL     1       1.949  19.273  12.759  1.00  0.00    -0.270 OA
HETATM    9  O   UNL     1       3.755  23.260  12.071  1.00  0.00    -0.263 OA
HETATM   10  N   UNL     1       5.694  19.456  17.351  1.00  0.00    -0.340 N 
HETATM   11  N   UNL     1       5.741  25.396  16.152  1.00  0.00    -0.340 N 
HETATM   12  N   UNL     1       3.826  20.478  12.128  1.00  0.00    -0.340 N 
HETATM   13  C   UNL     1       5.795  18.593  16.151  1.00  0.00     0.190 C 
HETATM   14  C   UNL     1       6.305  25.072  17.478  1.00  0.00     0.190 C 
HETATM   15  C   UNL     1       6.279  21.543  18.629  1.00  0.00     0.227 C 
HETATM   16  C   UNL     1       5.054  21.227  12.467  1.00  0.00     0.190 C 
HETATM   17  C   UNL     1       5.462  24.665  13.778  1.00  0.00     0.227 C 
HETATM   18  C   UNL     1       3.021  20.505  14.524  1.00  0.00     0.227 C 
HETATM   19  C   UNL     1       6.337  20.703  17.347  1.00  0.00     0.250 C 
HETATM   20  C   UNL     1       5.692  23.733  17.862  1.00  0.00     0.283 C 
HETATM   21  C   UNL     1       6.301  24.738  15.047  1.00  0.00     0.250 C 
HETATM   22  C   UNL     1       4.573  18.780  15.251  1.00  0.00     0.283 C 
HETATM   23  C   UNL     1       2.890  20.013  13.065  1.00  0.00     0.250 C 
HETATM   24  C   UNL     1       4.718  22.706  12.579  1.00  0.00     0.283 C 
HETATM   25  C   UNL     1       4.853  18.958  18.445  1.00  0.00     0.153 C 
HETATM   26  C   UNL     1       4.557  26.255  16.076  1.00  0.00     0.153 C 
HETATM   27  C   UNL     1       3.570  20.202  10.714  1.00  0.00     0.153 C 
ENDROOT
BRANCH  15  28
HETATM   28  C   UNL     1       7.281  21.014  19.648  1.00  0.00     0.016 C 
HETATM   29  C   UNL     1       8.122  22.154  20.218  1.00  0.00     0.012 C 
HETATM   30  C   UNL     1       6.565  20.264  20.770  1.00  0.00     0.012 C 
ENDBRANCH  15  28
BRANCH  14  31
HETATM   31  C   UNL     1       6.062  26.087  18.587  1.00  0.00     0.014 C 
HETATM   32  C   UNL     1       6.519  25.507  19.927  1.00  0.00     0.012 C 
BRANCH  31  33
HETATM   33  C   UNL     1       6.778  27.423  18.324  1.00  0.00     0.002 C 
HETATM   34  C   UNL     1       7.202  28.148  19.595  1.00  0.00     0.005 C 
ENDBRANCH  31  33
ENDBRANCH  14  31
BRANCH  13  35
HETATM   35  C   UNL     1       6.028  17.119  16.480  1.00  0.00     0.014 C 
HETATM   36  C   UNL     1       4.689  16.377  16.515  1.00  0.00     0.012 C 
BRANCH  35  37
HETATM   37  C   UNL     1       6.976  16.436  15.477  1.00  0.00     0.002 C 
HETATM   38  C   UNL     1       8.015  17.376  14.884  1.00  0.00     0.005 C 
ENDBRANCH  35  37
ENDBRANCH  13  35
BRANCH  17  39
HETATM   39  C   UNL     1       5.989  25.628  12.730  1.00  0.00     0.016 C 
HETATM   40  C   UNL     1       7.065  26.533  13.325  1.00  0.00     0.012 C 
HETATM   41  C   UNL     1       4.850  26.461  12.145  1.00  0.00     0.012 C 
ENDBRANCH  17  39
BRANCH  18  42
HETATM   42  C   UNL     1       1.769  20.180  15.339  1.00  0.00     0.016 C 
HETATM   43  C   UNL     1       2.036  20.356  16.834  1.00  0.00     0.012 C 
HETATM   44  C   UNL     1       0.596  21.054  14.899  1.00  0.00     0.012 C 
ENDBRANCH  18  42
BRANCH  16  45
HETATM   45  C   UNL     1       6.221  21.028  11.501  1.00  0.00     0.010 C 
HETATM   46  C   UNL     1       7.483  20.615  12.257  1.00  0.00     0.012 C 
HETATM   47  C   UNL     1       6.476  22.298  10.691  1.00  0.00     0.012 C 
ENDBRANCH  16  45
TORSDOF 8
ENDMDL
MODEL 9
REMARK VINA RESULT:    -5.389     17.212     22.103
REMARK INTER + INTRA:          -7.591
REMARK INTER:                  -8.067
REMARK INTRA:                   0.476
REMARK UNBOUND:                 0.319
REMARK  8 active torsions:
REMARK  status: ('A' for Active; 'I' for Inactive)
REMARK    1  A    between atoms: C_13  and  C_15 
REMARK    2  A    between atoms: C_14  and  C_16 
REMARK    3  A    between atoms: C_15  and  C_22 
REMARK    4  A    between atoms: C_16  and  C_23 
REMARK    5  A    between atoms: C_17  and  C_21 
REMARK    6  A    between atoms: C_18  and  C_24 
REMARK    7  A    between atoms: C_19  and  C_27 
REMARK    8  A    between atoms: C_20  and  C_30 
ROOT
HETATM    1  O   UNL     1      11.328  10.593  28.619  1.00  0.00    -0.304 OA
HETATM    2  O   UNL     1       9.921  11.380  33.186  1.00  0.00    -0.304 OA
HETATM    3  O   UNL     1      13.842  10.362  33.023  1.00  0.00    -0.304 OA
HETATM    4  O   UNL     1      11.486  12.337  30.587  1.00  0.00    -0.270 OA
HETATM    5  O   UNL     1      10.815   8.801  29.980  1.00  0.00    -0.263 OA
HETATM    6  O   UNL     1      14.329  10.644  30.493  1.00  0.00    -0.270 OA
HETATM    7  O   UNL     1       8.985  13.042  34.473  1.00  0.00    -0.263 OA
HETATM    8  O   UNL     1       9.654  10.847  36.582  1.00  0.00    -0.270 OA
HETATM    9  O   UNL     1      13.502   9.288  35.036  1.00  0.00    -0.263 OA
HETATM   10  N   UNL     1       9.202  12.560  30.923  1.00  0.00    -0.340 N 
HETATM   11  N   UNL     1      13.602   8.478  30.086  1.00  0.00    -0.340 N 
HETATM   12  N   UNL     1      11.777  11.337  35.791  1.00  0.00    -0.340 N 
HETATM   13  C   UNL     1       9.398  13.430  32.107  1.00  0.00     0.190 C 
HETATM   14  C   UNL     1      12.957   8.895  28.826  1.00  0.00     0.190 C 
HETATM   15  C   UNL     1      10.096  11.256  28.966  1.00  0.00     0.227 C 
HETATM   16  C   UNL     1      12.717  11.575  34.675  1.00  0.00     0.190 C 
HETATM   17  C   UNL     1      14.338   9.171  32.373  1.00  0.00     0.227 C 
HETATM   18  C   UNL     1      10.005  10.418  34.241  1.00  0.00     0.227 C 
HETATM   19  C   UNL     1      10.328  12.092  30.230  1.00  0.00     0.250 C 
HETATM   20  C   UNL     1      11.574   9.392  29.224  1.00  0.00     0.283 C 
HETATM   21  C   UNL     1      14.120   9.496  30.901  1.00  0.00     0.250 C 
HETATM   22  C   UNL     1       9.360  12.604  33.393  1.00  0.00     0.283 C 
HETATM   23  C   UNL     1      10.451  10.901  35.639  1.00  0.00     0.250 C 
HETATM   24  C   UNL     1      13.392  10.263  34.307  1.00  0.00     0.283 C 
HETATM   25  C   UNL     1       7.818  12.188  30.607  1.00  0.00     0.153 C 
HETATM   26  C   UNL     1      13.539   7.070  30.483  1.00  0.00     0.153 C 
HETATM   27  C   UNL     1      12.266  11.575  37.149  1.00  0.00     0.153 C 
ENDROOT
BRANCH  15  28
HETATM   28  C   UNL     1       9.734  12.163  27.796  1.00  0.00     0.016 C 
HETATM   29  C   UNL     1      10.771  13.272  27.633  1.00  0.00     0.012 C 
HETATM   30  C   UNL     1       9.607  11.354  26.506  1.00  0.00     0.012 C 
ENDBRANCH  15  28
BRANCH  14  31
HETATM   31  C   UNL     1      12.831   7.832  27.742  1.00  0.00     0.014 C 
HETATM   32  C   UNL     1      11.901   8.333  26.634  1.00  0.00     0.012 C 
BRANCH  31  33
HETATM   33  C   UNL     1      14.194   7.442  27.144  1.00  0.00     0.002 C 
HETATM   34  C   UNL     1      14.358   5.944  26.929  1.00  0.00     0.005 C 
ENDBRANCH  31  33
ENDBRANCH  14  31
BRANCH  13  35
HETATM   35  C   UNL     1       8.420  14.603  32.166  1.00  0.00     0.014 C 
HETATM   36  C   UNL     1       9.088  15.800  32.848  1.00  0.00     0.012 C 
BRANCH  35  37
HETATM   37  C   UNL     1       7.912  15.015  30.773  1.00  0.00     0.002 C 
HETATM   38  C   UNL     1       8.978  15.666  29.904  1.00  0.00     0.005 C 
ENDBRANCH  35  37
ENDBRANCH  13  35
BRANCH  17  39
HETATM   39  C   UNL     1      15.814   8.987  32.670  1.00  0.00     0.016 C 
HETATM   40  C   UNL     1      16.633   9.046  31.383  1.00  0.00     0.012 C 
HETATM   41  C   UNL     1      16.055   7.666  33.399  1.00  0.00     0.012 C 
ENDBRANCH  17  39
BRANCH  18  42
HETATM   42  C   UNL     1       8.664   9.685  34.305  1.00  0.00     0.016 C 
HETATM   43  C   UNL     1       8.083   9.497  32.904  1.00  0.00     0.012 C 
HETATM   44  C   UNL     1       8.817   8.337  35.006  1.00  0.00     0.012 C 
ENDBRANCH  18  42
BRANCH  16  45
HETATM   45  C   UNL     1      13.771  12.650  34.935  1.00  0.00     0.010 C 
HETATM   46  C   UNL     1      13.684  13.756  33.883  1.00  0.00     0.012 C 
HETATM   47  C   UNL     1      15.172  12.041  34.955  1.00  0.00     0.012 C 
ENDBRANCH  16  45
TORSDOF 8
ENDMDL
MODEL 10
REMARK VINA RESULT:    -5.352      1.980      2.442
REMARK INTER + INTRA:          -7.536
REMARK INTER:                  -8.257
REMARK INTRA:                   0.721
REMARK UNBOUND:                 0.319
REMARK  8 active torsions:
REMARK  status: ('A' for Active; 'I' for Inactive)
REMARK    1  A    between atoms: C_13  and  C_15 
REMARK    2  A    between atoms: C_14  and  C_16 
REMARK    3  A    between atoms: C_15  and  C_22 
REMARK    4  A    between atoms: C_16  and  C_23 
REMARK    5  A    between atoms: C_17  and  C_21 
REMARK    6  A    between atoms: C_18  and  C_24 
REMARK    7  A    between atoms: C_19  and  C_27 
REMARK    8  A    between atoms: C_20  and  C_30 
ROOT
HETATM    1  O   UNL     1       4.992  16.741  15.476  1.00  0.00    -0.304 OA
HETATM    2  O   UNL     1       5.399  20.208  12.119  1.00  0.00    -0.304 OA
HETATM    3  O   UNL     1       5.304  21.794  15.849  1.00  0.00    -0.304 OA
HETATM    4  O   UNL     1       6.710  18.428  14.407  1.00  0.00    -0.270 OA
HETATM    5  O   UNL     1       3.119  17.919  14.818  1.00  0.00    -0.263 OA
HETATM    6  O   UNL     1       5.711  19.686  17.301  1.00  0.00    -0.270 OA
HETATM    7  O   UNL     1       6.793  20.829  10.396  1.00  0.00    -0.263 OA
HETATM    8  O   UNL     1       4.791  23.213  10.542  1.00  0.00    -0.270 OA
HETATM    9  O   UNL     1       4.165  23.568  14.914  1.00  0.00    -0.263 OA
HETATM   10  N   UNL     1       6.402  17.756  12.208  1.00  0.00    -0.340 N 
HETATM   11  N   UNL     1       3.440  19.210  17.290  1.00  0.00    -0.340 N 
HETATM   12  N   UNL     1       5.759  23.343  12.645  1.00  0.00    -0.340 N 
HETATM   13  C   UNL     1       7.284  18.828  11.691  1.00  0.00     0.190 C 
HETATM   14  C   UNL     1       3.709  17.763  17.176  1.00  0.00     0.190 C 
HETATM   15  C   UNL     1       5.353  16.478  14.105  1.00  0.00     0.227 C 
HETATM   16  C   UNL     1       6.215  22.707  13.899  1.00  0.00     0.190 C 
HETATM   17  C   UNL     1       4.264  21.522  16.813  1.00  0.00     0.227 C 
HETATM   18  C   UNL     1       4.472  21.284  11.943  1.00  0.00     0.227 C 
HETATM   19  C   UNL     1       6.210  17.642  13.593  1.00  0.00     0.250 C 
HETATM   20  C   UNL     1       3.874  17.499  15.686  1.00  0.00     0.283 C 
HETATM   21  C   UNL     1       4.542  20.071  17.184  1.00  0.00     0.250 C 
HETATM   22  C   UNL     1       6.461  20.050  11.281  1.00  0.00     0.283 C 
HETATM   23  C   UNL     1       5.034  22.690  11.635  1.00  0.00     0.250 C 
HETATM   24  C   UNL     1       5.095  22.775  14.925  1.00  0.00     0.283 C 
HETATM   25  C   UNL     1       5.727  16.925  11.205  1.00  0.00     0.153 C 
HETATM   26  C   UNL     1       2.051  19.670  17.361  1.00  0.00     0.153 C 
HETATM   27  C   UNL     1       6.091  24.753  12.442  1.00  0.00     0.153 C 
ENDROOT
BRANCH  15  28
HETATM   28  C   UNL     1       6.163  15.188  14.097  1.00  0.00     0.016 C 
HETATM   29  C   UNL     1       6.630  14.836  15.509  1.00  0.00     0.012 C 
HETATM   30  C   UNL     1       5.346  14.042  13.503  1.00  0.00     0.012 C 
ENDBRANCH  15  28
BRANCH  14  31
HETATM   31  C   UNL     1       2.655  16.827  17.752  1.00  0.00     0.014 C 
HETATM   32  C   UNL     1       2.705  15.482  17.023  1.00  0.00     0.012 C 
BRANCH  31  33
HETATM   33  C   UNL     1       2.830  16.609  19.265  1.00  0.00     0.002 C 
HETATM   34  C   UNL     1       4.271  16.748  19.738  1.00  0.00     0.005 C 
ENDBRANCH  31  33
ENDBRANCH  14  31
BRANCH  13  35
HETATM   35  C   UNL     1       8.202  18.367  10.560  1.00  0.00     0.014 C 
HETATM   36  C   UNL     1       7.877  19.139   9.279  1.00  0.00     0.012 C 
BRANCH  35  37
HETATM   37  C   UNL     1       9.692  18.539  10.907  1.00  0.00     0.002 C 
HETATM   38  C   UNL     1      10.089  17.892  12.226  1.00  0.00     0.005 C 
ENDBRANCH  35  37
ENDBRANCH  13  35
BRANCH  17  39
HETATM   39  C   UNL     1       4.419  22.425  18.023  1.00  0.00     0.016 C 
HETATM   40  C   UNL     1       4.748  21.604  19.267  1.00  0.00     0.012 C 
HETATM   41  C   UNL     1       3.153  23.250  18.243  1.00  0.00     0.012 C 
ENDBRANCH  17  39
BRANCH  18  42
HETATM   42  C   UNL     1       3.453  20.847  10.890  1.00  0.00     0.016 C 
HETATM   43  C   UNL     1       3.161  19.351  11.009  1.00  0.00     0.012 C 
HETATM   44  C   UNL     1       2.163  21.655  11.019  1.00  0.00     0.012 C 
ENDBRANCH  18  42
BRANCH  16  45
HETATM   45  C   UNL     1       7.500  23.285  14.488  1.00  0.00     0.010 C 
HETATM   46  C   UNL     1       8.529  22.180  14.728  1.00  0.00     0.012 C 
HETATM   47  C   UNL     1       7.210  24.036  15.787  1.00  0.00     0.012 C 
ENDBRANCH  16  45
TORSDOF 8
ENDMDL
MODEL 11
REMARK VINA RESULT:    -5.163     16.609     21.116
REMARK INTER + INTRA:          -7.258
REMARK INTER:                  -8.293
REMARK INTRA:                   1.035
REMARK UNBOUND:                 0.319
REMARK  8 active torsions:
REMARK  status: ('A' for Active; 'I' for Inactive)
REMARK    1  A    between atoms: C_13  and  C_15 
REMARK    2  A    between atoms: C_14  and  C_16 
REMARK    3  A    between atoms: C_15  and  C_22 
REMARK    4  A    between atoms: C_16  and  C_23 
REMARK    5  A    between atoms: C_17  and  C_21 
REMARK    6  A    between atoms: C_18  and  C_24 
REMARK    7  A    between atoms: C_19  and  C_27 
REMARK    8  A    between atoms: C_20  and  C_30 
ROOT
HETATM    1  O   UNL     1      19.945  10.538  14.454  1.00  0.00    -0.304 OA
HETATM    2  O   UNL     1      21.370   8.915  18.788  1.00  0.00    -0.304 OA
HETATM    3  O   UNL     1      24.017  11.599  17.293  1.00  0.00    -0.304 OA
HETATM    4  O   UNL     1      20.124  11.225  16.991  1.00  0.00    -0.270 OA
HETATM    5  O   UNL     1      21.545   8.879  14.582  1.00  0.00    -0.263 OA
HETATM    6  O   UNL     1      22.634  12.647  15.369  1.00  0.00    -0.270 OA
HETATM    7  O   UNL     1      20.608   8.798  20.957  1.00  0.00    -0.263 OA
HETATM    8  O   UNL     1      23.529   7.739  21.206  1.00  0.00    -0.270 OA
HETATM    9  O   UNL     1      25.657  10.342  18.320  1.00  0.00    -0.263 OA
HETATM   10  N   UNL     1      18.947   9.413  17.836  1.00  0.00    -0.340 N 
HETATM   11  N   UNL     1      23.313  10.960  13.928  1.00  0.00    -0.340 N 
HETATM   12  N   UNL     1      23.923   9.895  20.450  1.00  0.00    -0.340 N 
HETATM   13  C   UNL     1      19.218   9.812  19.237  1.00  0.00     0.190 C 
HETATM   14  C   UNL     1      21.976  10.908  13.305  1.00  0.00     0.190 C 
HETATM   15  C   UNL     1      19.078   9.823  15.357  1.00  0.00     0.227 C 
HETATM   16  C   UNL     1      23.638  11.012  19.524  1.00  0.00     0.190 C 
HETATM   17  C   UNL     1      24.626  11.486  15.989  1.00  0.00     0.227 C 
HETATM   18  C   UNL     1      22.614   8.254  19.042  1.00  0.00     0.227 C 
HETATM   19  C   UNL     1      19.436  10.217  16.795  1.00  0.00     0.250 C 
HETATM   20  C   UNL     1      21.158   9.969  14.181  1.00  0.00     0.283 C 
HETATM   21  C   UNL     1      23.453  11.774  15.061  1.00  0.00     0.250 C 
HETATM   22  C   UNL     1      20.447   9.080  19.776  1.00  0.00     0.283 C 
HETATM   23  C   UNL     1      23.379   8.606  20.338  1.00  0.00     0.250 C 
HETATM   24  C   UNL     1      24.582  10.924  18.336  1.00  0.00     0.283 C 
HETATM   25  C   UNL     1      18.238   8.144  17.643  1.00  0.00     0.153 C 
HETATM   26  C   UNL     1      24.362  10.067  13.431  1.00  0.00     0.153 C 
HETATM   27  C   UNL     1      24.836  10.155  21.563  1.00  0.00     0.153 C 
ENDROOT
BRANCH  15  28
HETATM   28  C   UNL     1      17.652  10.249  15.036  1.00  0.00     0.016 C 
HETATM   29  C   UNL     1      17.646  11.521  14.190  1.00  0.00     0.012 C 
HETATM   30  C   UNL     1      16.902   9.127  14.319  1.00  0.00     0.012 C 
ENDBRANCH  15  28
BRANCH  14  31
HETATM   31  C   UNL     1      21.918  10.442  11.856  1.00  0.00     0.014 C 
HETATM   32  C   UNL     1      21.524   8.964  11.805  1.00  0.00     0.012 C 
BRANCH  31  33
HETATM   33  C   UNL     1      20.936  11.274  11.013  1.00  0.00     0.002 C 
HETATM   34  C   UNL     1      19.578  10.610  10.828  1.00  0.00     0.005 C 
ENDBRANCH  31  33
ENDBRANCH  14  31
BRANCH  13  35
HETATM   35  C   UNL     1      18.013   9.638  20.161  1.00  0.00     0.014 C 
HETATM   36  C   UNL     1      18.071   8.265  20.836  1.00  0.00     0.012 C 
BRANCH  35  37
HETATM   37  C   UNL     1      17.930  10.741  21.231  1.00  0.00     0.002 C 
HETATM   38  C   UNL     1      16.591  10.788  21.954  1.00  0.00     0.005 C 
ENDBRANCH  35  37
ENDBRANCH  13  35
BRANCH  17  39
HETATM   39  C   UNL     1      25.712  12.534  15.825  1.00  0.00     0.016 C 
HETATM   40  C   UNL     1      25.357  13.502  14.698  1.00  0.00     0.012 C 
HETATM   41  C   UNL     1      27.062  11.871  15.558  1.00  0.00     0.012 C 
ENDBRANCH  17  39
BRANCH  18  42
HETATM   42  C   UNL     1      22.367   6.749  18.930  1.00  0.00     0.016 C 
HETATM   43  C   UNL     1      21.329   6.451  17.848  1.00  0.00     0.012 C 
HETATM   44  C   UNL     1      23.670   6.008  18.639  1.00  0.00     0.012 C 
ENDBRANCH  18  42
BRANCH  16  45
HETATM   45  C   UNL     1      23.710  12.404  20.149  1.00  0.00     0.010 C 
HETATM   46  C   UNL     1      22.317  13.027  20.242  1.00  0.00     0.012 C 
HETATM   47  C   UNL     1      24.646  13.308  19.349  1.00  0.00     0.012 C 
ENDBRANCH  16  45
TORSDOF 8
ENDMDL
MODEL 12
REMARK VINA RESULT:    -5.150     17.265     21.523
REMARK INTER + INTRA:          -7.240
REMARK INTER:                  -7.505
REMARK INTRA:                   0.265
REMARK UNBOUND:                 0.319
REMARK  8 active torsions:
REMARK  status: ('A' for Active; 'I' for Inactive)
REMARK    1  A    between atoms: C_13  and  C_15 
REMARK    2  A    between atoms: C_14  and  C_16 
REMARK    3  A    between atoms: C_15  and  C_22 
REMARK    4  A    between atoms: C_16  and  C_23 
REMARK    5  A    between atoms: C_17  and  C_21 
REMARK    6  A    between atoms: C_18  and  C_24 
REMARK    7  A    between atoms: C_19  and  C_27 
REMARK    8  A    between atoms: C_20  and  C_30 
ROOT
HETATM    1  O   UNL     1      17.779   9.287  20.601  1.00  0.00    -0.304 OA
HETATM    2  O   UNL     1      22.281   9.025  22.364  1.00  0.00    -0.304 OA
HETATM    3  O   UNL     1      22.264  10.631  18.641  1.00  0.00    -0.304 OA
HETATM    4  O   UNL     1      19.716  10.753  21.620  1.00  0.00    -0.270 OA
HETATM    5  O   UNL     1      19.158   7.553  19.956  1.00  0.00    -0.263 OA
HETATM    6  O   UNL     1      19.746  11.163  18.336  1.00  0.00    -0.270 OA
HETATM    7  O   UNL     1      23.505   9.757  24.171  1.00  0.00    -0.263 OA
HETATM    8  O   UNL     1      25.677   8.427  22.375  1.00  0.00    -0.270 OA
HETATM    9  O   UNL     1      24.286   9.567  18.325  1.00  0.00    -0.263 OA
HETATM   10  N   UNL     1      19.974   9.524  23.571  1.00  0.00    -0.340 N 
HETATM   11  N   UNL     1      19.359   9.009  17.564  1.00  0.00    -0.340 N 
HETATM   12  N   UNL     1      24.945  10.121  20.972  1.00  0.00    -0.340 N 
HETATM   13  C   UNL     1      21.146  10.326  23.995  1.00  0.00     0.190 C 
HETATM   14  C   UNL     1      18.071   8.947  18.281  1.00  0.00     0.190 C 
HETATM   15  C   UNL     1      18.072   9.052  21.993  1.00  0.00     0.227 C 
HETATM   16  C   UNL     1      23.856  10.891  20.334  1.00  0.00     0.190 C 
HETATM   17  C   UNL     1      21.654   9.999  17.495  1.00  0.00     0.227 C 
HETATM   18  C   UNL     1      23.358   8.313  21.747  1.00  0.00     0.227 C 
HETATM   19  C   UNL     1      19.326   9.850  22.370  1.00  0.00     0.250 C 
HETATM   20  C   UNL     1      18.414   8.488  19.692  1.00  0.00     0.283 C 
HETATM   21  C   UNL     1      20.170  10.127  17.811  1.00  0.00     0.250 C 
HETATM   22  C   UNL     1      22.446   9.646  23.565  1.00  0.00     0.283 C 
HETATM   23  C   UNL     1      24.759   8.963  21.744  1.00  0.00     0.250 C 
HETATM   24  C   UNL     1      23.536  10.271  18.983  1.00  0.00     0.283 C 
HETATM   25  C   UNL     1      19.621   8.382  24.422  1.00  0.00     0.153 C 
HETATM   26  C   UNL     1      19.782   7.857  16.764  1.00  0.00     0.153 C 
HETATM   27  C   UNL     1      26.313  10.603  20.784  1.00  0.00     0.153 C 
ENDROOT
BRANCH  15  28
HETATM   28  C   UNL     1      16.874   9.550  22.791  1.00  0.00     0.016 C 
HETATM   29  C   UNL     1      16.408  10.909  22.272  1.00  0.00     0.012 C 
HETATM   30  C   UNL     1      15.732   8.537  22.737  1.00  0.00     0.012 C 
ENDBRANCH  15  28
BRANCH  14  31
HETATM   31  C   UNL     1      17.005   8.035  17.688  1.00  0.00     0.014 C 
HETATM   32  C   UNL     1      15.984   7.665  18.766  1.00  0.00     0.012 C 
BRANCH  31  33
HETATM   33  C   UNL     1      16.287   8.678  16.488  1.00  0.00     0.002 C 
HETATM   34  C   UNL     1      16.372   7.850  15.213  1.00  0.00     0.005 C 
ENDBRANCH  31  33
ENDBRANCH  14  31
BRANCH  13  35
HETATM   35  C   UNL     1      21.150  10.651  25.488  1.00  0.00     0.014 C 
HETATM   36  C   UNL     1      22.103  11.818  25.762  1.00  0.00     0.012 C 
BRANCH  35  37
HETATM   37  C   UNL     1      19.746  10.991  26.019  1.00  0.00     0.002 C 
HETATM   38  C   UNL     1      19.463  12.485  26.079  1.00  0.00     0.005 C 
ENDBRANCH  35  37
ENDBRANCH  13  35
BRANCH  17  39
HETATM   39  C   UNL     1      22.002  10.759  16.229  1.00  0.00     0.016 C 
HETATM   40  C   UNL     1      20.764  11.445  15.658  1.00  0.00     0.012 C 
HETATM   41  C   UNL     1      22.623   9.823  15.194  1.00  0.00     0.012 C 
ENDBRANCH  17  39
BRANCH  18  42
HETATM   42  C   UNL     1      23.393   6.911  22.357  1.00  0.00     0.016 C 
HETATM   43  C   UNL     1      21.978   6.414  22.651  1.00  0.00     0.012 C 
HETATM   44  C   UNL     1      24.121   5.938  21.432  1.00  0.00     0.012 C 
ENDBRANCH  18  42
BRANCH  16  45
HETATM   45  C   UNL     1      24.127  12.385  20.174  1.00  0.00     0.010 C 
HETATM   46  C   UNL     1      23.003  13.209  20.801  1.00  0.00     0.012 C 
HETATM   47  C   UNL     1      24.298  12.749  18.700  1.00  0.00     0.012 C 
ENDBRANCH  16  45
TORSDOF 8
ENDMDL
MODEL 13
REMARK VINA RESULT:    -5.146     16.771     21.264
REMARK INTER + INTRA:          -7.234
REMARK INTER:                  -8.594
REMARK INTRA:                   1.360
REMARK UNBOUND:                 0.319
REMARK  8 active torsions:
REMARK  status: ('A' for Active; 'I' for Inactive)
REMARK    1  A    between atoms: C_13  and  C_15 
REMARK    2  A    between atoms: C_14  and  C_16 
REMARK    3  A    between atoms: C_15  and  C_22 
REMARK    4  A    between atoms: C_16  and  C_23 
REMARK    5  A    between atoms: C_17  and  C_21 
REMARK    6  A    between atoms: C_18  and  C_24 
REMARK    7  A    between atoms: C_19  and  C_27 
REMARK    8  A    between atoms: C_20  and  C_30 
ROOT
HETATM    1  O   UNL     1      13.695  11.581  32.922  1.00  0.00    -0.304 OA
HETATM    2  O   UNL     1      10.022  11.903  29.783  1.00  0.00    -0.304 OA
HETATM    3  O   UNL     1      12.243   8.581  29.093  1.00  0.00    -0.304 OA
HETATM    4  O   UNL     1      11.333  10.563  32.353  1.00  0.00    -0.270 OA
HETATM    5  O   UNL     1      14.077  12.400  30.799  1.00  0.00    -0.263 OA
HETATM    6  O   UNL     1      13.641   8.452  31.272  1.00  0.00    -0.270 OA
HETATM    7  O   UNL     1       7.725  12.046  29.776  1.00  0.00    -0.263 OA
HETATM    8  O   UNL     1       8.396  11.764  26.746  1.00  0.00    -0.270 OA
HETATM    9  O   UNL     1      11.780   8.907  26.857  1.00  0.00    -0.263 OA
HETATM   10  N   UNL     1      10.178  12.575  32.342  1.00  0.00    -0.340 N 
HETATM   11  N   UNL     1      15.231   9.878  30.366  1.00  0.00    -0.340 N 
HETATM   12  N   UNL     1       9.222   9.753  27.552  1.00  0.00    -0.340 N 
HETATM   13  C   UNL     1       8.926  11.925  31.889  1.00  0.00     0.190 C 
HETATM   14  C   UNL     1      15.412  10.556  31.664  1.00  0.00     0.190 C 
HETATM   15  C   UNL     1      12.574  12.469  33.103  1.00  0.00     0.227 C 
HETATM   16  C   UNL     1      10.007   8.982  28.538  1.00  0.00     0.190 C 
HETATM   17  C   UNL     1      13.672   8.598  28.889  1.00  0.00     0.227 C 
HETATM   18  C   UNL     1      10.168  11.953  28.360  1.00  0.00     0.227 C 
HETATM   19  C   UNL     1      11.314  11.782  32.563  1.00  0.00     0.250 C 
HETATM   20  C   UNL     1      14.333  11.629  31.714  1.00  0.00     0.283 C 
HETATM   21  C   UNL     1      14.191   8.940  30.279  1.00  0.00     0.250 C 
HETATM   22  C   UNL     1       8.797  12.009  30.368  1.00  0.00     0.283 C 
HETATM   23  C   UNL     1       9.169  11.155  27.493  1.00  0.00     0.250 C 
HETATM   24  C   UNL     1      11.429   8.823  28.025  1.00  0.00     0.283 C 
HETATM   25  C   UNL     1      10.151  14.037  32.456  1.00  0.00     0.153 C 
HETATM   26  C   UNL     1      16.033  10.313  29.220  1.00  0.00     0.153 C 
HETATM   27  C   UNL     1       8.443   9.000  26.569  1.00  0.00     0.153 C 
ENDROOT
BRANCH  15  28
HETATM   28  C   UNL     1      12.437  12.714  34.600  1.00  0.00     0.016 C 
HETATM   29  C   UNL     1      11.807  11.505  35.289  1.00  0.00     0.012 C 
HETATM   30  C   UNL     1      13.795  13.037  35.220  1.00  0.00     0.012 C 
ENDBRANCH  15  28
BRANCH  14  31
HETATM   31  C   UNL     1      16.775  11.185  31.919  1.00  0.00     0.014 C 
HETATM   32  C   UNL     1      16.725  12.026  33.197  1.00  0.00     0.012 C 
BRANCH  31  33
HETATM   33  C   UNL     1      17.893  10.133  32.030  1.00  0.00     0.002 C 
HETATM   34  C   UNL     1      19.008  10.528  32.989  1.00  0.00     0.005 C 
ENDBRANCH  31  33
ENDBRANCH  14  31
BRANCH  13  35
HETATM   35  C   UNL     1       7.677  12.462  32.587  1.00  0.00     0.014 C 
HETATM   36  C   UNL     1       6.548  11.431  32.495  1.00  0.00     0.012 C 
BRANCH  35  37
HETATM   37  C   UNL     1       7.936  12.818  34.062  1.00  0.00     0.002 C 
HETATM   38  C   UNL     1       7.972  11.608  34.984  1.00  0.00     0.005 C 
ENDBRANCH  35  37
ENDBRANCH  13  35
BRANCH  17  39
HETATM   39  C   UNL     1      14.157   7.225  28.457  1.00  0.00     0.016 C 
HETATM   40  C   UNL     1      14.920   6.545  29.590  1.00  0.00     0.012 C 
HETATM   41  C   UNL     1      15.031   7.333  27.209  1.00  0.00     0.012 C 
ENDBRANCH  17  39
BRANCH  18  42
HETATM   42  C   UNL     1      10.209  13.427  27.953  1.00  0.00     0.016 C 
HETATM   43  C   UNL     1       9.350  14.271  28.895  1.00  0.00     0.012 C 
HETATM   44  C   UNL     1      11.646  13.942  27.934  1.00  0.00     0.012 C 
ENDBRANCH  18  42
BRANCH  16  45
HETATM   45  C   UNL     1       9.427   7.617  28.903  1.00  0.00     0.010 C 
HETATM   46  C   UNL     1       9.192   7.515  30.410  1.00  0.00     0.012 C 
HETATM   47  C   UNL     1      10.347   6.493  28.429  1.00  0.00     0.012 C 
ENDBRANCH  16  45
TORSDOF 8
ENDMDL
MODEL 14
REMARK VINA RESULT:    -5.111     15.861     19.658
REMARK INTER + INTRA:          -7.182
REMARK INTER:                  -7.502
REMARK INTRA:                   0.321
REMARK UNBOUND:                 0.319
REMARK  8 active torsions:
REMARK  status: ('A' for Active; 'I' for Inactive)
REMARK    1  A    between atoms: C_13  and  C_15 
REMARK    2  A    between atoms: C_14  and  C_16 
REMARK    3  A    between atoms: C_15  and  C_22 
REMARK    4  A    between atoms: C_16  and  C_23 
REMARK    5  A    between atoms: C_17  and  C_21 
REMARK    6  A    between atoms: C_18  and  C_24 
REMARK    7  A    between atoms: C_19  and  C_27 
REMARK    8  A    between atoms: C_20  and  C_30 
ROOT
HETATM    1  O   UNL     1      13.229   7.875  29.052  1.00  0.00    -0.304 OA
HETATM    2  O   UNL     1       8.699   9.454  28.393  1.00  0.00    -0.304 OA
HETATM    3  O   UNL     1      10.720  11.851  30.964  1.00  0.00    -0.304 OA
HETATM    4  O   UNL     1      11.819   9.743  27.844  1.00  0.00    -0.270 OA
HETATM    5  O   UNL     1      11.610   7.385  30.622  1.00  0.00    -0.263 OA
HETATM    6  O   UNL     1      13.159  11.073  30.562  1.00  0.00    -0.270 OA
HETATM    7  O   UNL     1       7.305  10.129  26.691  1.00  0.00    -0.263 OA
HETATM    8  O   UNL     1       5.604  10.719  29.235  1.00  0.00    -0.270 OA
HETATM    9  O   UNL     1       8.710  12.133  32.060  1.00  0.00    -0.263 OA
HETATM   10  N   UNL     1      10.395   8.304  26.711  1.00  0.00    -0.340 N 
HETATM   11  N   UNL     1      12.900   9.376  32.123  1.00  0.00    -0.340 N 
HETATM   12  N   UNL     1       7.412  12.123  29.599  1.00  0.00    -0.340 N 
HETATM   13  C   UNL     1       9.578   9.425  26.187  1.00  0.00     0.190 C 
HETATM   14  C   UNL     1      13.695   8.448  31.296  1.00  0.00     0.190 C 
HETATM   15  C   UNL     1      12.379   7.420  27.980  1.00  0.00     0.227 C 
HETATM   16  C   UNL     1       8.869  12.371  29.633  1.00  0.00     0.190 C 
HETATM   17  C   UNL     1      11.396  11.373  32.146  1.00  0.00     0.227 C 
HETATM   18  C   UNL     1       7.734   9.622  29.437  1.00  0.00     0.227 C 
HETATM   19  C   UNL     1      11.509   8.593  27.514  1.00  0.00     0.250 C 
HETATM   20  C   UNL     1      12.706   7.833  30.315  1.00  0.00     0.283 C 
HETATM   21  C   UNL     1      12.579  10.617  31.554  1.00  0.00     0.250 C 
HETATM   22  C   UNL     1       8.370   9.677  27.090  1.00  0.00     0.283 C 
HETATM   23  C   UNL     1       6.820  10.866  29.395  1.00  0.00     0.250 C 
HETATM   24  C   UNL     1       9.382  12.115  31.041  1.00  0.00     0.283 C 
HETATM   25  C   UNL     1       9.921   6.951  26.403  1.00  0.00     0.153 C 
HETATM   26  C   UNL     1      12.375   8.909  33.409  1.00  0.00     0.153 C 
HETATM   27  C   UNL     1       6.525  13.271  29.789  1.00  0.00     0.153 C 
ENDROOT
BRANCH  15  28
HETATM   28  C   UNL     1      13.293   6.963  26.850  1.00  0.00     0.016 C 
HETATM   29  C   UNL     1      14.740   7.362  27.133  1.00  0.00     0.012 C 
HETATM   30  C   UNL     1      13.185   5.453  26.646  1.00  0.00     0.012 C 
ENDBRANCH  15  28
BRANCH  14  31
HETATM   31  C   UNL     1      14.440   7.345  32.035  1.00  0.00     0.014 C 
HETATM   32  C   UNL     1      14.695   6.169  31.089  1.00  0.00     0.012 C 
BRANCH  31  33
HETATM   33  C   UNL     1      15.773   7.835  32.629  1.00  0.00     0.002 C 
HETATM   34  C   UNL     1      16.485   8.864  31.761  1.00  0.00     0.005 C 
ENDBRANCH  31  33
ENDBRANCH  14  31
BRANCH  13  35
HETATM   35  C   UNL     1       9.159   9.240  24.730  1.00  0.00     0.014 C 
HETATM   36  C   UNL     1       8.759  10.591  24.130  1.00  0.00     0.012 C 
BRANCH  35  37
HETATM   37  C   UNL     1      10.269   8.601  23.876  1.00  0.00     0.002 C 
HETATM   38  C   UNL     1       9.955   8.579  22.387  1.00  0.00     0.005 C 
ENDBRANCH  35  37
ENDBRANCH  13  35
BRANCH  17  39
HETATM   39  C   UNL     1      11.873  12.543  32.987  1.00  0.00     0.016 C 
HETATM   40  C   UNL     1      13.388  12.493  33.166  1.00  0.00     0.012 C 
HETATM   41  C   UNL     1      11.172  12.549  34.345  1.00  0.00     0.012 C 
ENDBRANCH  17  39
BRANCH  18  42
HETATM   42  C   UNL     1       6.918   8.331  29.522  1.00  0.00     0.016 C 
HETATM   43  C   UNL     1       7.800   7.115  29.240  1.00  0.00     0.012 C 
HETATM   44  C   UNL     1       6.252   8.203  30.890  1.00  0.00     0.012 C 
ENDBRANCH  18  42
BRANCH  16  45
HETATM   45  C   UNL     1       9.300  13.760  29.164  1.00  0.00     0.010 C 
HETATM   46  C   UNL     1      10.494  13.663  28.215  1.00  0.00     0.012 C 
HETATM   47  C   UNL     1       9.636  14.654  30.356  1.00  0.00     0.012 C 
ENDBRANCH  16  45
TORSDOF 8
ENDMDL
MODEL 15
REMARK VINA RESULT:    -5.107      2.153      6.058
REMARK INTER + INTRA:          -7.176
REMARK INTER:                  -7.610
REMARK INTRA:                   0.434
REMARK UNBOUND:                 0.319
REMARK  8 active torsions:
REMARK  status: ('A' for Active; 'I' for Inactive)
REMARK    1  A    between atoms: C_13  and  C_15 
REMARK    2  A    between atoms: C_14  and  C_16 
REMARK    3  A    between atoms: C_15  and  C_22 
REMARK    4  A    between atoms: C_16  and  C_23 
REMARK    5  A    between atoms: C_17  and  C_21 
REMARK    6  A    between atoms: C_18  and  C_24 
REMARK    7  A    between atoms: C_19  and  C_27 
REMARK    8  A    between atoms: C_20  and  C_30 
ROOT
HETATM    1  O   UNL     1       5.239  19.112  18.136  1.00  0.00    -0.304 OA
HETATM    2  O   UNL     1       6.067  22.421  14.699  1.00  0.00    -0.304 OA
HETATM    3  O   UNL     1       2.720  20.281  13.888  1.00  0.00    -0.304 OA
HETATM    4  O   UNL     1       4.409  21.443  17.231  1.00  0.00    -0.270 OA
HETATM    5  O   UNL     1       6.247  18.476  16.159  1.00  0.00    -0.263 OA
HETATM    6  O   UNL     1       2.299  19.125  16.168  1.00  0.00    -0.270 OA
HETATM    7  O   UNL     1       6.330  24.697  14.480  1.00  0.00    -0.263 OA
HETATM    8  O   UNL     1       6.319  23.726  11.518  1.00  0.00    -0.270 OA
HETATM    9  O   UNL     1       3.292  20.495  11.663  1.00  0.00    -0.263 OA
HETATM   10  N   UNL     1       6.470  22.505  17.317  1.00  0.00    -0.340 N 
HETATM   11  N   UNL     1       3.723  17.390  15.580  1.00  0.00    -0.340 N 
HETATM   12  N   UNL     1       4.197  23.074  12.186  1.00  0.00    -0.340 N 
HETATM   13  C   UNL     1       5.935  23.729  16.676  1.00  0.00     0.190 C 
HETATM   14  C   UNL     1       4.257  17.317  16.954  1.00  0.00     0.190 C 
HETATM   15  C   UNL     1       6.162  20.208  18.297  1.00  0.00     0.227 C 
HETATM   16  C   UNL     1       3.291  22.428  13.159  1.00  0.00     0.190 C 
HETATM   17  C   UNL     1       2.682  18.839  13.829  1.00  0.00     0.227 C 
HETATM   18  C   UNL     1       6.252  22.126  13.311  1.00  0.00     0.227 C 
HETATM   19  C   UNL     1       5.600  21.432  17.565  1.00  0.00     0.250 C 
HETATM   20  C   UNL     1       5.375  18.350  17.008  1.00  0.00     0.283 C 
HETATM   21  C   UNL     1       2.855  18.454  15.292  1.00  0.00     0.250 C 
HETATM   22  C   UNL     1       6.178  23.695  15.167  1.00  0.00     0.283 C 
HETATM   23  C   UNL     1       5.599  23.061  12.270  1.00  0.00     0.250 C 
HETATM   24  C   UNL     1       3.109  20.968  12.775  1.00  0.00     0.283 C 
HETATM   25  C   UNL     1       7.912  22.482  17.582  1.00  0.00     0.153 C 
HETATM   26  C   UNL     1       4.229  16.456  14.571  1.00  0.00     0.153 C 
HETATM   27  C   UNL     1       3.588  23.777  11.057  1.00  0.00     0.153 C 
ENDROOT
BRANCH  15  28
HETATM   28  C   UNL     1       6.263  20.490  19.790  1.00  0.00     0.016 C 
HETATM   29  C   UNL     1       4.993  21.170  20.297  1.00  0.00     0.012 C 
HETATM   30  C   UNL     1       6.525  19.200  20.566  1.00  0.00     0.012 C 
ENDBRANCH  15  28
BRANCH  14  31
HETATM   31  C   UNL     1       4.786  15.963  17.408  1.00  0.00     0.014 C 
HETATM   32  C   UNL     1       5.556  16.123  18.720  1.00  0.00     0.012 C 
BRANCH  31  33
HETATM   33  C   UNL     1       3.662  14.927  17.584  1.00  0.00     0.002 C 
HETATM   34  C   UNL     1       3.666  14.250  18.948  1.00  0.00     0.005 C 
ENDBRANCH  31  33
ENDBRANCH  14  31
BRANCH  13  35
HETATM   35  C   UNL     1       6.463  25.020  17.299  1.00  0.00     0.014 C 
HETATM   36  C   UNL     1       5.551  26.190  16.921  1.00  0.00     0.012 C 
BRANCH  35  37
HETATM   37  C   UNL     1       6.581  24.928  18.831  1.00  0.00     0.002 C 
HETATM   38  C   UNL     1       5.405  25.549  19.571  1.00  0.00     0.005 C 
ENDBRANCH  35  37
ENDBRANCH  13  35
BRANCH  17  39
HETATM   39  C   UNL     1       1.336  18.370  13.305  1.00  0.00     0.016 C 
HETATM   40  C   UNL     1       0.626  17.509  14.347  1.00  0.00     0.012 C 
HETATM   41  C   UNL     1       1.508  17.599  11.998  1.00  0.00     0.012 C 
ENDBRANCH  17  39
BRANCH  18  42
HETATM   42  C   UNL     1       7.755  21.981  13.068  1.00  0.00     0.016 C 
HETATM   43  C   UNL     1       8.442  21.356  14.282  1.00  0.00     0.012 C 
HETATM   44  C   UNL     1       8.022  21.149  11.815  1.00  0.00     0.012 C 
ENDBRANCH  18  42
BRANCH  16  45
HETATM   45  C   UNL     1       1.928  23.100  13.318  1.00  0.00     0.010 C 
HETATM   46  C   UNL     1       1.661  23.439  14.784  1.00  0.00     0.012 C 
HETATM   47  C   UNL     1       0.817  22.209  12.765  1.00  0.00     0.012 C 
ENDBRANCH  16  45
TORSDOF 8
ENDMDL
MODEL 16
REMARK VINA RESULT:    -5.088     17.306     20.115
REMARK INTER + INTRA:          -7.148
REMARK INTER:                  -7.474
REMARK INTRA:                   0.326
REMARK UNBOUND:                 0.319
REMARK  8 active torsions:
REMARK  status: ('A' for Active; 'I' for Inactive)
REMARK    1  A    between atoms: C_13  and  C_15 
REMARK    2  A    between atoms: C_14  and  C_16 
REMARK    3  A    between atoms: C_15  and  C_22 
REMARK    4  A    between atoms: C_16  and  C_23 
REMARK    5  A    between atoms: C_17  and  C_21 
REMARK    6  A    between atoms: C_18  and  C_24 
REMARK    7  A    between atoms: C_19  and  C_27 
REMARK    8  A    between atoms: C_20  and  C_30 
ROOT
HETATM    1  O   UNL     1      22.726  12.048  16.079  1.00  0.00    -0.304 OA
HETATM    2  O   UNL     1      21.008   8.051  13.954  1.00  0.00    -0.304 OA
HETATM    3  O   UNL     1      19.003   8.855  17.385  1.00  0.00    -0.304 OA
HETATM    4  O   UNL     1      20.693  11.133  14.676  1.00  0.00    -0.270 OA
HETATM    5  O   UNL     1      23.397   9.974  16.838  1.00  0.00    -0.263 OA
HETATM    6  O   UNL     1      19.756  11.291  17.847  1.00  0.00    -0.270 OA
HETATM    7  O   UNL     1      20.092   7.382  11.951  1.00  0.00    -0.263 OA
HETATM    8  O   UNL     1      19.821   4.823  13.709  1.00  0.00    -0.270 OA
HETATM    9  O   UNL     1      18.841   6.570  17.661  1.00  0.00    -0.263 OA
HETATM   10  N   UNL     1      21.948  10.299  12.912  1.00  0.00    -0.340 N 
HETATM   11  N   UNL     1      21.642  10.523  18.960  1.00  0.00    -0.340 N 
HETATM   12  N   UNL     1      18.504   6.304  14.911  1.00  0.00    -0.340 N 
HETATM   13  C   UNL     1      20.756   9.701  12.266  1.00  0.00     0.190 C 
HETATM   14  C   UNL     1      22.463  11.607  18.386  1.00  0.00     0.190 C 
HETATM   15  C   UNL     1      23.022  11.686  14.716  1.00  0.00     0.227 C 
HETATM   16  C   UNL     1      18.284   7.629  15.529  1.00  0.00     0.190 C 
HETATM   17  C   UNL     1      19.644   9.050  18.664  1.00  0.00     0.227 C 
HETATM   18  C   UNL     1      20.966   6.757  14.564  1.00  0.00     0.227 C 
HETATM   19  C   UNL     1      21.785  11.014  14.108  1.00  0.00     0.250 C 
HETATM   20  C   UNL     1      22.928  11.088  17.032  1.00  0.00     0.283 C 
HETATM   21  C   UNL     1      20.332  10.396  18.476  1.00  0.00     0.250 C 
HETATM   22  C   UNL     1      20.609   8.233  12.665  1.00  0.00     0.283 C 
HETATM   23  C   UNL     1      19.714   5.881  14.338  1.00  0.00     0.250 C 
HETATM   24  C   UNL     1      18.733   7.579  16.981  1.00  0.00     0.283 C 
HETATM   25  C   UNL     1      23.242  10.029  12.276  1.00  0.00     0.153 C 
HETATM   26  C   UNL     1      22.268   9.568  19.877  1.00  0.00     0.153 C 
HETATM   27  C   UNL     1      17.379   5.369  14.895  1.00  0.00     0.153 C 
ENDROOT
BRANCH  15  28
HETATM   28  C   UNL     1      23.338  12.976  13.971  1.00  0.00     0.016 C 
HETATM   29  C   UNL     1      22.758  14.181  14.710  1.00  0.00     0.012 C 
HETATM   30  C   UNL     1      24.846  13.137  13.786  1.00  0.00     0.012 C 
ENDBRANCH  15  28
BRANCH  14  31
HETATM   31  C   UNL     1      23.666  12.057  19.205  1.00  0.00     0.014 C 
HETATM   32  C   UNL     1      24.673  12.767  18.297  1.00  0.00     0.012 C 
BRANCH  31  33
HETATM   33  C   UNL     1      23.268  12.982  20.368  1.00  0.00     0.002 C 
HETATM   34  C   UNL     1      23.690  12.459  21.734  1.00  0.00     0.005 C 
ENDBRANCH  31  33
ENDBRANCH  14  31
BRANCH  13  35
HETATM   35  C   UNL     1      20.739   9.874  10.747  1.00  0.00     0.014 C 
HETATM   36  C   UNL     1      19.398   9.393  10.186  1.00  0.00     0.012 C 
BRANCH  35  37
HETATM   37  C   UNL     1      20.990  11.331  10.319  1.00  0.00     0.002 C 
HETATM   38  C   UNL     1      20.939  11.540   8.812  1.00  0.00     0.005 C 
ENDBRANCH  35  37
ENDBRANCH  13  35
BRANCH  17  39
HETATM   39  C   UNL     1      18.604   9.128  19.767  1.00  0.00     0.016 C 
HETATM   40  C   UNL     1      18.592  10.518  20.397  1.00  0.00     0.012 C 
HETATM   41  C   UNL     1      18.864   8.060  20.827  1.00  0.00     0.012 C 
ENDBRANCH  17  39
BRANCH  18  42
HETATM   42  C   UNL     1      22.245   6.018  14.166  1.00  0.00     0.016 C 
HETATM   43  C   UNL     1      23.418   6.992  14.051  1.00  0.00     0.012 C 
HETATM   44  C   UNL     1      22.564   4.912  15.169  1.00  0.00     0.012 C 
ENDBRANCH  18  42
BRANCH  16  45
HETATM   45  C   UNL     1      16.852   8.153  15.442  1.00  0.00     0.010 C 
HETATM   46  C   UNL     1      16.804   9.467  14.663  1.00  0.00     0.012 C 
HETATM   47  C   UNL     1      16.257   8.338  16.837  1.00  0.00     0.012 C 
ENDBRANCH  16  45
TORSDOF 8
ENDMDL
MODEL 17
REMARK VINA RESULT:    -5.086     17.470     21.466
REMARK INTER + INTRA:          -7.145
REMARK INTER:                  -8.296
REMARK INTRA:                   1.151
REMARK UNBOUND:                 0.319
REMARK  8 active torsions:
REMARK  status: ('A' for Active; 'I' for Inactive)
REMARK    1  A    between atoms: C_13  and  C_15 
REMARK    2  A    between atoms: C_14  and  C_16 
REMARK    3  A    between atoms: C_15  and  C_22 
REMARK    4  A    between atoms: C_16  and  C_23 
REMARK    5  A    between atoms: C_17  and  C_21 
REMARK    6  A    between atoms: C_18  and  C_24 
REMARK    7  A    between atoms: C_19  and  C_27 
REMARK    8  A    between atoms: C_20  and  C_30 
ROOT
HETATM    1  O   UNL     1      14.226  11.178  34.035  1.00  0.00    -0.304 OA
HETATM    2  O   UNL     1      12.359   9.100  30.080  1.00  0.00    -0.304 OA
HETATM    3  O   UNL     1      10.238  12.390  31.139  1.00  0.00    -0.304 OA
HETATM    4  O   UNL     1      14.035  11.447  31.422  1.00  0.00    -0.270 OA
HETATM    5  O   UNL     1      12.383   9.802  34.231  1.00  0.00    -0.263 OA
HETATM    6  O   UNL     1      11.858  13.510  32.823  1.00  0.00    -0.270 OA
HETATM    7  O   UNL     1      12.989   8.498  27.949  1.00  0.00    -0.263 OA
HETATM    8  O   UNL     1       9.930   7.899  27.948  1.00  0.00    -0.270 OA
HETATM    9  O   UNL     1       8.375  11.260  30.380  1.00  0.00    -0.263 OA
HETATM   10  N   UNL     1      14.873   9.353  30.882  1.00  0.00    -0.340 N 
HETATM   11  N   UNL     1      10.995  12.222  34.549  1.00  0.00    -0.340 N 
HETATM   12  N   UNL     1       9.914  10.186  28.325  1.00  0.00    -0.340 N 
HETATM   13  C   UNL     1      14.601   9.548  29.438  1.00  0.00     0.190 C 
HETATM   14  C   UNL     1      12.335  12.060  35.144  1.00  0.00     0.190 C 
HETATM   15  C   UNL     1      14.927  10.190  33.254  1.00  0.00     0.227 C 
HETATM   16  C   UNL     1      10.414  11.382  29.036  1.00  0.00     0.190 C 
HETATM   17  C   UNL     1       9.682  12.599  32.454  1.00  0.00     0.227 C 
HETATM   18  C   UNL     1      11.017   8.616  29.970  1.00  0.00     0.227 C 
HETATM   19  C   UNL     1      14.566  10.389  31.777  1.00  0.00     0.250 C 
HETATM   20  C   UNL     1      12.954  10.866  34.428  1.00  0.00     0.283 C 
HETATM   21  C   UNL     1      10.929  12.845  33.294  1.00  0.00     0.250 C 
HETATM   22  C   UNL     1      13.248   8.945  29.060  1.00  0.00     0.283 C 
HETATM   23  C   UNL     1      10.255   8.863  28.649  1.00  0.00     0.250 C 
HETATM   24  C   UNL     1       9.525  11.650  30.240  1.00  0.00     0.283 C 
HETATM   25  C   UNL     1      15.385   8.036  31.278  1.00  0.00     0.153 C 
HETATM   26  C   UNL     1       9.844  11.607  35.214  1.00  0.00     0.153 C 
HETATM   27  C   UNL     1       9.000  10.399  27.202  1.00  0.00     0.153 C 
ENDROOT
BRANCH  15  28
HETATM   28  C   UNL     1      16.416  10.427  33.467  1.00  0.00     0.016 C 
HETATM   29  C   UNL     1      16.663  11.818  34.048  1.00  0.00     0.012 C 
HETATM   30  C   UNL     1      17.008   9.354  34.378  1.00  0.00     0.012 C 
ENDBRANCH  15  28
BRANCH  14  31
HETATM   31  C   UNL     1      12.389  11.841  36.650  1.00  0.00     0.014 C 
HETATM   32  C   UNL     1      12.672  10.367  36.948  1.00  0.00     0.012 C 
BRANCH  31  33
HETATM   33  C   UNL     1      13.449  12.725  37.331  1.00  0.00     0.002 C 
HETATM   34  C   UNL     1      14.724  11.976  37.694  1.00  0.00     0.005 C 
ENDBRANCH  31  33
ENDBRANCH  14  31
BRANCH  13  35
HETATM   35  C   UNL     1      15.718   9.028  28.534  1.00  0.00     0.014 C 
HETATM   36  C   UNL     1      17.038   9.718  28.891  1.00  0.00     0.012 C 
BRANCH  35  37
HETATM   37  C   UNL     1      15.888   7.501  28.629  1.00  0.00     0.002 C 
HETATM   38  C   UNL     1      15.999   6.815  27.276  1.00  0.00     0.005 C 
ENDBRANCH  35  37
ENDBRANCH  13  35
BRANCH  17  39
HETATM   39  C   UNL     1       8.782  13.821  32.456  1.00  0.00     0.016 C 
HETATM   40  C   UNL     1       7.316  13.409  32.345  1.00  0.00     0.012 C 
HETATM   41  C   UNL     1       9.161  14.768  31.319  1.00  0.00     0.012 C 
ENDBRANCH  17  39
BRANCH  18  42
HETATM   42  C   UNL     1      11.032   7.132  30.337  1.00  0.00     0.016 C 
HETATM   43  C   UNL     1      12.069   6.854  31.425  1.00  0.00     0.012 C 
HETATM   44  C   UNL     1       9.647   6.674  30.791  1.00  0.00     0.012 C 
ENDBRANCH  18  42
BRANCH  16  45
HETATM   45  C   UNL     1      10.530  12.642  28.181  1.00  0.00     0.010 C 
HETATM   46  C   UNL     1      11.753  13.462  28.590  1.00  0.00     0.012 C 
HETATM   47  C   UNL     1       9.261  13.487  28.287  1.00  0.00     0.012 C 
ENDBRANCH  16  45
TORSDOF 8
ENDMDL
MODEL 18
REMARK VINA RESULT:    -5.035     17.600     21.182
REMARK INTER + INTRA:          -7.070
REMARK INTER:                  -7.421
REMARK INTRA:                   0.350
REMARK UNBOUND:                 0.319
REMARK  8 active torsions:
REMARK  status: ('A' for Active; 'I' for Inactive)
REMARK    1  A    between atoms: C_13  and  C_15 
REMARK    2  A    between atoms: C_14  and  C_16 
REMARK    3  A    between atoms: C_15  and  C_22 
REMARK    4  A    between atoms: C_16  and  C_23 
REMARK    5  A    between atoms: C_17  and  C_21 
REMARK    6  A    between atoms: C_18  and  C_24 
REMARK    7  A    between atoms: C_19  and  C_27 
REMARK    8  A    between atoms: C_20  and  C_30 
ROOT
HETATM    1  O   UNL     1      14.939   8.764  30.000  1.00  0.00    -0.304 OA
HETATM    2  O   UNL     1      10.097   8.841  30.013  1.00  0.00    -0.304 OA
HETATM    3  O   UNL     1      11.609  11.782  32.360  1.00  0.00    -0.304 OA
HETATM    4  O   UNL     1      12.864  10.084  29.054  1.00  0.00    -0.270 OA
HETATM    5  O   UNL     1      13.787   7.813  31.759  1.00  0.00    -0.263 OA
HETATM    6  O   UNL     1      14.089  11.800  31.606  1.00  0.00    -0.270 OA
HETATM    7  O   UNL     1       8.340   9.027  28.538  1.00  0.00    -0.263 OA
HETATM    8  O   UNL     1       6.911   9.087  31.307  1.00  0.00    -0.270 OA
HETATM    9  O   UNL     1       9.784  11.435  33.728  1.00  0.00    -0.263 OA
HETATM   10  N   UNL     1      11.816   8.258  28.081  1.00  0.00    -0.340 N 
HETATM   11  N   UNL     1      14.590  10.126  33.134  1.00  0.00    -0.340 N 
HETATM   12  N   UNL     1       8.225  10.990  31.467  1.00  0.00    -0.340 N 
HETATM   13  C   UNL     1      10.627   9.061  27.709  1.00  0.00     0.190 C 
HETATM   14  C   UNL     1      15.511   9.482  32.176  1.00  0.00     0.190 C 
HETATM   15  C   UNL     1      14.133   8.053  29.039  1.00  0.00     0.227 C 
HETATM   16  C   UNL     1       9.522  11.681  31.310  1.00  0.00     0.190 C 
HETATM   17  C   UNL     1      12.558  11.554  33.423  1.00  0.00     0.227 C 
HETATM   18  C   UNL     1       9.283   8.713  31.183  1.00  0.00     0.227 C 
HETATM   19  C   UNL     1      12.885   8.890  28.733  1.00  0.00     0.250 C 
HETATM   20  C   UNL     1      14.636   8.577  31.320  1.00  0.00     0.283 C 
HETATM   21  C   UNL     1      13.823  11.197  32.653  1.00  0.00     0.250 C 
HETATM   22  C   UNL     1       9.538   8.935  28.774  1.00  0.00     0.283 C 
HETATM   23  C   UNL     1       8.031   9.609  31.306  1.00  0.00     0.250 C 
HETATM   24  C   UNL     1      10.281  11.615  32.626  1.00  0.00     0.283 C 
HETATM   25  C   UNL     1      11.748   6.821  27.797  1.00  0.00     0.153 C 
HETATM   26  C   UNL     1      14.421   9.534  34.463  1.00  0.00     0.153 C 
HETATM   27  C   UNL     1       7.061  11.806  31.812  1.00  0.00     0.153 C 
ENDROOT
BRANCH  15  28
HETATM   28  C   UNL     1      14.977   7.891  27.782  1.00  0.00     0.016 C 
HETATM   29  C   UNL     1      16.282   8.675  27.904  1.00  0.00     0.012 C 
HETATM   30  C   UNL     1      15.262   6.415  27.511  1.00  0.00     0.012 C 
ENDBRANCH  15  28
BRANCH  14  31
HETATM   31  C   UNL     1      16.658   8.676  32.772  1.00  0.00     0.014 C 
HETATM   32  C   UNL     1      17.148   7.645  31.754  1.00  0.00     0.012 C 
BRANCH  31  33
HETATM   33  C   UNL     1      17.830   9.568  33.218  1.00  0.00     0.002 C 
HETATM   34  C   UNL     1      18.061  10.769  32.311  1.00  0.00     0.005 C 
ENDBRANCH  31  33
ENDBRANCH  14  31
BRANCH  13  35
HETATM   35  C   UNL     1      10.087   8.737  26.316  1.00  0.00     0.014 C 
HETATM   36  C   UNL     1       9.330   9.945  25.759  1.00  0.00     0.012 C 
BRANCH  35  37
HETATM   37  C   UNL     1      11.200   8.324  25.337  1.00  0.00     0.002 C 
HETATM   38  C   UNL     1      10.684   7.919  23.963  1.00  0.00     0.005 C 
ENDBRANCH  35  37
ENDBRANCH  13  35
BRANCH  17  39
HETATM   39  C   UNL     1      12.760  12.824  34.229  1.00  0.00     0.016 C 
HETATM   40  C   UNL     1      14.112  13.455  33.908  1.00  0.00     0.012 C 
HETATM   41  C   UNL     1      12.644  12.536  35.724  1.00  0.00     0.012 C 
ENDBRANCH  17  39
BRANCH  18  42
HETATM   42  C   UNL     1       8.929   7.233  31.337  1.00  0.00     0.016 C 
HETATM   43  C   UNL     1      10.097   6.349  30.898  1.00  0.00     0.012 C 
HETATM   44  C   UNL     1       8.535   6.920  32.779  1.00  0.00     0.012 C 
ENDBRANCH  18  42
BRANCH  16  45
HETATM   45  C   UNL     1       9.431  13.129  30.831  1.00  0.00     0.010 C 
HETATM   46  C   UNL     1      10.277  13.337  29.576  1.00  0.00     0.012 C 
HETATM   47  C   UNL     1       9.865  14.093  31.934  1.00  0.00     0.012 C 
ENDBRANCH  16  45
TORSDOF 8
ENDMDL
MODEL 19
REMARK VINA RESULT:    -5.018      2.021      7.731
REMARK INTER + INTRA:          -7.046
REMARK INTER:                  -7.619
REMARK INTRA:                   0.573
REMARK UNBOUND:                 0.319
REMARK  8 active torsions:
REMARK  status: ('A' for Active; 'I' for Inactive)
REMARK    1  A    between atoms: C_13  and  C_15 
REMARK    2  A    between atoms: C_14  and  C_16 
REMARK    3  A    between atoms: C_15  and  C_22 
REMARK    4  A    between atoms: C_16  and  C_23 
REMARK    5  A    between atoms: C_17  and  C_21 
REMARK    6  A    between atoms: C_18  and  C_24 
REMARK    7  A    between atoms: C_19  and  C_27 
REMARK    8  A    between atoms: C_20  and  C_30 
ROOT
HETATM    1  O   UNL     1       6.189  22.849  13.339  1.00  0.00    -0.304 OA
HETATM    2  O   UNL     1       2.943  21.888  16.802  1.00  0.00    -0.304 OA
HETATM    3  O   UNL     1       5.628  18.871  16.442  1.00  0.00    -0.304 OA
HETATM    4  O   UNL     1       5.883  22.755  15.954  1.00  0.00    -0.270 OA
HETATM    5  O   UNL     1       4.408  21.454  12.879  1.00  0.00    -0.263 OA
HETATM    6  O   UNL     1       7.467  20.005  15.012  1.00  0.00    -0.270 OA
HETATM    7  O   UNL     1       2.147  22.793  18.762  1.00  0.00    -0.263 OA
HETATM    8  O   UNL     1       0.709  20.029  18.658  1.00  0.00    -0.270 OA
HETATM    9  O   UNL     1       3.889  17.449  16.966  1.00  0.00    -0.263 OA
HETATM   10  N   UNL     1       4.053  24.176  16.054  1.00  0.00    -0.340 N 
HETATM   11  N   UNL     1       6.344  19.429  13.065  1.00  0.00    -0.340 N 
HETATM   12  N   UNL     1       2.925  19.352  18.753  1.00  0.00    -0.340 N 
HETATM   13  C   UNL     1       3.880  23.952  17.509  1.00  0.00     0.190 C 
HETATM   14  C   UNL     1       6.690  20.721  12.442  1.00  0.00     0.190 C 
HETATM   15  C   UNL     1       5.311  23.845  13.901  1.00  0.00     0.227 C 
HETATM   16  C   UNL     1       4.327  19.453  18.296  1.00  0.00     0.190 C 
HETATM   17  C   UNL     1       5.919  18.197  15.199  1.00  0.00     0.227 C 
HETATM   18  C   UNL     1       2.083  20.744  16.818  1.00  0.00     0.227 C 
HETATM   19  C   UNL     1       5.110  23.537  15.389  1.00  0.00     0.250 C 
HETATM   20  C   UNL     1       5.609  21.692  12.898  1.00  0.00     0.283 C 
HETATM   21  C   UNL     1       6.668  19.270  14.420  1.00  0.00     0.250 C 
HETATM   22  C   UNL     1       2.854  22.847  17.764  1.00  0.00     0.283 C 
HETATM   23  C   UNL     1       1.843  20.028  18.166  1.00  0.00     0.250 C 
HETATM   24  C   UNL     1       4.557  18.451  17.176  1.00  0.00     0.283 C 
HETATM   25  C   UNL     1       3.040  25.008  15.397  1.00  0.00     0.153 C 
HETATM   26  C   UNL     1       5.566  18.456  12.295  1.00  0.00     0.153 C 
HETATM   27  C   UNL     1       2.647  18.487  19.900  1.00  0.00     0.153 C 
ENDROOT
BRANCH  15  28
HETATM   28  C   UNL     1       6.001  25.192  13.733  1.00  0.00     0.016 C 
HETATM   29  C   UNL     1       6.705  25.602  15.024  1.00  0.00     0.012 C 
HETATM   30  C   UNL     1       6.993  25.149  12.572  1.00  0.00     0.012 C 
ENDBRANCH  15  28
BRANCH  14  31
HETATM   31  C   UNL     1       6.790  20.740  10.923  1.00  0.00     0.014 C 
HETATM   32  C   UNL     1       6.401  22.123  10.396  1.00  0.00     0.012 C 
BRANCH  31  33
HETATM   33  C   UNL     1       8.198  20.369  10.426  1.00  0.00     0.002 C 
HETATM   34  C   UNL     1       9.289  20.586  11.466  1.00  0.00     0.005 C 
ENDBRANCH  31  33
ENDBRANCH  14  31
BRANCH  13  35
HETATM   35  C   UNL     1       3.537  25.224  18.283  1.00  0.00     0.014 C 
HETATM   36  C   UNL     1       3.590  24.946  19.788  1.00  0.00     0.012 C 
BRANCH  35  37
HETATM   37  C   UNL     1       4.477  26.393  17.936  1.00  0.00     0.002 C 
HETATM   38  C   UNL     1       3.769  27.737  17.848  1.00  0.00     0.005 C 
ENDBRANCH  35  37
ENDBRANCH  13  35
BRANCH  17  39
HETATM   39  C   UNL     1       6.809  16.994  15.450  1.00  0.00     0.016 C 
HETATM   40  C   UNL     1       8.172  17.188  14.790  1.00  0.00     0.012 C 
HETATM   41  C   UNL     1       6.143  15.718  14.939  1.00  0.00     0.012 C 
ENDBRANCH  17  39
BRANCH  18  42
HETATM   42  C   UNL     1       0.765  21.149  16.157  1.00  0.00     0.016 C 
HETATM   43  C   UNL     1       1.014  22.125  15.008  1.00  0.00     0.012 C 
HETATM   44  C   UNL     1       0.010  19.918  15.659  1.00  0.00     0.012 C 
ENDBRANCH  18  42
BRANCH  16  45
HETATM   45  C   UNL     1       5.378  19.266  19.388  1.00  0.00     0.010 C 
HETATM   46  C   UNL     1       6.425  20.378  19.326  1.00  0.00     0.012 C 
HETATM   47  C   UNL     1       6.046  17.897  19.269  1.00  0.00     0.012 C 
ENDBRANCH  16  45
TORSDOF 8
ENDMDL
MODEL 20
REMARK VINA RESULT:    -4.917     16.601     19.934
REMARK INTER + INTRA:          -6.898
REMARK INTER:                  -7.343
REMARK INTRA:                   0.445
REMARK UNBOUND:                 0.319
REMARK  8 active torsions:
REMARK  status: ('A' for Active; 'I' for Inactive)
REMARK    1  A    between atoms: C_13  and  C_15 
REMARK    2  A    between atoms: C_14  and  C_16 
REMARK    3  A    between atoms: C_15  and  C_22 
REMARK    4  A    between atoms: C_16  and  C_23 
REMARK    5  A    between atoms: C_17  and  C_21 
REMARK    6  A    between atoms: C_18  and  C_24 
REMARK    7  A    between atoms: C_19  and  C_27 
REMARK    8  A    between atoms: C_20  and  C_30 
ROOT
HETATM    1  O   UNL     1      19.049   9.849  16.229  1.00  0.00    -0.304 OA
HETATM    2  O   UNL     1      17.772   6.786  19.756  1.00  0.00    -0.304 OA
HETATM    3  O   UNL     1      19.661  10.042  21.264  1.00  0.00    -0.304 OA
HETATM    4  O   UNL     1      17.305   9.506  18.174  1.00  0.00    -0.270 OA
HETATM    5  O   UNL     1      20.618   8.404  17.110  1.00  0.00    -0.263 OA
HETATM    6  O   UNL     1      19.604  11.643  19.227  1.00  0.00    -0.270 OA
HETATM    7  O   UNL     1      15.887   5.775  20.606  1.00  0.00    -0.263 OA
HETATM    8  O   UNL     1      18.087   4.938  22.650  1.00  0.00    -0.270 OA
HETATM    9  O   UNL     1      20.544   8.619  22.851  1.00  0.00    -0.263 OA
HETATM   10  N   UNL     1      16.555   7.421  17.488  1.00  0.00    -0.340 N 
HETATM   11  N   UNL     1      21.562  10.709  18.406  1.00  0.00    -0.340 N 
HETATM   12  N   UNL     1      18.127   7.243  22.903  1.00  0.00    -0.340 N 
HETATM   13  C   UNL     1      15.704   7.263  18.691  1.00  0.00     0.190 C 
HETATM   14  C   UNL     1      21.063  10.797  17.020  1.00  0.00     0.190 C 
HETATM   15  C   UNL     1      18.109   8.772  16.042  1.00  0.00     0.227 C 
HETATM   16  C   UNL     1      18.156   8.605  22.330  1.00  0.00     0.190 C 
HETATM   17  C   UNL     1      20.959  10.494  20.823  1.00  0.00     0.227 C 
HETATM   18  C   UNL     1      18.683   6.180  20.678  1.00  0.00     0.227 C 
HETATM   19  C   UNL     1      17.295   8.603  17.330  1.00  0.00     0.250 C 
HETATM   20  C   UNL     1      20.248   9.529  16.802  1.00  0.00     0.283 C 
HETATM   21  C   UNL     1      20.656  11.026  19.428  1.00  0.00     0.250 C 
HETATM   22  C   UNL     1      16.445   6.480  19.775  1.00  0.00     0.283 C 
HETATM   23  C   UNL     1      18.255   6.059  22.158  1.00  0.00     0.250 C 
HETATM   24  C   UNL     1      19.601   9.062  22.212  1.00  0.00     0.283 C 
HETATM   25  C   UNL     1      16.615   6.275  16.575  1.00  0.00     0.153 C 
HETATM   26  C   UNL     1      22.902  10.166  18.644  1.00  0.00     0.153 C 
HETATM   27  C   UNL     1      17.950   7.121  24.350  1.00  0.00     0.153 C 
ENDROOT
BRANCH  15  28
HETATM   28  C   UNL     1      17.194   9.174  14.893  1.00  0.00     0.016 C 
HETATM   29  C   UNL     1      17.474  10.611  14.457  1.00  0.00     0.012 C 
HETATM   30  C   UNL     1      17.355   8.217  13.713  1.00  0.00     0.012 C 
ENDBRANCH  15  28
BRANCH  14  31
HETATM   31  C   UNL     1      22.113  10.928  15.925  1.00  0.00     0.014 C 
HETATM   32  C   UNL     1      21.592  10.300  14.630  1.00  0.00     0.012 C 
BRANCH  31  33
HETATM   33  C   UNL     1      22.513  12.392  15.671  1.00  0.00     0.002 C 
HETATM   34  C   UNL     1      23.883  12.755  16.228  1.00  0.00     0.005 C 
ENDBRANCH  31  33
ENDBRANCH  14  31
BRANCH  13  35
HETATM   35  C   UNL     1      14.338   6.648  18.390  1.00  0.00     0.014 C 
HETATM   36  C   UNL     1      13.390   6.888  19.569  1.00  0.00     0.012 C 
BRANCH  35  37
HETATM   37  C   UNL     1      13.713   7.207  17.099  1.00  0.00     0.002 C 
HETATM   38  C   UNL     1      12.272   6.768  16.880  1.00  0.00     0.005 C 
ENDBRANCH  35  37
ENDBRANCH  13  35
BRANCH  17  39
HETATM   39  C   UNL     1      21.462  11.606  21.725  1.00  0.00     0.016 C 
HETATM   40  C   UNL     1      21.826  12.841  20.903  1.00  0.00     0.012 C 
HETATM   41  C   UNL     1      22.663  11.133  22.542  1.00  0.00     0.012 C 
ENDBRANCH  17  39
BRANCH  18  42
HETATM   42  C   UNL     1      19.087   4.823  20.101  1.00  0.00     0.016 C 
HETATM   43  C   UNL     1      19.198   4.895  18.578  1.00  0.00     0.012 C 
HETATM   44  C   UNL     1      20.404   4.347  20.711  1.00  0.00     0.012 C 
ENDBRANCH  18  42
BRANCH  16  45
HETATM   45  C   UNL     1      17.339   9.645  23.093  1.00  0.00     0.010 C 
HETATM   46  C   UNL     1      16.511  10.495  22.129  1.00  0.00     0.012 C 
HETATM   47  C   UNL     1      18.249  10.533  23.941  1.00  0.00     0.012 C 
ENDBRANCH  16  45
TORSDOF 8
ENDMDL
