MODEL 1
REMARK VINA RESULT:    -5.597      0.000      0.000
REMARK INTER + INTRA:          -7.850
REMARK INTER:                  -8.215
REMARK INTRA:                   0.366
REMARK UNBOUND:                 0.366
REMARK  8 active torsions:
REMARK  status: ('A' for Active; 'I' for Inactive)
REMARK    1  A    between atoms: C_13  and  C_15 
REMARK    2  A    between atoms: C_14  and  C_16 
REMARK    3  A    between atoms: C_15  and  C_22 
REMARK    4  A    between atoms: C_16  and  C_23 
REMARK    5  A    between atoms: C_17  and  C_21 
REMARK    6  A    between atoms: C_18  and  C_24 
REMARK    7  A    between atoms: C_19  and  C_27 
REMARK    8  A    between atoms: C_20  and  C_30 
ROOT
HETATM    1  O   UNL     1      40.163  43.906  46.891  1.00  0.00    -0.304 OA
HETATM    2  O   UNL     1      44.239  42.592  44.631  1.00  0.00    -0.304 OA
HETATM    3  O   UNL     1      43.553  40.259  47.875  1.00  0.00    -0.304 OA
HETATM    4  O   UNL     1      41.180  42.053  45.319  1.00  0.00    -0.270 OA
HETATM    5  O   UNL     1      42.201  44.618  47.708  1.00  0.00    -0.263 OA
HETATM    6  O   UNL     1      41.082  40.839  48.397  1.00  0.00    -0.270 OA
HETATM    7  O   UNL     1      44.948  41.889  42.557  1.00  0.00    -0.263 OA
HETATM    8  O   UNL     1      47.524  41.604  44.288  1.00  0.00    -0.270 OA
HETATM    9  O   UNL     1      45.844  40.195  48.138  1.00  0.00    -0.263 OA
HETATM   10  N   UNL     1      41.940  43.498  43.671  1.00  0.00    -0.340 N 
HETATM   11  N   UNL     1      41.752  42.660  49.669  1.00  0.00    -0.340 N 
HETATM   12  N   UNL     1      46.118  40.111  45.370  1.00  0.00    -0.340 N 
HETATM   13  C   UNL     1      42.598  42.400  42.925  1.00  0.00     0.190 C 
HETATM   14  C   UNL     1      40.625  43.469  49.167  1.00  0.00     0.190 C 
HETATM   15  C   UNL     1      40.504  44.338  45.559  1.00  0.00     0.227 C 
HETATM   16  C   UNL     1      44.809  39.769  45.965  1.00  0.00     0.190 C 
HETATM   17  C   UNL     1      43.329  40.776  49.204  1.00  0.00     0.227 C 
HETATM   18  C   UNL     1      45.535  42.567  45.236  1.00  0.00     0.227 C 
HETATM   19  C   UNL     1      41.238  43.195  44.848  1.00  0.00     0.250 C 
HETATM   20  C   UNL     1      41.114  44.076  47.858  1.00  0.00     0.283 C 
HETATM   21  C   UNL     1      41.948  41.405  49.074  1.00  0.00     0.250 C 
HETATM   22  C   UNL     1      44.074  42.297  43.311  1.00  0.00     0.283 C 
HETATM   23  C   UNL     1      46.475  41.387  44.904  1.00  0.00     0.250 C 
HETATM   24  C   UNL     1      44.840  40.093  47.450  1.00  0.00     0.283 C 
HETATM   25  C   UNL     1      42.139  44.854  43.149  1.00  0.00     0.153 C 
HETATM   26  C   UNL     1      42.676  43.255  50.638  1.00  0.00     0.153 C 
HETATM   27  C   UNL     1      47.112  39.043  45.259  1.00  0.00     0.153 C 
ENDROOT
BRANCH  15  28
HETATM   28  C   UNL     1      39.197  44.647  44.842  1.00  0.00     0.016 C 
HETATM   29  C   UNL     1      38.001  44.232  45.698  1.00  0.00     0.012 C 
HETATM   30  C   UNL     1      39.113  46.132  44.490  1.00  0.00     0.012 C 
ENDBRANCH  15  28
BRANCH  14  31
HETATM   31  C   UNL     1      40.115  44.571  50.086  1.00  0.00     0.014 C 
HETATM   32  C   UNL     1      39.413  45.651  49.258  1.00  0.00     0.012 C 
BRANCH  31  33
HETATM   33  C   UNL     1      39.158  44.035  51.165  1.00  0.00     0.002 C 
HETATM   34  C   UNL     1      38.201  42.967  50.655  1.00  0.00     0.005 C 
ENDBRANCH  31  33
ENDBRANCH  14  31
BRANCH  13  35
HETATM   35  C   UNL     1      42.422  42.505  41.410  1.00  0.00     0.014 C 
HETATM   36  C   UNL     1      42.972  41.245  40.736  1.00  0.00     0.012 C 
BRANCH  35  37
HETATM   37  C   UNL     1      40.952  42.713  41.003  1.00  0.00     0.002 C 
HETATM   38  C   UNL     1      40.543  41.918  39.772  1.00  0.00     0.005 C 
ENDBRANCH  35  37
ENDBRANCH  13  35
BRANCH  17  39
HETATM   39  C   UNL     1      43.310  39.642  50.212  1.00  0.00     0.016 C 
HETATM   40  C   UNL     1      42.007  39.653  51.009  1.00  0.00     0.012 C 
HETATM   41  C   UNL     1      44.513  39.736  51.149  1.00  0.00     0.012 C 
ENDBRANCH  17  39
BRANCH  18  42
HETATM   42  C   UNL     1      46.203  43.912  44.951  1.00  0.00     0.016 C 
HETATM   43  C   UNL     1      45.174  45.042  44.973  1.00  0.00     0.012 C 
HETATM   44  C   UNL     1      47.319  44.185  45.957  1.00  0.00     0.012 C 
ENDBRANCH  18  42
BRANCH  16  45
HETATM   45  C   UNL     1      44.361  38.324  45.754  1.00  0.00     0.010 C 
HETATM   46  C   UNL     1      42.939  38.275  45.196  1.00  0.00     0.012 C 
HETATM   47  C   UNL     1      44.450  37.533  47.058  1.00  0.00     0.012 C 
ENDBRANCH  16  45
TORSDOF 8
ENDMDL
MODEL 2
REMARK VINA RESULT:    -4.918      1.743      2.432
REMARK INTER + INTRA:          -6.852
REMARK INTER:                  -7.192
REMARK INTRA:                   0.340
REMARK UNBOUND:                 0.366
REMARK  8 active torsions:
REMARK  status: ('A' for Active; 'I' for Inactive)
REMARK    1  A    between atoms: C_13  and  C_15 
REMARK    2  A    between atoms: C_14  and  C_16 
REMARK    3  A    between atoms: C_15  and  C_22 
REMARK    4  A    between atoms: C_16  and  C_23 
REMARK    5  A    between atoms: C_17  and  C_21 
REMARK    6  A    between atoms: C_18  and  C_24 
REMARK    7  A    between atoms: C_19  and  C_27 
REMARK    8  A    between atoms: C_20  and  C_30 
ROOT
HETATM    1  O   UNL     1      40.113  45.697  45.237  1.00  0.00    -0.304 OA
HETATM    2  O   UNL     1      43.828  42.828  44.046  1.00  0.00    -0.304 OA
HETATM    3  O   UNL     1      42.802  42.346  47.939  1.00  0.00    -0.304 OA
HETATM    4  O   UNL     1      40.739  43.192  44.713  1.00  0.00    -0.270 OA
HETATM    5  O   UNL     1      42.265  46.332  45.777  1.00  0.00    -0.263 OA
HETATM    6  O   UNL     1      40.491  43.516  47.997  1.00  0.00    -0.270 OA
HETATM    7  O   UNL     1      44.349  41.162  42.545  1.00  0.00    -0.263 OA
HETATM    8  O   UNL     1      46.869  41.238  44.378  1.00  0.00    -0.270 OA
HETATM    9  O   UNL     1      45.049  42.010  48.343  1.00  0.00    -0.263 OA
HETATM   10  N   UNL     1      41.711  43.593  42.645  1.00  0.00    -0.340 N 
HETATM   11  N   UNL     1      41.511  45.567  48.371  1.00  0.00    -0.340 N 
HETATM   12  N   UNL     1      45.240  40.654  45.921  1.00  0.00    -0.340 N 
HETATM   13  C   UNL     1      42.141  42.182  42.504  1.00  0.00     0.190 C 
HETATM   14  C   UNL     1      40.539  46.248  47.494  1.00  0.00     0.190 C 
HETATM   15  C   UNL     1      40.497  45.422  43.875  1.00  0.00     0.227 C 
HETATM   16  C   UNL     1      43.904  40.845  46.524  1.00  0.00     0.190 C 
HETATM   17  C   UNL     1      42.706  43.432  48.886  1.00  0.00     0.227 C 
HETATM   18  C   UNL     1      45.111  42.851  44.679  1.00  0.00     0.227 C 
HETATM   19  C   UNL     1      40.994  43.974  43.789  1.00  0.00     0.250 C 
HETATM   20  C   UNL     1      41.101  46.112  46.085  1.00  0.00     0.283 C 
HETATM   21  C   UNL     1      41.461  44.165  48.406  1.00  0.00     0.250 C 
HETATM   22  C   UNL     1      43.581  42.008  42.986  1.00  0.00     0.283 C 
HETATM   23  C   UNL     1      45.812  41.504  44.961  1.00  0.00     0.250 C 
HETATM   24  C   UNL     1      44.027  41.787  47.711  1.00  0.00     0.283 C 
HETATM   25  C   UNL     1      42.143  44.516  41.590  1.00  0.00     0.153 C 
HETATM   26  C   UNL     1      42.550  46.361  49.031  1.00  0.00     0.153 C 
HETATM   27  C   UNL     1      46.018  39.493  46.355  1.00  0.00     0.153 C 
ENDROOT
BRANCH  15  28
HETATM   28  C   UNL     1      39.251  45.600  43.016  1.00  0.00     0.016 C 
HETATM   29  C   UNL     1      38.000  45.670  43.889  1.00  0.00     0.012 C 
HETATM   30  C   UNL     1      39.369  46.853  42.149  1.00  0.00     0.012 C 
ENDBRANCH  15  28
BRANCH  14  31
HETATM   31  C   UNL     1      40.260  47.714  47.797  1.00  0.00     0.014 C 
HETATM   32  C   UNL     1      39.707  48.404  46.548  1.00  0.00     0.012 C 
BRANCH  31  33
HETATM   33  C   UNL     1      39.280  47.892  48.970  1.00  0.00     0.002 C 
HETATM   34  C   UNL     1      39.840  48.730  50.111  1.00  0.00     0.005 C 
ENDBRANCH  31  33
ENDBRANCH  14  31
BRANCH  13  35
HETATM   35  C   UNL     1      41.952  41.629  41.092  1.00  0.00     0.014 C 
HETATM   36  C   UNL     1      41.740  40.114  41.153  1.00  0.00     0.012 C 
BRANCH  35  37
HETATM   37  C   UNL     1      40.774  42.289  40.355  1.00  0.00     0.002 C 
HETATM   38  C   UNL     1      40.290  41.499  39.148  1.00  0.00     0.005 C 
ENDBRANCH  35  37
ENDBRANCH  13  35
BRANCH  17  39
HETATM   39  C   UNL     1      42.504  42.889  50.288  1.00  0.00     0.016 C 
HETATM   40  C   UNL     1      41.160  43.345  50.851  1.00  0.00     0.012 C 
HETATM   41  C   UNL     1      43.646  43.327  51.204  1.00  0.00     0.012 C 
ENDBRANCH  17  39
BRANCH  18  42
HETATM   42  C   UNL     1      46.007  43.789  43.869  1.00  0.00     0.016 C 
HETATM   43  C   UNL     1      45.202  44.968  43.323  1.00  0.00     0.012 C 
HETATM   44  C   UNL     1      47.175  44.286  44.717  1.00  0.00     0.012 C 
ENDBRANCH  18  42
BRANCH  16  45
HETATM   45  C   UNL     1      43.195  39.560  46.947  1.00  0.00     0.010 C 
HETATM   46  C   UNL     1      41.856  39.418  46.224  1.00  0.00     0.012 C 
HETATM   47  C   UNL     1      42.989  39.528  48.461  1.00  0.00     0.012 C 
ENDBRANCH  16  45
TORSDOF 8
ENDMDL
MODEL 3
REMARK VINA RESULT:    -4.911      1.941      6.464
REMARK INTER + INTRA:          -6.842
REMARK INTER:                  -7.875
REMARK INTRA:                   1.033
REMARK UNBOUND:                 0.366
REMARK  8 active torsions:
REMARK  status: ('A' for Active; 'I' for Inactive)
REMARK    1  A    between atoms: C_13  and  C_15 
REMARK    2  A    between atoms: C_14  and  C_16 
REMARK    3  A    between atoms: C_15  and  C_22 
REMARK    4  A    between atoms: C_16  and  C_23 
REMARK    5  A    between atoms: C_17  and  C_21 
REMARK    6  A    between atoms: C_18  and  C_24 
REMARK    7  A    between atoms: C_19  and  C_27 
REMARK    8  A    between atoms: C_20  and  C_30 
ROOT
HETATM    1  O   UNL     1      41.419  41.791  43.555  1.00  0.00    -0.304 OA
HETATM    2  O   UNL     1      44.539  42.031  47.252  1.00  0.00    -0.304 OA
HETATM    3  O   UNL     1      41.394  44.524  47.833  1.00  0.00    -0.304 OA
HETATM    4  O   UNL     1      41.759  41.045  46.059  1.00  0.00    -0.270 OA
HETATM    5  O   UNL     1      42.941  43.524  43.654  1.00  0.00    -0.263 OA
HETATM    6  O   UNL     1      39.733  43.661  46.040  1.00  0.00    -0.270 OA
HETATM    7  O   UNL     1      45.511  40.656  48.821  1.00  0.00    -0.263 OA
HETATM    8  O   UNL     1      46.480  43.485  49.702  1.00  0.00    -0.270 OA
HETATM    9  O   UNL     1      42.890  45.943  48.866  1.00  0.00    -0.263 OA
HETATM   10  N   UNL     1      43.797  39.984  45.740  1.00  0.00    -0.340 N 
HETATM   11  N   UNL     1      40.708  45.032  44.442  1.00  0.00    -0.340 N 
HETATM   12  N   UNL     1      44.186  43.728  49.941  1.00  0.00    -0.340 N 
HETATM   13  C   UNL     1      43.962  39.728  47.190  1.00  0.00     0.190 C 
HETATM   14  C   UNL     1      40.562  43.988  43.409  1.00  0.00     0.190 C 
HETATM   15  C   UNL     1      42.458  40.817  43.780  1.00  0.00     0.227 C 
HETATM   16  C   UNL     1      42.810  43.566  49.428  1.00  0.00     0.190 C 
HETATM   17  C   UNL     1      40.972  45.522  46.879  1.00  0.00     0.227 C 
HETATM   18  C   UNL     1      45.202  43.224  47.682  1.00  0.00     0.227 C 
HETATM   19  C   UNL     1      42.637  40.633  45.292  1.00  0.00     0.250 C 
HETATM   20  C   UNL     1      41.795  43.105  43.550  1.00  0.00     0.283 C 
HETATM   21  C   UNL     1      40.390  44.670  45.759  1.00  0.00     0.250 C 
HETATM   22  C   UNL     1      44.801  40.830  47.838  1.00  0.00     0.283 C 
HETATM   23  C   UNL     1      45.351  43.471  49.199  1.00  0.00     0.250 C 
HETATM   24  C   UNL     1      42.398  44.837  48.702  1.00  0.00     0.283 C 
HETATM   25  C   UNL     1      44.918  39.594  44.877  1.00  0.00     0.153 C 
HETATM   26  C   UNL     1      41.302  46.319  44.071  1.00  0.00     0.153 C 
HETATM   27  C   UNL     1      44.344  44.187  51.321  1.00  0.00     0.153 C 
ENDROOT
BRANCH  15  28
HETATM   28  C   UNL     1      41.992  39.514  43.144  1.00  0.00     0.016 C 
HETATM   29  C   UNL     1      40.990  38.800  44.050  1.00  0.00     0.012 C 
HETATM   30  C   UNL     1      41.379  39.773  41.769  1.00  0.00     0.012 C 
ENDBRANCH  15  28
BRANCH  14  31
HETATM   31  C   UNL     1      40.434  44.468  41.969  1.00  0.00     0.014 C 
HETATM   32  C   UNL     1      40.831  43.341  41.012  1.00  0.00     0.012 C 
BRANCH  31  33
HETATM   33  C   UNL     1      39.013  44.957  41.640  1.00  0.00     0.002 C 
HETATM   34  C   UNL     1      38.942  46.441  41.307  1.00  0.00     0.005 C 
ENDBRANCH  31  33
ENDBRANCH  14  31
BRANCH  13  35
HETATM   35  C   UNL     1      44.522  38.341  47.503  1.00  0.00     0.014 C 
HETATM   36  C   UNL     1      45.935  38.470  48.079  1.00  0.00     0.012 C 
BRANCH  35  37
HETATM   37  C   UNL     1      43.631  37.555  48.482  1.00  0.00     0.002 C 
HETATM   38  C   UNL     1      43.819  37.961  49.936  1.00  0.00     0.005 C 
ENDBRANCH  35  37
ENDBRANCH  13  35
BRANCH  17  39
HETATM   39  C   UNL     1      39.904  46.412  47.488  1.00  0.00     0.016 C 
HETATM   40  C   UNL     1      38.599  46.297  46.705  1.00  0.00     0.012 C 
HETATM   41  C   UNL     1      40.377  47.864  47.533  1.00  0.00     0.012 C 
ENDBRANCH  17  39
BRANCH  18  42
HETATM   42  C   UNL     1      46.554  43.281  46.970  1.00  0.00     0.016 C 
HETATM   43  C   UNL     1      46.438  42.741  45.545  1.00  0.00     0.012 C 
HETATM   44  C   UNL     1      47.098  44.708  46.959  1.00  0.00     0.012 C 
ENDBRANCH  18  42
BRANCH  16  45
HETATM   45  C   UNL     1      41.765  43.203  50.481  1.00  0.00     0.010 C 
HETATM   46  C   UNL     1      41.060  41.897  50.116  1.00  0.00     0.012 C 
HETATM   47  C   UNL     1      40.748  44.331  50.645  1.00  0.00     0.012 C 
ENDBRANCH  16  45
TORSDOF 8
ENDMDL
MODEL 4
REMARK VINA RESULT:    -4.892      1.977      7.767
REMARK INTER + INTRA:          -6.814
REMARK INTER:                  -7.234
REMARK INTRA:                   0.420
REMARK UNBOUND:                 0.366
REMARK  8 active torsions:
REMARK  status: ('A' for Active; 'I' for Inactive)
REMARK    1  A    between atoms: C_13  and  C_15 
REMARK    2  A    between atoms: C_14  and  C_16 
REMARK    3  A    between atoms: C_15  and  C_22 
REMARK    4  A    between atoms: C_16  and  C_23 
REMARK    5  A    between atoms: C_17  and  C_21 
REMARK    6  A    between atoms: C_18  and  C_24 
REMARK    7  A    between atoms: C_19  and  C_27 
REMARK    8  A    between atoms: C_20  and  C_30 
ROOT
HETATM    1  O   UNL     1      42.128  41.255  44.449  1.00  0.00    -0.304 OA
HETATM    2  O   UNL     1      43.340  43.629  48.492  1.00  0.00    -0.304 OA
HETATM    3  O   UNL     1      40.159  45.369  46.677  1.00  0.00    -0.304 OA
HETATM    4  O   UNL     1      41.385  41.653  46.945  1.00  0.00    -0.270 OA
HETATM    5  O   UNL     1      43.392  43.181  44.306  1.00  0.00    -0.263 OA
HETATM    6  O   UNL     1      39.466  43.520  44.999  1.00  0.00    -0.270 OA
HETATM    7  O   UNL     1      43.593  43.242  50.747  1.00  0.00    -0.263 OA
HETATM    8  O   UNL     1      43.980  46.328  50.540  1.00  0.00    -0.270 OA
HETATM    9  O   UNL     1      41.010  47.379  47.425  1.00  0.00    -0.263 OA
HETATM   10  N   UNL     1      43.400  41.042  47.918  1.00  0.00    -0.340 N 
HETATM   11  N   UNL     1      40.982  44.332  43.440  1.00  0.00    -0.340 N 
HETATM   12  N   UNL     1      41.800  46.121  49.778  1.00  0.00    -0.340 N 
HETATM   13  C   UNL     1      42.934  41.423  49.272  1.00  0.00     0.190 C 
HETATM   14  C   UNL     1      41.335  42.962  43.020  1.00  0.00     0.190 C 
HETATM   15  C   UNL     1      43.005  40.710  45.455  1.00  0.00     0.227 C 
HETATM   16  C   UNL     1      40.786  45.464  48.927  1.00  0.00     0.190 C 
HETATM   17  C   UNL     1      40.152  45.789  45.295  1.00  0.00     0.227 C 
HETATM   18  C   UNL     1      43.707  45.011  48.547  1.00  0.00     0.227 C 
HETATM   19  C   UNL     1      42.522  41.182  46.832  1.00  0.00     0.250 C 
HETATM   20  C   UNL     1      42.420  42.509  43.989  1.00  0.00     0.283 C 
HETATM   21  C   UNL     1      40.141  44.457  44.556  1.00  0.00     0.250 C 
HETATM   22  C   UNL     1      43.370  42.849  49.608  1.00  0.00     0.283 C 
HETATM   23  C   UNL     1      43.179  45.863  49.722  1.00  0.00     0.250 C 
HETATM   24  C   UNL     1      40.679  46.218  47.611  1.00  0.00     0.283 C 
HETATM   25  C   UNL     1      44.797  40.608  47.806  1.00  0.00     0.153 C 
HETATM   26  C   UNL     1      41.628  45.466  42.777  1.00  0.00     0.153 C 
HETATM   27  C   UNL     1      41.331  47.110  50.749  1.00  0.00     0.153 C 
ENDROOT
BRANCH  15  28
HETATM   28  C   UNL     1      42.908  39.194  45.357  1.00  0.00     0.016 C 
HETATM   29  C   UNL     1      41.878  38.786  44.304  1.00  0.00     0.012 C 
HETATM   30  C   UNL     1      44.272  38.586  45.035  1.00  0.00     0.012 C 
ENDBRANCH  15  28
BRANCH  14  31
HETATM   31  C   UNL     1      41.821  42.793  41.587  1.00  0.00     0.014 C 
HETATM   32  C   UNL     1      42.653  41.513  41.471  1.00  0.00     0.012 C 
BRANCH  31  33
HETATM   33  C   UNL     1      40.661  42.756  40.577  1.00  0.00     0.002 C 
HETATM   34  C   UNL     1      40.603  41.470  39.763  1.00  0.00     0.005 C 
ENDBRANCH  31  33
ENDBRANCH  14  31
BRANCH  13  35
HETATM   35  C   UNL     1      43.357  40.437  50.359  1.00  0.00     0.014 C 
HETATM   36  C   UNL     1      42.488  40.634  51.604  1.00  0.00     0.012 C 
BRANCH  35  37
HETATM   37  C   UNL     1      43.270  38.973  49.891  1.00  0.00     0.002 C 
HETATM   38  C   UNL     1      43.544  37.963  50.995  1.00  0.00     0.005 C 
ENDBRANCH  35  37
ENDBRANCH  13  35
BRANCH  17  39
HETATM   39  C   UNL     1      38.893  46.581  44.993  1.00  0.00     0.016 C 
HETATM   40  C   UNL     1      38.042  45.860  43.950  1.00  0.00     0.012 C 
HETATM   41  C   UNL     1      39.245  47.989  44.518  1.00  0.00     0.012 C 
ENDBRANCH  17  39
BRANCH  18  42
HETATM   42  C   UNL     1      45.231  45.087  48.442  1.00  0.00     0.016 C 
HETATM   43  C   UNL     1      45.762  44.009  47.496  1.00  0.00     0.012 C 
HETATM   44  C   UNL     1      45.672  46.473  47.974  1.00  0.00     0.012 C 
ENDBRANCH  18  42
BRANCH  16  45
HETATM   45  C   UNL     1      39.404  45.320  49.562  1.00  0.00     0.010 C 
HETATM   46  C   UNL     1      38.951  43.860  49.545  1.00  0.00     0.012 C 
HETATM   47  C   UNL     1      38.384  46.203  48.844  1.00  0.00     0.012 C 
ENDBRANCH  16  45
TORSDOF 8
ENDMDL
MODEL 5
REMARK VINA RESULT:    -4.882      3.058      7.288
REMARK INTER + INTRA:          -6.799
REMARK INTER:                  -7.194
REMARK INTRA:                   0.395
REMARK UNBOUND:                 0.366
REMARK  8 active torsions:
REMARK  status: ('A' for Active; 'I' for Inactive)
REMARK    1  A    between atoms: C_13  and  C_15 
REMARK    2  A    between atoms: C_14  and  C_16 
REMARK    3  A    between atoms: C_15  and  C_22 
REMARK    4  A    between atoms: C_16  and  C_23 
REMARK    5  A    between atoms: C_17  and  C_21 
REMARK    6  A    between atoms: C_18  and  C_24 
REMARK    7  A    between atoms: C_19  and  C_27 
REMARK    8  A    between atoms: C_20  and  C_30 
ROOT
HETATM    1  O   UNL     1      44.807  46.484  41.768  1.00  0.00    -0.304 OA
HETATM    2  O   UNL     1      42.066  42.897  43.520  1.00  0.00    -0.304 OA
HETATM    3  O   UNL     1      45.967  42.356  44.485  1.00  0.00    -0.304 OA
HETATM    4  O   UNL     1      43.750  45.554  43.994  1.00  0.00    -0.270 OA
HETATM    5  O   UNL     1      44.703  44.472  40.641  1.00  0.00    -0.263 OA
HETATM    6  O   UNL     1      46.946  44.694  43.946  1.00  0.00    -0.270 OA
HETATM    7  O   UNL     1      40.253  42.588  44.904  1.00  0.00    -0.263 OA
HETATM    8  O   UNL     1      41.154  39.665  44.303  1.00  0.00    -0.270 OA
HETATM    9  O   UNL     1      45.563  40.096  44.264  1.00  0.00    -0.263 OA
HETATM   10  N   UNL     1      41.560  45.483  43.233  1.00  0.00    -0.340 N 
HETATM   11  N   UNL     1      47.260  44.079  41.731  1.00  0.00    -0.340 N 
HETATM   12  N   UNL     1      43.041  40.479  45.376  1.00  0.00    -0.340 N 
HETATM   13  C   UNL     1      41.083  44.835  44.477  1.00  0.00     0.190 C 
HETATM   14  C   UNL     1      46.857  45.421  41.266  1.00  0.00     0.190 C 
HETATM   15  C   UNL     1      43.370  46.553  41.852  1.00  0.00     0.227 C 
HETATM   16  C   UNL     1      44.068  41.525  45.567  1.00  0.00     0.190 C 
HETATM   17  C   UNL     1      47.041  42.346  43.520  1.00  0.00     0.227 C 
HETATM   18  C   UNL     1      42.242  41.511  43.211  1.00  0.00     0.227 C 
HETATM   19  C   UNL     1      42.918  45.817  43.119  1.00  0.00     0.250 C 
HETATM   20  C   UNL     1      45.338  45.375  41.168  1.00  0.00     0.283 C 
HETATM   21  C   UNL     1      47.106  43.809  43.098  1.00  0.00     0.250 C 
HETATM   22  C   UNL     1      41.038  43.316  44.309  1.00  0.00     0.283 C 
HETATM   23  C   UNL     1      42.082  40.480  44.350  1.00  0.00     0.250 C 
HETATM   24  C   UNL     1      45.274  41.200  44.699  1.00  0.00     0.283 C 
HETATM   25  C   UNL     1      40.568  45.662  42.168  1.00  0.00     0.153 C 
HETATM   26  C   UNL     1      47.653  43.074  40.741  1.00  0.00     0.153 C 
HETATM   27  C   UNL     1      43.024  39.366  46.324  1.00  0.00     0.153 C 
ENDROOT
BRANCH  15  28
HETATM   28  C   UNL     1      43.000  48.028  41.943  1.00  0.00     0.016 C 
HETATM   29  C   UNL     1      43.377  48.595  43.311  1.00  0.00     0.012 C 
HETATM   30  C   UNL     1      43.678  48.824  40.829  1.00  0.00     0.012 C 
ENDBRANCH  15  28
BRANCH  14  31
HETATM   31  C   UNL     1      47.445  45.887  39.941  1.00  0.00     0.014 C 
HETATM   32  C   UNL     1      46.550  46.969  39.331  1.00  0.00     0.012 C 
BRANCH  31  33
HETATM   33  C   UNL     1      48.880  46.420  40.093  1.00  0.00     0.002 C 
HETATM   34  C   UNL     1      49.128  47.134  41.415  1.00  0.00     0.005 C 
ENDBRANCH  31  33
ENDBRANCH  14  31
BRANCH  13  35
HETATM   35  C   UNL     1      39.745  45.383  44.973  1.00  0.00     0.014 C 
HETATM   36  C   UNL     1      39.537  44.997  46.440  1.00  0.00     0.012 C 
BRANCH  35  37
HETATM   37  C   UNL     1      39.643  46.911  44.818  1.00  0.00     0.002 C 
HETATM   38  C   UNL     1      38.227  47.403  44.557  1.00  0.00     0.005 C 
ENDBRANCH  35  37
ENDBRANCH  13  35
BRANCH  17  39
HETATM   39  C   UNL     1      48.338  41.919  44.181  1.00  0.00     0.016 C 
HETATM   40  C   UNL     1      49.397  43.011  44.041  1.00  0.00     0.012 C 
HETATM   41  C   UNL     1      48.839  40.606  43.583  1.00  0.00     0.012 C 
ENDBRANCH  17  39
BRANCH  18  42
HETATM   42  C   UNL     1      41.330  41.184  42.028  1.00  0.00     0.016 C 
HETATM   43  C   UNL     1      41.390  42.291  40.977  1.00  0.00     0.012 C 
HETATM   44  C   UNL     1      41.708  39.839  41.410  1.00  0.00     0.012 C 
ENDBRANCH  18  42
BRANCH  16  45
HETATM   45  C   UNL     1      44.508  41.742  47.013  1.00  0.00     0.010 C 
HETATM   46  C   UNL     1      44.384  43.216  47.400  1.00  0.00     0.012 C 
HETATM   47  C   UNL     1      45.941  41.255  47.223  1.00  0.00     0.012 C 
ENDBRANCH  16  45
TORSDOF 8
ENDMDL
MODEL 6
REMARK VINA RESULT:    -4.854      2.925      8.677
REMARK INTER + INTRA:          -6.759
REMARK INTER:                  -7.103
REMARK INTRA:                   0.344
REMARK UNBOUND:                 0.366
REMARK  8 active torsions:
REMARK  status: ('A' for Active; 'I' for Inactive)
REMARK    1  A    between atoms: C_13  and  C_15 
REMARK    2  A    between atoms: C_14  and  C_16 
REMARK    3  A    between atoms: C_15  and  C_22 
REMARK    4  A    between atoms: C_16  and  C_23 
REMARK    5  A    between atoms: C_17  and  C_21 
REMARK    6  A    between atoms: C_18  and  C_24 
REMARK    7  A    between atoms: C_19  and  C_27 
REMARK    8  A    between atoms: C_20  and  C_30 
ROOT
HETATM    1  O   UNL     1      48.064  42.081  44.235  1.00  0.00    -0.304 OA
HETATM    2  O   UNL     1      43.528  43.338  45.372  1.00  0.00    -0.304 OA
HETATM    3  O   UNL     1      44.335  44.152  41.483  1.00  0.00    -0.304 OA
HETATM    4  O   UNL     1      45.552  41.346  43.939  1.00  0.00    -0.270 OA
HETATM    5  O   UNL     1      47.574  44.288  44.700  1.00  0.00    -0.263 OA
HETATM    6  O   UNL     1      46.524  42.810  41.134  1.00  0.00    -0.270 OA
HETATM    7  O   UNL     1      41.602  42.395  46.208  1.00  0.00    -0.263 OA
HETATM    8  O   UNL     1      40.677  45.276  45.458  1.00  0.00    -0.270 OA
HETATM    9  O   UNL     1      42.959  45.988  41.728  1.00  0.00    -0.263 OA
HETATM   10  N   UNL     1      45.022  41.310  46.197  1.00  0.00    -0.340 N 
HETATM   11  N   UNL     1      47.776  44.600  41.917  1.00  0.00    -0.340 N 
HETATM   12  N   UNL     1      41.303  44.475  43.374  1.00  0.00    -0.340 N 
HETATM   13  C   UNL     1      43.594  41.029  45.921  1.00  0.00     0.190 C 
HETATM   14  C   UNL     1      48.698  43.689  42.624  1.00  0.00     0.190 C 
HETATM   15  C   UNL     1      47.397  41.641  45.435  1.00  0.00     0.227 C 
HETATM   16  C   UNL     1      42.261  43.774  42.494  1.00  0.00     0.190 C 
HETATM   17  C   UNL     1      45.459  44.945  41.044  1.00  0.00     0.227 C 
HETATM   18  C   UNL     1      42.992  44.659  45.245  1.00  0.00     0.227 C 
HETATM   19  C   UNL     1      45.913  41.425  45.118  1.00  0.00     0.250 C 
HETATM   20  C   UNL     1      48.047  43.423  43.975  1.00  0.00     0.283 C 
HETATM   21  C   UNL     1      46.636  44.024  41.338  1.00  0.00     0.250 C 
HETATM   22  C   UNL     1      42.785  42.326  45.900  1.00  0.00     0.283 C 
HETATM   23  C   UNL     1      41.550  44.816  44.714  1.00  0.00     0.250 C 
HETATM   24  C   UNL     1      43.193  44.796  41.862  1.00  0.00     0.283 C 
HETATM   25  C   UNL     1      45.387  41.523  47.602  1.00  0.00     0.153 C 
HETATM   26  C   UNL     1      48.017  46.043  41.981  1.00  0.00     0.153 C 
HETATM   27  C   UNL     1      40.003  44.837  42.807  1.00  0.00     0.153 C 
ENDROOT
BRANCH  15  28
HETATM   28  C   UNL     1      48.043  40.325  45.847  1.00  0.00     0.016 C 
HETATM   29  C   UNL     1      48.602  39.594  44.627  1.00  0.00     0.012 C 
HETATM   30  C   UNL     1      49.145  40.564  46.878  1.00  0.00     0.012 C 
ENDBRANCH  15  28
BRANCH  14  31
HETATM   31  C   UNL     1      50.123  44.187  42.828  1.00  0.00     0.014 C 
HETATM   32  C   UNL     1      50.634  43.742  44.201  1.00  0.00     0.012 C 
BRANCH  31  33
HETATM   33  C   UNL     1      51.078  43.691  41.729  1.00  0.00     0.002 C 
HETATM   34  C   UNL     1      50.732  42.306  41.200  1.00  0.00     0.005 C 
ENDBRANCH  31  33
ENDBRANCH  14  31
BRANCH  13  35
HETATM   35  C   UNL     1      42.982  40.003  46.874  1.00  0.00     0.014 C 
HETATM   36  C   UNL     1      41.726  39.394  46.245  1.00  0.00     0.012 C 
BRANCH  35  37
HETATM   37  C   UNL     1      43.972  38.884  47.246  1.00  0.00     0.002 C 
HETATM   38  C   UNL     1      44.276  37.933  46.097  1.00  0.00     0.005 C 
ENDBRANCH  35  37
ENDBRANCH  13  35
BRANCH  17  39
HETATM   39  C   UNL     1      45.355  45.226  39.556  1.00  0.00     0.016 C 
HETATM   40  C   UNL     1      46.588  44.703  38.824  1.00  0.00     0.012 C 
HETATM   41  C   UNL     1      45.174  46.721  39.303  1.00  0.00     0.012 C 
ENDBRANCH  17  39
BRANCH  18  42
HETATM   42  C   UNL     1      43.171  45.360  46.592  1.00  0.00     0.016 C 
HETATM   43  C   UNL     1      44.483  44.936  47.252  1.00  0.00     0.012 C 
HETATM   44  C   UNL     1      43.124  46.877  46.422  1.00  0.00     0.012 C 
ENDBRANCH  18  42
BRANCH  16  45
HETATM   45  C   UNL     1      41.627  42.903  41.411  1.00  0.00     0.010 C 
HETATM   46  C   UNL     1      41.789  41.421  41.745  1.00  0.00     0.012 C 
HETATM   47  C   UNL     1      42.236  43.212  40.043  1.00  0.00     0.012 C 
ENDBRANCH  16  45
TORSDOF 8
ENDMDL
MODEL 7
REMARK VINA RESULT:    -4.853      2.835      7.951
REMARK INTER + INTRA:          -6.757
REMARK INTER:                  -7.334
REMARK INTRA:                   0.577
REMARK UNBOUND:                 0.366
REMARK  8 active torsions:
REMARK  status: ('A' for Active; 'I' for Inactive)
REMARK    1  A    between atoms: C_13  and  C_15 
REMARK    2  A    between atoms: C_14  and  C_16 
REMARK    3  A    between atoms: C_15  and  C_22 
REMARK    4  A    between atoms: C_16  and  C_23 
REMARK    5  A    between atoms: C_17  and  C_21 
REMARK    6  A    between atoms: C_18  and  C_24 
REMARK    7  A    between atoms: C_19  and  C_27 
REMARK    8  A    between atoms: C_20  and  C_30 
ROOT
HETATM    1  O   UNL     1      47.244  43.879  42.053  1.00  0.00    -0.304 OA
HETATM    2  O   UNL     1      45.630  42.701  46.464  1.00  0.00    -0.304 OA
HETATM    3  O   UNL     1      42.981  41.599  43.599  1.00  0.00    -0.304 OA
HETATM    4  O   UNL     1      46.895  41.834  43.677  1.00  0.00    -0.270 OA
HETATM    5  O   UNL     1      45.699  45.234  43.103  1.00  0.00    -0.263 OA
HETATM    6  O   UNL     1      44.434  41.811  41.464  1.00  0.00    -0.270 OA
HETATM    7  O   UNL     1      46.270  41.461  48.295  1.00  0.00    -0.263 OA
HETATM    8  O   UNL     1      43.379  42.346  49.052  1.00  0.00    -0.270 OA
HETATM    9  O   UNL     1      41.330  42.101  45.131  1.00  0.00    -0.263 OA
HETATM   10  N   UNL     1      48.085  42.714  45.464  1.00  0.00    -0.340 N 
HETATM   11  N   UNL     1      43.899  44.063  41.295  1.00  0.00    -0.340 N 
HETATM   12  N   UNL     1      42.954  41.088  47.151  1.00  0.00    -0.340 N 
HETATM   13  C   UNL     1      47.720  41.580  46.345  1.00  0.00     0.190 C 
HETATM   14  C   UNL     1      45.271  44.390  40.859  1.00  0.00     0.190 C 
HETATM   15  C   UNL     1      48.082  43.863  43.226  1.00  0.00     0.227 C 
HETATM   16  C   UNL     1      43.252  40.723  45.750  1.00  0.00     0.190 C 
HETATM   17  C   UNL     1      42.452  42.500  42.604  1.00  0.00     0.227 C 
HETATM   18  C   UNL     1      44.398  43.158  47.030  1.00  0.00     0.227 C 
HETATM   19  C   UNL     1      47.629  42.717  44.137  1.00  0.00     0.250 C 
HETATM   20  C   UNL     1      46.070  44.573  42.142  1.00  0.00     0.283 C 
HETATM   21  C   UNL     1      43.665  42.746  41.717  1.00  0.00     0.250 C 
HETATM   22  C   UNL     1      46.489  41.925  47.183  1.00  0.00     0.283 C 
HETATM   23  C   UNL     1      43.548  42.156  47.842  1.00  0.00     0.250 C 
HETATM   24  C   UNL     1      42.380  41.556  44.825  1.00  0.00     0.283 C 
HETATM   25  C   UNL     1      48.849  43.803  46.082  1.00  0.00     0.153 C 
HETATM   26  C   UNL     1      42.912  45.140  41.401  1.00  0.00     0.153 C 
HETATM   27  C   UNL     1      41.969  40.276  47.867  1.00  0.00     0.153 C 
ENDROOT
BRANCH  15  28
HETATM   28  C   UNL     1      49.509  43.623  42.750  1.00  0.00     0.016 C 
HETATM   29  C   UNL     1      49.517  42.787  41.471  1.00  0.00     0.012 C 
HETATM   30  C   UNL     1      50.235  44.948  42.528  1.00  0.00     0.012 C 
ENDBRANCH  15  28
BRANCH  14  31
HETATM   31  C   UNL     1      45.428  45.620  39.974  1.00  0.00     0.014 C 
HETATM   32  C   UNL     1      46.878  46.107  40.021  1.00  0.00     0.012 C 
BRANCH  31  33
HETATM   33  C   UNL     1      45.015  45.348  38.517  1.00  0.00     0.002 C 
HETATM   34  C   UNL     1      45.076  46.582  37.627  1.00  0.00     0.005 C 
ENDBRANCH  31  33
ENDBRANCH  14  31
BRANCH  13  35
HETATM   35  C   UNL     1      48.875  41.096  47.221  1.00  0.00     0.014 C 
HETATM   36  C   UNL     1      48.472  39.811  47.948  1.00  0.00     0.012 C 
BRANCH  35  37
HETATM   37  C   UNL     1      50.164  40.855  46.414  1.00  0.00     0.002 C 
HETATM   38  C   UNL     1      50.018  39.788  45.339  1.00  0.00     0.005 C 
ENDBRANCH  35  37
ENDBRANCH  13  35
BRANCH  17  39
HETATM   39  C   UNL     1      41.341  41.824  41.821  1.00  0.00     0.016 C 
HETATM   40  C   UNL     1      41.876  40.605  41.074  1.00  0.00     0.012 C 
HETATM   41  C   UNL     1      40.695  42.808  40.847  1.00  0.00     0.012 C 
ENDBRANCH  17  39
BRANCH  18  42
HETATM   42  C   UNL     1      44.704  44.418  47.842  1.00  0.00     0.016 C 
HETATM   43  C   UNL     1      45.798  45.244  47.166  1.00  0.00     0.012 C 
HETATM   44  C   UNL     1      43.442  45.256  48.034  1.00  0.00     0.012 C 
ENDBRANCH  18  42
BRANCH  16  45
HETATM   45  C   UNL     1      43.095  39.239  45.421  1.00  0.00     0.010 C 
HETATM   46  C   UNL     1      44.442  38.624  45.044  1.00  0.00     0.012 C 
HETATM   47  C   UNL     1      42.082  39.039  44.295  1.00  0.00     0.012 C 
ENDBRANCH  16  45
TORSDOF 8
ENDMDL
MODEL 8
REMARK VINA RESULT:    -4.836      1.990      4.017
REMARK INTER + INTRA:          -6.732
REMARK INTER:                  -8.172
REMARK INTRA:                   1.441
REMARK UNBOUND:                 0.366
REMARK  8 active torsions:
REMARK  status: ('A' for Active; 'I' for Inactive)
REMARK    1  A    between atoms: C_13  and  C_15 
REMARK    2  A    between atoms: C_14  and  C_16 
REMARK    3  A    between atoms: C_15  and  C_22 
REMARK    4  A    between atoms: C_16  and  C_23 
REMARK    5  A    between atoms: C_17  and  C_21 
REMARK    6  A    between atoms: C_18  and  C_24 
REMARK    7  A    between atoms: C_19  and  C_27 
REMARK    8  A    between atoms: C_20  and  C_30 
ROOT
HETATM    1  O   UNL     1      40.410  43.176  48.060  1.00  0.00    -0.304 OA
HETATM    2  O   UNL     1      42.421  44.760  43.949  1.00  0.00    -0.304 OA
HETATM    3  O   UNL     1      43.209  40.826  44.537  1.00  0.00    -0.304 OA
HETATM    4  O   UNL     1      40.148  43.107  45.440  1.00  0.00    -0.270 OA
HETATM    5  O   UNL     1      42.652  43.723  48.023  1.00  0.00    -0.263 OA
HETATM    6  O   UNL     1      41.509  40.248  46.405  1.00  0.00    -0.270 OA
HETATM    7  O   UNL     1      41.811  45.758  41.967  1.00  0.00    -0.263 OA
HETATM    8  O   UNL     1      44.834  45.149  41.518  1.00  0.00    -0.270 OA
HETATM    9  O   UNL     1      45.252  41.232  43.545  1.00  0.00    -0.263 OA
HETATM   10  N   UNL     1      40.131  45.404  45.119  1.00  0.00    -0.340 N 
HETATM   11  N   UNL     1      43.017  40.939  48.026  1.00  0.00    -0.340 N 
HETATM   12  N   UNL     1      44.006  43.002  41.797  1.00  0.00    -0.340 N 
HETATM   13  C   UNL     1      40.120  45.260  43.644  1.00  0.00     0.190 C 
HETATM   14  C   UNL     1      41.933  41.540  48.827  1.00  0.00     0.190 C 
HETATM   15  C   UNL     1      40.057  44.426  47.435  1.00  0.00     0.227 C 
HETATM   16  C   UNL     1      43.175  42.023  42.528  1.00  0.00     0.190 C 
HETATM   17  C   UNL     1      43.802  40.296  45.742  1.00  0.00     0.227 C 
HETATM   18  C   UNL     1      43.820  44.707  43.653  1.00  0.00     0.227 C 
HETATM   19  C   UNL     1      40.121  44.248  45.914  1.00  0.00     0.250 C 
HETATM   20  C   UNL     1      41.742  42.941  48.264  1.00  0.00     0.283 C 
HETATM   21  C   UNL     1      42.675  40.461  46.753  1.00  0.00     0.250 C 
HETATM   22  C   UNL     1      41.541  45.339  43.086  1.00  0.00     0.283 C 
HETATM   23  C   UNL     1      44.251  44.318  42.222  1.00  0.00     0.250 C 
HETATM   24  C   UNL     1      44.034  41.323  43.569  1.00  0.00     0.283 C 
HETATM   25  C   UNL     1      40.227  46.771  45.641  1.00  0.00     0.153 C 
HETATM   26  C   UNL     1      44.391  41.004  48.530  1.00  0.00     0.153 C 
HETATM   27  C   UNL     1      44.614  42.567  40.539  1.00  0.00     0.153 C 
ENDROOT
BRANCH  15  28
HETATM   28  C   UNL     1      38.633  44.752  47.866  1.00  0.00     0.016 C 
HETATM   29  C   UNL     1      38.069  43.640  48.749  1.00  0.00     0.012 C 
HETATM   30  C   UNL     1      38.584  46.093  48.597  1.00  0.00     0.012 C 
ENDBRANCH  15  28
BRANCH  14  31
HETATM   31  C   UNL     1      42.159  41.616  50.331  1.00  0.00     0.014 C 
HETATM   32  C   UNL     1      41.581  42.925  50.875  1.00  0.00     0.012 C 
BRANCH  31  33
HETATM   33  C   UNL     1      41.540  40.421  51.078  1.00  0.00     0.002 C 
HETATM   34  C   UNL     1      40.027  40.511  51.223  1.00  0.00     0.005 C 
ENDBRANCH  31  33
ENDBRANCH  14  31
BRANCH  13  35
HETATM   35  C   UNL     1      39.188  46.250  42.945  1.00  0.00     0.014 C 
HETATM   36  C   UNL     1      39.964  47.514  42.565  1.00  0.00     0.012 C 
BRANCH  35  37
HETATM   37  C   UNL     1      38.528  45.649  41.691  1.00  0.00     0.002 C 
HETATM   38  C   UNL     1      38.052  46.694  40.693  1.00  0.00     0.005 C 
ENDBRANCH  35  37
ENDBRANCH  13  35
BRANCH  17  39
HETATM   39  C   UNL     1      44.147  38.830  45.556  1.00  0.00     0.016 C 
HETATM   40  C   UNL     1      43.765  38.027  46.797  1.00  0.00     0.012 C 
HETATM   41  C   UNL     1      45.633  38.663  45.245  1.00  0.00     0.012 C 
ENDBRANCH  17  39
BRANCH  18  42
HETATM   42  C   UNL     1      44.431  46.043  44.077  1.00  0.00     0.016 C 
HETATM   43  C   UNL     1      43.741  46.579  45.331  1.00  0.00     0.012 C 
HETATM   44  C   UNL     1      45.933  45.898  44.314  1.00  0.00     0.012 C 
ENDBRANCH  18  42
BRANCH  16  45
HETATM   45  C   UNL     1      42.469  40.990  41.652  1.00  0.00     0.010 C 
HETATM   46  C   UNL     1      41.331  41.637  40.863  1.00  0.00     0.012 C 
HETATM   47  C   UNL     1      41.942  39.832  42.498  1.00  0.00     0.012 C 
ENDBRANCH  16  45
TORSDOF 8
ENDMDL
MODEL 9
REMARK VINA RESULT:    -4.809      3.509      7.958
REMARK INTER + INTRA:          -6.692
REMARK INTER:                  -7.602
REMARK INTRA:                   0.910
REMARK UNBOUND:                 0.366
REMARK  8 active torsions:
REMARK  status: ('A' for Active; 'I' for Inactive)
REMARK    1  A    between atoms: C_13  and  C_15 
REMARK    2  A    between atoms: C_14  and  C_16 
REMARK    3  A    between atoms: C_15  and  C_22 
REMARK    4  A    between atoms: C_16  and  C_23 
REMARK    5  A    between atoms: C_17  and  C_21 
REMARK    6  A    between atoms: C_18  and  C_24 
REMARK    7  A    between atoms: C_19  and  C_27 
REMARK    8  A    between atoms: C_20  and  C_30 
ROOT
HETATM    1  O   UNL     1      44.256  40.976  44.130  1.00  0.00    -0.304 OA
HETATM    2  O   UNL     1      46.799  44.659  42.281  1.00  0.00    -0.304 OA
HETATM    3  O   UNL     1      43.013  45.803  43.173  1.00  0.00    -0.304 OA
HETATM    4  O   UNL     1      45.478  43.215  44.789  1.00  0.00    -0.270 OA
HETATM    5  O   UNL     1      44.007  41.531  41.904  1.00  0.00    -0.263 OA
HETATM    6  O   UNL     1      42.228  43.827  44.654  1.00  0.00    -0.270 OA
HETATM    7  O   UNL     1      48.727  45.845  42.696  1.00  0.00    -0.263 OA
HETATM    8  O   UNL     1      47.455  47.425  40.330  1.00  0.00    -0.270 OA
HETATM    9  O   UNL     1      43.145  47.182  41.329  1.00  0.00    -0.263 OA
HETATM   10  N   UNL     1      47.536  42.669  43.869  1.00  0.00    -0.340 N 
HETATM   11  N   UNL     1      41.578  42.640  42.769  1.00  0.00    -0.340 N 
HETATM   12  N   UNL     1      45.812  47.684  41.946  1.00  0.00    -0.340 N 
HETATM   13  C   UNL     1      48.093  44.011  44.163  1.00  0.00     0.190 C 
HETATM   14  C   UNL     1      42.059  41.375  43.358  1.00  0.00     0.190 C 
HETATM   15  C   UNL     1      45.692  40.963  44.004  1.00  0.00     0.227 C 
HETATM   16  C   UNL     1      44.933  47.126  42.995  1.00  0.00     0.190 C 
HETATM   17  C   UNL     1      41.833  45.126  42.690  1.00  0.00     0.227 C 
HETATM   18  C   UNL     1      46.440  45.386  41.101  1.00  0.00     0.227 C 
HETATM   19  C   UNL     1      46.218  42.382  44.253  1.00  0.00     0.250 C 
HETATM   20  C   UNL     1      43.541  41.307  43.013  1.00  0.00     0.283 C 
HETATM   21  C   UNL     1      41.871  43.819  43.471  1.00  0.00     0.250 C 
HETATM   22  C   UNL     1      47.956  44.927  42.947  1.00  0.00     0.283 C 
HETATM   23  C   UNL     1      46.631  46.919  41.100  1.00  0.00     0.250 C 
HETATM   24  C   UNL     1      43.601  46.738  42.372  1.00  0.00     0.283 C 
HETATM   25  C   UNL     1      48.402  41.752  43.120  1.00  0.00     0.153 C 
HETATM   26  C   UNL     1      40.960  42.615  41.441  1.00  0.00     0.153 C 
HETATM   27  C   UNL     1      45.829  49.137  41.779  1.00  0.00     0.153 C 
ENDROOT
BRANCH  15  28
HETATM   28  C   UNL     1      46.224  40.013  45.069  1.00  0.00     0.016 C 
HETATM   29  C   UNL     1      46.039  40.607  46.464  1.00  0.00     0.012 C 
HETATM   30  C   UNL     1      45.535  38.653  44.971  1.00  0.00     0.012 C 
ENDBRANCH  15  28
BRANCH  14  31
HETATM   31  C   UNL     1      41.364  40.102  42.896  1.00  0.00     0.014 C 
HETATM   32  C   UNL     1      41.865  39.716  41.502  1.00  0.00     0.012 C 
BRANCH  31  33
HETATM   33  C   UNL     1      41.581  38.931  43.871  1.00  0.00     0.002 C 
HETATM   34  C   UNL     1      41.535  39.341  45.336  1.00  0.00     0.005 C 
ENDBRANCH  31  33
ENDBRANCH  14  31
BRANCH  13  35
HETATM   35  C   UNL     1      49.532  43.971  44.675  1.00  0.00     0.014 C 
HETATM   36  C   UNL     1      49.920  45.341  45.239  1.00  0.00     0.012 C 
BRANCH  35  37
HETATM   37  C   UNL     1      49.745  42.888  45.748  1.00  0.00     0.002 C 
HETATM   38  C   UNL     1      48.946  43.127  47.021  1.00  0.00     0.005 C 
ENDBRANCH  35  37
ENDBRANCH  13  35
BRANCH  17  39
HETATM   39  C   UNL     1      40.590  45.924  43.038  1.00  0.00     0.016 C 
HETATM   40  C   UNL     1      39.742  45.177  44.064  1.00  0.00     0.012 C 
HETATM   41  C   UNL     1      39.773  46.221  41.782  1.00  0.00     0.012 C 
ENDBRANCH  17  39
BRANCH  18  42
HETATM   42  C   UNL     1      47.159  44.732  39.921  1.00  0.00     0.016 C 
HETATM   43  C   UNL     1      47.222  43.215  40.099  1.00  0.00     0.012 C 
HETATM   44  C   UNL     1      46.470  45.087  38.605  1.00  0.00     0.012 C 
ENDBRANCH  18  42
BRANCH  16  45
HETATM   45  C   UNL     1      44.702  48.038  44.198  1.00  0.00     0.010 C 
HETATM   46  C   UNL     1      45.086  47.329  45.496  1.00  0.00     0.012 C 
HETATM   47  C   UNL     1      43.247  48.502  44.253  1.00  0.00     0.012 C 
ENDBRANCH  16  45
TORSDOF 8
ENDMDL
MODEL 10
REMARK VINA RESULT:    -4.781      3.475      7.312
REMARK INTER + INTRA:          -6.651
REMARK INTER:                  -7.623
REMARK INTRA:                   0.973
REMARK UNBOUND:                 0.366
REMARK  8 active torsions:
REMARK  status: ('A' for Active; 'I' for Inactive)
REMARK    1  A    between atoms: C_13  and  C_15 
REMARK    2  A    between atoms: C_14  and  C_16 
REMARK    3  A    between atoms: C_15  and  C_22 
REMARK    4  A    between atoms: C_16  and  C_23 
REMARK    5  A    between atoms: C_17  and  C_21 
REMARK    6  A    between atoms: C_18  and  C_24 
REMARK    7  A    between atoms: C_19  and  C_27 
REMARK    8  A    between atoms: C_20  and  C_30 
ROOT
HETATM    1  O   UNL     1      45.667  40.975  45.649  1.00  0.00    -0.304 OA
HETATM    2  O   UNL     1      43.656  44.300  42.759  1.00  0.00    -0.304 OA
HETATM    3  O   UNL     1      47.703  44.439  42.547  1.00  0.00    -0.304 OA
HETATM    4  O   UNL     1      45.152  41.516  43.123  1.00  0.00    -0.270 OA
HETATM    5  O   UNL     1      45.528  43.168  46.356  1.00  0.00    -0.263 OA
HETATM    6  O   UNL     1      48.342  42.198  43.682  1.00  0.00    -0.270 OA
HETATM    7  O   UNL     1      42.182  44.434  40.996  1.00  0.00    -0.263 OA
HETATM    8  O   UNL     1      43.211  47.365  41.245  1.00  0.00    -0.270 OA
HETATM    9  O   UNL     1      47.470  46.718  42.276  1.00  0.00    -0.263 OA
HETATM   10  N   UNL     1      42.871  41.847  43.387  1.00  0.00    -0.340 N 
HETATM   11  N   UNL     1      48.273  43.209  45.770  1.00  0.00    -0.340 N 
HETATM   12  N   UNL     1      45.189  46.262  40.750  1.00  0.00    -0.340 N 
HETATM   13  C   UNL     1      42.706  42.269  41.976  1.00  0.00     0.190 C 
HETATM   14  C   UNL     1      47.668  42.004  46.370  1.00  0.00     0.190 C 
HETATM   15  C   UNL     1      44.273  40.967  45.281  1.00  0.00     0.227 C 
HETATM   16  C   UNL     1      46.134  45.147  40.964  1.00  0.00     0.190 C 
HETATM   17  C   UNL     1      48.564  44.576  43.697  1.00  0.00     0.227 C 
HETATM   18  C   UNL     1      43.894  45.708  42.848  1.00  0.00     0.227 C 
HETATM   19  C   UNL     1      44.145  41.470  43.839  1.00  0.00     0.250 C 
HETATM   20  C   UNL     1      46.169  42.148  46.141  1.00  0.00     0.283 C 
HETATM   21  C   UNL     1      48.413  43.220  44.374  1.00  0.00     0.250 C 
HETATM   22  C   UNL     1      42.767  43.792  41.860  1.00  0.00     0.283 C 
HETATM   23  C   UNL     1      44.052  46.509  41.537  1.00  0.00     0.250 C 
HETATM   24  C   UNL     1      47.173  45.567  41.992  1.00  0.00     0.283 C 
HETATM   25  C   UNL     1      41.678  41.928  44.237  1.00  0.00     0.153 C 
HETATM   26  C   UNL     1      48.556  44.363  46.626  1.00  0.00     0.153 C 
HETATM   27  C   UNL     1      45.458  47.173  39.637  1.00  0.00     0.153 C 
ENDROOT
BRANCH  15  28
HETATM   28  C   UNL     1      43.796  39.523  45.377  1.00  0.00     0.016 C 
HETATM   29  C   UNL     1      44.981  38.560  45.336  1.00  0.00     0.012 C 
HETATM   30  C   UNL     1      42.977  39.310  46.649  1.00  0.00     0.012 C 
ENDBRANCH  15  28
BRANCH  14  31
HETATM   31  C   UNL     1      47.941  41.770  47.850  1.00  0.00     0.014 C 
HETATM   32  C   UNL     1      46.838  40.893  48.447  1.00  0.00     0.012 C 
BRANCH  31  33
HETATM   33  C   UNL     1      49.315  41.121  48.095  1.00  0.00     0.002 C 
HETATM   34  C   UNL     1      49.719  40.124  47.017  1.00  0.00     0.005 C 
ENDBRANCH  31  33
ENDBRANCH  14  31
BRANCH  13  35
HETATM   35  C   UNL     1      41.446  41.708  41.318  1.00  0.00     0.014 C 
HETATM   36  C   UNL     1      41.185  42.432  39.995  1.00  0.00     0.012 C 
BRANCH  35  37
HETATM   37  C   UNL     1      41.539  40.191  41.071  1.00  0.00     0.002 C 
HETATM   38  C   UNL     1      41.117  39.353  42.269  1.00  0.00     0.005 C 
ENDBRANCH  35  37
ENDBRANCH  13  35
BRANCH  17  39
HETATM   39  C   UNL     1      49.999  44.799  43.255  1.00  0.00     0.016 C 
HETATM   40  C   UNL     1      50.895  43.665  43.746  1.00  0.00     0.012 C 
HETATM   41  C   UNL     1      50.513  46.146  43.761  1.00  0.00     0.012 C 
ENDBRANCH  17  39
BRANCH  18  42
HETATM   42  C   UNL     1      42.802  46.304  43.738  1.00  0.00     0.016 C 
HETATM   43  C   UNL     1      42.428  45.332  44.858  1.00  0.00     0.012 C 
HETATM   44  C   UNL     1      43.250  47.643  44.320  1.00  0.00     0.012 C 
ENDBRANCH  18  42
BRANCH  16  45
HETATM   45  C   UNL     1      46.825  44.633  39.702  1.00  0.00     0.010 C 
HETATM   46  C   UNL     1      47.013  43.118  39.768  1.00  0.00     0.012 C 
HETATM   47  C   UNL     1      48.171  45.329  39.501  1.00  0.00     0.012 C 
ENDBRANCH  16  45
TORSDOF 8
ENDMDL
MODEL 11
REMARK VINA RESULT:    -4.473     11.666     16.093
REMARK INTER + INTRA:          -6.200
REMARK INTER:                  -6.781
REMARK INTRA:                   0.581
REMARK UNBOUND:                 0.366
REMARK  8 active torsions:
REMARK  status: ('A' for Active; 'I' for Inactive)
REMARK    1  A    between atoms: C_13  and  C_15 
REMARK    2  A    between atoms: C_14  and  C_16 
REMARK    3  A    between atoms: C_15  and  C_22 
REMARK    4  A    between atoms: C_16  and  C_23 
REMARK    5  A    between atoms: C_17  and  C_21 
REMARK    6  A    between atoms: C_18  and  C_24 
REMARK    7  A    between atoms: C_19  and  C_27 
REMARK    8  A    between atoms: C_20  and  C_30 
ROOT
HETATM    1  O   UNL     1      52.345  36.444  41.170  1.00  0.00    -0.304 OA
HETATM    2  O   UNL     1      56.928  34.992  40.596  1.00  0.00    -0.304 OA
HETATM    3  O   UNL     1      54.371  32.579  38.577  1.00  0.00    -0.304 OA
HETATM    4  O   UNL     1      54.326  36.406  39.435  1.00  0.00    -0.270 OA
HETATM    5  O   UNL     1      53.154  34.694  42.438  1.00  0.00    -0.263 OA
HETATM    6  O   UNL     1      52.205  34.002  38.614  1.00  0.00    -0.270 OA
HETATM    7  O   UNL     1      58.944  35.801  39.836  1.00  0.00    -0.263 OA
HETATM    8  O   UNL     1      59.580  32.799  40.381  1.00  0.00    -0.270 OA
HETATM    9  O   UNL     1      55.814  30.855  39.091  1.00  0.00    -0.263 OA
HETATM   10  N   UNL     1      55.895  37.424  40.809  1.00  0.00    -0.340 N 
HETATM   11  N   UNL     1      51.631  33.120  40.682  1.00  0.00    -0.340 N 
HETATM   12  N   UNL     1      57.955  32.597  38.740  1.00  0.00    -0.340 N 
HETATM   13  C   UNL     1      56.979  37.234  39.816  1.00  0.00     0.190 C 
HETATM   14  C   UNL     1      51.115  34.427  41.134  1.00  0.00     0.190 C 
HETATM   15  C   UNL     1      53.483  37.262  41.506  1.00  0.00     0.227 C 
HETATM   16  C   UNL     1      56.641  32.963  38.171  1.00  0.00     0.190 C 
HETATM   17  C   UNL     1      53.236  31.924  39.183  1.00  0.00     0.227 C 
HETATM   18  C   UNL     1      57.424  33.698  40.952  1.00  0.00     0.227 C 
HETATM   19  C   UNL     1      54.600  36.986  40.492  1.00  0.00     0.250 C 
HETATM   20  C   UNL     1      52.326  35.174  41.676  1.00  0.00     0.283 C 
HETATM   21  C   UNL     1      52.294  33.093  39.446  1.00  0.00     0.250 C 
HETATM   22  C   UNL     1      57.762  35.955  40.113  1.00  0.00     0.283 C 
HETATM   23  C   UNL     1      58.424  33.009  39.998  1.00  0.00     0.250 C 
HETATM   24  C   UNL     1      55.594  31.981  38.671  1.00  0.00     0.283 C 
HETATM   25  C   UNL     1      56.285  38.000  42.100  1.00  0.00     0.153 C 
HETATM   26  C   UNL     1      51.555  31.974  41.591  1.00  0.00     0.153 C 
HETATM   27  C   UNL     1      58.829  31.746  37.932  1.00  0.00     0.153 C 
ENDROOT
BRANCH  15  28
HETATM   28  C   UNL     1      53.032  38.714  41.408  1.00  0.00     0.016 C 
HETATM   29  C   UNL     1      51.609  38.801  40.860  1.00  0.00     0.012 C 
HETATM   30  C   UNL     1      53.124  39.400  42.769  1.00  0.00     0.012 C 
ENDBRANCH  15  28
BRANCH  14  31
HETATM   31  C   UNL     1      50.015  34.397  42.186  1.00  0.00     0.014 C 
HETATM   32  C   UNL     1      50.046  35.691  43.003  1.00  0.00     0.012 C 
BRANCH  31  33
HETATM   33  C   UNL     1      48.619  34.204  41.567  1.00  0.00     0.002 C 
HETATM   34  C   UNL     1      48.093  32.780  41.681  1.00  0.00     0.005 C 
ENDBRANCH  31  33
ENDBRANCH  14  31
BRANCH  13  35
HETATM   35  C   UNL     1      57.906  38.442  39.692  1.00  0.00     0.014 C 
HETATM   36  C   UNL     1      58.836  38.261  38.489  1.00  0.00     0.012 C 
BRANCH  35  37
HETATM   37  C   UNL     1      57.131  39.765  39.555  1.00  0.00     0.002 C 
HETATM   38  C   UNL     1      57.846  40.956  40.178  1.00  0.00     0.005 C 
ENDBRANCH  35  37
ENDBRANCH  13  35
BRANCH  17  39
HETATM   39  C   UNL     1      52.613  30.942  38.207  1.00  0.00     0.016 C 
HETATM   40  C   UNL     1      52.304  31.629  36.879  1.00  0.00     0.012 C 
HETATM   41  C   UNL     1      51.349  30.325  38.800  1.00  0.00     0.012 C 
ENDBRANCH  17  39
BRANCH  18  42
HETATM   42  C   UNL     1      57.981  33.793  42.373  1.00  0.00     0.016 C 
HETATM   43  C   UNL     1      57.140  34.746  43.221  1.00  0.00     0.012 C 
HETATM   44  C   UNL     1      58.042  32.412  43.023  1.00  0.00     0.012 C 
ENDBRANCH  18  42
BRANCH  16  45
HETATM   45  C   UNL     1      56.596  33.046  36.647  1.00  0.00     0.010 C 
HETATM   46  C   UNL     1      55.922  34.341  36.196  1.00  0.00     0.012 C 
HETATM   47  C   UNL     1      55.873  31.835  36.060  1.00  0.00     0.012 C 
ENDBRANCH  16  45
TORSDOF 8
ENDMDL
MODEL 12
REMARK VINA RESULT:    -4.397     10.393     15.558
REMARK INTER + INTRA:          -6.088
REMARK INTER:                  -6.410
REMARK INTRA:                   0.322
REMARK UNBOUND:                 0.366
REMARK  8 active torsions:
REMARK  status: ('A' for Active; 'I' for Inactive)
REMARK    1  A    between atoms: C_13  and  C_15 
REMARK    2  A    between atoms: C_14  and  C_16 
REMARK    3  A    between atoms: C_15  and  C_22 
REMARK    4  A    between atoms: C_16  and  C_23 
REMARK    5  A    between atoms: C_17  and  C_21 
REMARK    6  A    between atoms: C_18  and  C_24 
REMARK    7  A    between atoms: C_19  and  C_27 
REMARK    8  A    between atoms: C_20  and  C_30 
ROOT
HETATM    1  O   UNL     1      55.010  34.023  39.240  1.00  0.00    -0.304 OA
HETATM    2  O   UNL     1      52.530  35.348  43.182  1.00  0.00    -0.304 OA
HETATM    3  O   UNL     1      54.387  38.530  41.489  1.00  0.00    -0.304 OA
HETATM    4  O   UNL     1      52.814  35.253  40.015  1.00  0.00    -0.270 OA
HETATM    5  O   UNL     1      56.120  34.312  41.243  1.00  0.00    -0.263 OA
HETATM    6  O   UNL     1      55.034  37.560  39.175  1.00  0.00    -0.270 OA
HETATM    7  O   UNL     1      50.382  35.289  44.007  1.00  0.00    -0.263 OA
HETATM    8  O   UNL     1      51.889  36.971  46.156  1.00  0.00    -0.270 OA
HETATM    9  O   UNL     1      54.666  39.330  43.635  1.00  0.00    -0.263 OA
HETATM   10  N   UNL     1      51.998  33.526  41.331  1.00  0.00    -0.340 N 
HETATM   11  N   UNL     1      57.000  36.700  40.057  1.00  0.00    -0.340 N 
HETATM   12  N   UNL     1      52.156  38.325  44.292  1.00  0.00    -0.340 N 
HETATM   13  C   UNL     1      50.864  34.348  41.816  1.00  0.00     0.190 C 
HETATM   14  C   UNL     1      56.872  35.478  39.240  1.00  0.00     0.190 C 
HETATM   15  C   UNL     1      54.017  33.189  39.868  1.00  0.00     0.227 C 
HETATM   16  C   UNL     1      52.497  38.507  42.866  1.00  0.00     0.190 C 
HETATM   17  C   UNL     1      55.800  38.575  41.197  1.00  0.00     0.227 C 
HETATM   18  C   UNL     1      53.102  35.982  44.330  1.00  0.00     0.227 C 
HETATM   19  C   UNL     1      52.897  34.085  40.410  1.00  0.00     0.250 C 
HETATM   20  C   UNL     1      55.982  34.543  40.049  1.00  0.00     0.283 C 
HETATM   21  C   UNL     1      55.918  37.593  40.038  1.00  0.00     0.250 C 
HETATM   22  C   UNL     1      51.211  35.008  43.151  1.00  0.00     0.283 C 
HETATM   23  C   UNL     1      52.313  37.125  45.005  1.00  0.00     0.250 C 
HETATM   24  C   UNL     1      53.972  38.854  42.749  1.00  0.00     0.283 C 
HETATM   25  C   UNL     1      52.135  32.190  41.920  1.00  0.00     0.153 C 
HETATM   26  C   UNL     1      58.160  36.846  40.940  1.00  0.00     0.153 C 
HETATM   27  C   UNL     1      51.614  39.479  45.011  1.00  0.00     0.153 C 
ENDROOT
BRANCH  15  28
HETATM   28  C   UNL     1      53.470  32.259  38.793  1.00  0.00     0.016 C 
HETATM   29  C   UNL     1      53.751  32.822  37.401  1.00  0.00     0.012 C 
HETATM   30  C   UNL     1      54.067  30.860  38.934  1.00  0.00     0.012 C 
ENDBRANCH  15  28
BRANCH  14  31
HETATM   31  C   UNL     1      58.166  34.766  38.873  1.00  0.00     0.014 C 
HETATM   32  C   UNL     1      57.925  33.256  38.806  1.00  0.00     0.012 C 
BRANCH  31  33
HETATM   33  C   UNL     1      58.747  35.261  37.536  1.00  0.00     0.002 C 
HETATM   34  C   UNL     1      59.814  36.336  37.697  1.00  0.00     0.005 C 
ENDBRANCH  31  33
ENDBRANCH  14  31
BRANCH  13  35
HETATM   35  C   UNL     1      49.547  33.578  41.898  1.00  0.00     0.014 C 
HETATM   36  C   UNL     1      48.370  34.555  41.844  1.00  0.00     0.012 C 
BRANCH  35  37
HETATM   37  C   UNL     1      49.408  32.532  40.777  1.00  0.00     0.002 C 
HETATM   38  C   UNL     1      49.349  33.139  39.383  1.00  0.00     0.005 C 
ENDBRANCH  35  37
ENDBRANCH  13  35
BRANCH  17  39
HETATM   39  C   UNL     1      56.202  39.972  40.760  1.00  0.00     0.016 C 
HETATM   40  C   UNL     1      56.900  39.930  39.404  1.00  0.00     0.012 C 
HETATM   41  C   UNL     1      57.103  40.622  41.808  1.00  0.00     0.012 C 
ENDBRANCH  17  39
BRANCH  18  42
HETATM   42  C   UNL     1      53.461  34.884  45.332  1.00  0.00     0.016 C 
HETATM   43  C   UNL     1      53.947  33.629  44.607  1.00  0.00     0.012 C 
HETATM   44  C   UNL     1      54.520  35.376  46.316  1.00  0.00     0.012 C 
ENDBRANCH  18  42
BRANCH  16  45
HETATM   45  C   UNL     1      51.655  39.545  42.126  1.00  0.00     0.010 C 
HETATM   46  C   UNL     1      51.021  38.936  40.876  1.00  0.00     0.012 C 
HETATM   47  C   UNL     1      52.500  40.763  41.757  1.00  0.00     0.012 C 
ENDBRANCH  16  45
TORSDOF 8
ENDMDL
MODEL 13
REMARK VINA RESULT:    -4.328      2.247      6.848
REMARK INTER + INTRA:          -5.986
REMARK INTER:                  -6.246
REMARK INTRA:                   0.259
REMARK UNBOUND:                 0.366
REMARK  8 active torsions:
REMARK  status: ('A' for Active; 'I' for Inactive)
REMARK    1  A    between atoms: C_13  and  C_15 
REMARK    2  A    between atoms: C_14  and  C_16 
REMARK    3  A    between atoms: C_15  and  C_22 
REMARK    4  A    between atoms: C_16  and  C_23 
REMARK    5  A    between atoms: C_17  and  C_21 
REMARK    6  A    between atoms: C_18  and  C_24 
REMARK    7  A    between atoms: C_19  and  C_27 
REMARK    8  A    between atoms: C_20  and  C_30 
ROOT
HETATM    1  O   UNL     1      42.077  44.418  44.951  1.00  0.00    -0.304 OA
HETATM    2  O   UNL     1      41.577  43.344  49.646  1.00  0.00    -0.304 OA
HETATM    3  O   UNL     1      44.076  40.732  47.810  1.00  0.00    -0.304 OA
HETATM    4  O   UNL     1      43.320  44.542  47.270  1.00  0.00    -0.270 OA
HETATM    5  O   UNL     1      40.627  42.739  45.589  1.00  0.00    -0.263 OA
HETATM    6  O   UNL     1      44.554  41.974  45.587  1.00  0.00    -0.270 OA
HETATM    7  O   UNL     1      41.878  44.315  51.711  1.00  0.00    -0.263 OA
HETATM    8  O   UNL     1      41.149  41.375  52.443  1.00  0.00    -0.270 OA
HETATM    9  O   UNL     1      43.219  39.130  49.233  1.00  0.00    -0.263 OA
HETATM   10  N   UNL     1      41.647  45.684  48.402  1.00  0.00    -0.340 N 
HETATM   11  N   UNL     1      42.653  41.047  44.632  1.00  0.00    -0.340 N 
HETATM   12  N   UNL     1      43.110  41.042  51.253  1.00  0.00    -0.340 N 
HETATM   13  C   UNL     1      42.367  45.583  49.693  1.00  0.00     0.190 C 
HETATM   14  C   UNL     1      42.353  42.308  43.925  1.00  0.00     0.190 C 
HETATM   15  C   UNL     1      41.508  45.327  45.915  1.00  0.00     0.227 C 
HETATM   16  C   UNL     1      43.967  41.300  50.076  1.00  0.00     0.190 C 
HETATM   17  C   UNL     1      43.730  39.987  46.624  1.00  0.00     0.227 C 
HETATM   18  C   UNL     1      41.095  42.095  50.149  1.00  0.00     0.227 C 
HETATM   19  C   UNL     1      42.239  45.143  47.250  1.00  0.00     0.250 C 
HETATM   20  C   UNL     1      41.565  43.151  44.919  1.00  0.00     0.283 C 
HETATM   21  C   UNL     1      43.706  41.074  45.558  1.00  0.00     0.250 C 
HETATM   22  C   UNL     1      41.878  44.372  50.488  1.00  0.00     0.283 C 
HETATM   23  C   UNL     1      41.787  41.490  51.391  1.00  0.00     0.250 C 
HETATM   24  C   UNL     1      43.698  40.235  49.024  1.00  0.00     0.283 C 
HETATM   25  C   UNL     1      40.312  46.290  48.443  1.00  0.00     0.153 C 
HETATM   26  C   UNL     1      41.763  39.899  44.444  1.00  0.00     0.153 C 
HETATM   27  C   UNL     1      43.685  40.265  52.351  1.00  0.00     0.153 C 
ENDROOT
BRANCH  15  28
HETATM   28  C   UNL     1      41.732  46.737  45.385  1.00  0.00     0.016 C 
HETATM   29  C   UNL     1      42.848  46.750  44.342  1.00  0.00     0.012 C 
HETATM   30  C   UNL     1      40.441  47.302  44.794  1.00  0.00     0.012 C 
ENDBRANCH  15  28
BRANCH  14  31
HETATM   31  C   UNL     1      41.575  42.188  42.621  1.00  0.00     0.014 C 
HETATM   32  C   UNL     1      41.130  43.577  42.156  1.00  0.00     0.012 C 
BRANCH  31  33
HETATM   33  C   UNL     1      42.394  41.504  41.513  1.00  0.00     0.002 C 
HETATM   34  C   UNL     1      41.537  40.809  40.463  1.00  0.00     0.005 C 
ENDBRANCH  31  33
ENDBRANCH  14  31
BRANCH  13  35
HETATM   35  C   UNL     1      42.301  46.863  50.526  1.00  0.00     0.014 C 
HETATM   36  C   UNL     1      43.373  46.827  51.618  1.00  0.00     0.012 C 
BRANCH  35  37
HETATM   37  C   UNL     1      42.472  48.130  49.669  1.00  0.00     0.002 C 
HETATM   38  C   UNL     1      43.893  48.336  49.164  1.00  0.00     0.005 C 
ENDBRANCH  35  37
ENDBRANCH  13  35
BRANCH  17  39
HETATM   39  C   UNL     1      44.803  38.957  46.318  1.00  0.00     0.016 C 
HETATM   40  C   UNL     1      45.396  39.196  44.932  1.00  0.00     0.012 C 
HETATM   41  C   UNL     1      44.235  37.543  46.423  1.00  0.00     0.012 C 
ENDBRANCH  17  39
BRANCH  18  42
HETATM   42  C   UNL     1      39.587  42.234  50.362  1.00  0.00     0.016 C 
HETATM   43  C   UNL     1      38.989  43.221  49.359  1.00  0.00     0.012 C 
HETATM   44  C   UNL     1      38.898  40.876  50.252  1.00  0.00     0.012 C 
ENDBRANCH  18  42
BRANCH  16  45
HETATM   45  C   UNL     1      45.463  41.379  50.370  1.00  0.00     0.010 C 
HETATM   46  C   UNL     1      46.041  42.707  49.881  1.00  0.00     0.012 C 
HETATM   47  C   UNL     1      46.204  40.206  49.729  1.00  0.00     0.012 C 
ENDBRANCH  16  45
TORSDOF 8
ENDMDL
MODEL 14
REMARK VINA RESULT:    -4.307     10.257     15.641
REMARK INTER + INTRA:          -5.956
REMARK INTER:                  -6.337
REMARK INTRA:                   0.381
REMARK UNBOUND:                 0.366
REMARK  8 active torsions:
REMARK  status: ('A' for Active; 'I' for Inactive)
REMARK    1  A    between atoms: C_13  and  C_15 
REMARK    2  A    between atoms: C_14  and  C_16 
REMARK    3  A    between atoms: C_15  and  C_22 
REMARK    4  A    between atoms: C_16  and  C_23 
REMARK    5  A    between atoms: C_17  and  C_21 
REMARK    6  A    between atoms: C_18  and  C_24 
REMARK    7  A    between atoms: C_19  and  C_27 
REMARK    8  A    between atoms: C_20  and  C_30 
ROOT
HETATM    1  O   UNL     1      52.151  34.837  39.461  1.00  0.00    -0.304 OA
HETATM    2  O   UNL     1      54.606  37.637  42.556  1.00  0.00    -0.304 OA
HETATM    3  O   UNL     1      57.065  36.077  39.734  1.00  0.00    -0.304 OA
HETATM    4  O   UNL     1      53.306  37.194  39.687  1.00  0.00    -0.270 OA
HETATM    5  O   UNL     1      53.342  33.864  41.182  1.00  0.00    -0.263 OA
HETATM    6  O   UNL     1      55.349  35.214  37.995  1.00  0.00    -0.270 OA
HETATM    7  O   UNL     1      54.613  39.801  43.340  1.00  0.00    -0.263 OA
HETATM    8  O   UNL     1      57.179  38.600  44.640  1.00  0.00    -0.270 OA
HETATM    9  O   UNL     1      58.675  35.993  41.385  1.00  0.00    -0.263 OA
HETATM   10  N   UNL     1      52.152  37.869  41.582  1.00  0.00    -0.340 N 
HETATM   11  N   UNL     1      55.157  33.207  39.143  1.00  0.00    -0.340 N 
HETATM   12  N   UNL     1      57.709  38.401  42.392  1.00  0.00    -0.340 N 
HETATM   13  C   UNL     1      52.951  39.111  41.703  1.00  0.00     0.190 C 
HETATM   14  C   UNL     1      53.706  33.156  38.880  1.00  0.00     0.190 C 
HETATM   15  C   UNL     1      51.516  35.757  40.371  1.00  0.00     0.227 C 
HETATM   16  C   UNL     1      57.353  38.015  41.010  1.00  0.00     0.190 C 
HETATM   17  C   UNL     1      57.165  34.666  39.446  1.00  0.00     0.227 C 
HETATM   18  C   UNL     1      55.707  37.196  43.356  1.00  0.00     0.227 C 
HETATM   19  C   UNL     1      52.408  36.997  40.514  1.00  0.00     0.250 C 
HETATM   20  C   UNL     1      53.064  33.970  39.995  1.00  0.00     0.283 C 
HETATM   21  C   UNL     1      55.828  34.381  38.773  1.00  0.00     0.250 C 
HETATM   22  C   UNL     1      54.121  38.905  42.665  1.00  0.00     0.283 C 
HETATM   23  C   UNL     1      56.917  38.142  43.522  1.00  0.00     0.250 C 
HETATM   24  C   UNL     1      57.806  36.585  40.763  1.00  0.00     0.283 C 
HETATM   25  C   UNL     1      51.184  37.608  42.654  1.00  0.00     0.153 C 
HETATM   26  C   UNL     1      55.781  32.114  39.893  1.00  0.00     0.153 C 
HETATM   27  C   UNL     1      58.976  39.104  42.593  1.00  0.00     0.153 C 
ENDROOT
BRANCH  15  28
HETATM   28  C   UNL     1      50.178  36.142  39.754  1.00  0.00     0.016 C 
HETATM   29  C   UNL     1      50.225  36.003  38.234  1.00  0.00     0.012 C 
HETATM   30  C   UNL     1      49.051  35.290  40.335  1.00  0.00     0.012 C 
ENDBRANCH  15  28
BRANCH  14  31
HETATM   31  C   UNL     1      53.073  31.772  38.823  1.00  0.00     0.014 C 
HETATM   32  C   UNL     1      51.569  31.881  39.084  1.00  0.00     0.012 C 
BRANCH  31  33
HETATM   33  C   UNL     1      53.320  31.070  37.476  1.00  0.00     0.002 C 
HETATM   34  C   UNL     1      52.142  30.229  37.002  1.00  0.00     0.005 C 
ENDBRANCH  31  33
ENDBRANCH  14  31
BRANCH  13  35
HETATM   35  C   UNL     1      52.119  40.334  42.086  1.00  0.00     0.014 C 
HETATM   36  C   UNL     1      52.861  41.612  41.687  1.00  0.00     0.012 C 
BRANCH  35  37
HETATM   37  C   UNL     1      50.722  40.320  41.440  1.00  0.00     0.002 C 
HETATM   38  C   UNL     1      49.671  41.071  42.244  1.00  0.00     0.005 C 
ENDBRANCH  35  37
ENDBRANCH  13  35
BRANCH  17  39
HETATM   39  C   UNL     1      58.314  34.405  38.490  1.00  0.00     0.016 C 
HETATM   40  C   UNL     1      57.798  33.831  37.173  1.00  0.00     0.012 C 
HETATM   41  C   UNL     1      59.335  33.462  39.122  1.00  0.00     0.012 C 
ENDBRANCH  17  39
BRANCH  18  42
HETATM   42  C   UNL     1      55.147  36.762  44.711  1.00  0.00     0.016 C 
HETATM   43  C   UNL     1      53.778  36.102  44.544  1.00  0.00     0.012 C 
HETATM   44  C   UNL     1      56.114  35.814  45.417  1.00  0.00     0.012 C 
ENDBRANCH  18  42
BRANCH  16  45
HETATM   45  C   UNL     1      57.903  38.934  39.920  1.00  0.00     0.010 C 
HETATM   46  C   UNL     1      56.771  39.705  39.242  1.00  0.00     0.012 C 
HETATM   47  C   UNL     1      58.698  38.134  38.889  1.00  0.00     0.012 C 
ENDBRANCH  16  45
TORSDOF 8
ENDMDL
MODEL 15
REMARK VINA RESULT:    -4.209      1.778      6.339
REMARK INTER + INTRA:          -5.812
REMARK INTER:                  -7.699
REMARK INTRA:                   1.887
REMARK UNBOUND:                 0.366
REMARK  8 active torsions:
REMARK  status: ('A' for Active; 'I' for Inactive)
REMARK    1  A    between atoms: C_13  and  C_15 
REMARK    2  A    between atoms: C_14  and  C_16 
REMARK    3  A    between atoms: C_15  and  C_22 
REMARK    4  A    between atoms: C_16  and  C_23 
REMARK    5  A    between atoms: C_17  and  C_21 
REMARK    6  A    between atoms: C_18  and  C_24 
REMARK    7  A    between atoms: C_19  and  C_27 
REMARK    8  A    between atoms: C_20  and  C_30 
ROOT
HETATM    1  O   UNL     1      44.711  40.312  49.053  1.00  0.00    -0.304 OA
HETATM    2  O   UNL     1      43.540  41.205  44.440  1.00  0.00    -0.304 OA
HETATM    3  O   UNL     1      41.561  43.695  46.955  1.00  0.00    -0.304 OA
HETATM    4  O   UNL     1      45.105  42.019  47.087  1.00  0.00    -0.270 OA
HETATM    5  O   UNL     1      42.747  39.461  48.189  1.00  0.00    -0.263 OA
HETATM    6  O   UNL     1      42.884  43.340  49.155  1.00  0.00    -0.270 OA
HETATM    7  O   UNL     1      44.548  41.776  42.452  1.00  0.00    -0.263 OA
HETATM    8  O   UNL     1      41.517  41.904  41.737  1.00  0.00    -0.270 OA
HETATM    9  O   UNL     1      39.805  43.576  45.465  1.00  0.00    -0.263 OA
HETATM   10  N   UNL     1      45.838  40.462  45.532  1.00  0.00    -0.340 N 
HETATM   11  N   UNL     1      41.556  41.514  49.688  1.00  0.00    -0.340 N 
HETATM   12  N   UNL     1      41.637  43.544  43.371  1.00  0.00    -0.340 N 
HETATM   13  C   UNL     1      45.899  41.475  44.452  1.00  0.00     0.190 C 
HETATM   14  C   UNL     1      42.719  40.785  50.233  1.00  0.00     0.190 C 
HETATM   15  C   UNL     1      45.465  39.809  47.933  1.00  0.00     0.227 C 
HETATM   16  C   UNL     1      42.084  44.014  44.699  1.00  0.00     0.190 C 
HETATM   17  C   UNL     1      40.760  43.243  48.068  1.00  0.00     0.227 C 
HETATM   18  C   UNL     1      42.212  41.143  43.909  1.00  0.00     0.227 C 
HETATM   19  C   UNL     1      45.447  40.862  46.818  1.00  0.00     0.250 C 
HETATM   20  C   UNL     1      43.361  40.096  49.036  1.00  0.00     0.283 C 
HETATM   21  C   UNL     1      41.818  42.727  49.036  1.00  0.00     0.250 C 
HETATM   22  C   UNL     1      44.607  41.468  43.635  1.00  0.00     0.283 C 
HETATM   23  C   UNL     1      41.776  42.228  42.901  1.00  0.00     0.250 C 
HETATM   24  C   UNL     1      40.989  43.739  45.717  1.00  0.00     0.283 C 
HETATM   25  C   UNL     1      46.128  39.077  45.144  1.00  0.00     0.153 C 
HETATM   26  C   UNL     1      40.238  40.877  49.728  1.00  0.00     0.153 C 
HETATM   27  C   UNL     1      41.007  44.522  42.483  1.00  0.00     0.153 C 
ENDROOT
BRANCH  15  28
HETATM   28  C   UNL     1      46.891  39.585  48.420  1.00  0.00     0.016 C 
HETATM   29  C   UNL     1      47.365  40.768  49.262  1.00  0.00     0.012 C 
HETATM   30  C   UNL     1      46.990  38.286  49.218  1.00  0.00     0.012 C 
ENDBRANCH  15  28
BRANCH  14  31
HETATM   31  C   UNL     1      42.431  39.761  51.322  1.00  0.00     0.014 C 
HETATM   32  C   UNL     1      43.195  38.467  51.031  1.00  0.00     0.012 C 
BRANCH  31  33
HETATM   33  C   UNL     1      42.798  40.280  52.724  1.00  0.00     0.002 C 
HETATM   34  C   UNL     1      43.309  41.714  52.728  1.00  0.00     0.005 C 
ENDBRANCH  31  33
ENDBRANCH  14  31
BRANCH  13  35
HETATM   35  C   UNL     1      47.129  41.335  43.557  1.00  0.00     0.014 C 
HETATM   36  C   UNL     1      47.391  42.654  42.825  1.00  0.00     0.012 C 
BRANCH  35  37
HETATM   37  C   UNL     1      48.384  40.918  44.344  1.00  0.00     0.002 C 
HETATM   38  C   UNL     1      49.475  41.980  44.358  1.00  0.00     0.005 C 
ENDBRANCH  35  37
ENDBRANCH  13  35
BRANCH  17  39
HETATM   39  C   UNL     1      40.000  44.409  48.674  1.00  0.00     0.016 C 
HETATM   40  C   UNL     1      40.431  44.636  50.121  1.00  0.00     0.012 C 
HETATM   41  C   UNL     1      38.494  44.166  48.595  1.00  0.00     0.012 C 
ENDBRANCH  17  39
BRANCH  18  42
HETATM   42  C   UNL     1      42.009  39.737  43.342  1.00  0.00     0.016 C 
HETATM   43  C   UNL     1      41.184  38.881  44.302  1.00  0.00     0.012 C 
HETATM   44  C   UNL     1      41.338  39.800  41.971  1.00  0.00     0.012 C 
ENDBRANCH  18  42
BRANCH  16  45
HETATM   45  C   UNL     1      42.498  45.483  44.759  1.00  0.00     0.010 C 
HETATM   46  C   UNL     1      43.922  45.622  45.297  1.00  0.00     0.012 C 
HETATM   47  C   UNL     1      41.522  46.285  45.619  1.00  0.00     0.012 C 
ENDBRANCH  16  45
TORSDOF 8
ENDMDL
MODEL 16
REMARK VINA RESULT:    -4.154      3.363      7.246
REMARK INTER + INTRA:          -5.730
REMARK INTER:                  -6.161
REMARK INTRA:                   0.431
REMARK UNBOUND:                 0.366
REMARK  8 active torsions:
REMARK  status: ('A' for Active; 'I' for Inactive)
REMARK    1  A    between atoms: C_13  and  C_15 
REMARK    2  A    between atoms: C_14  and  C_16 
REMARK    3  A    between atoms: C_15  and  C_22 
REMARK    4  A    between atoms: C_16  and  C_23 
REMARK    5  A    between atoms: C_17  and  C_21 
REMARK    6  A    between atoms: C_18  and  C_24 
REMARK    7  A    between atoms: C_19  and  C_27 
REMARK    8  A    between atoms: C_20  and  C_30 
ROOT
HETATM    1  O   UNL     1      46.614  41.825  47.815  1.00  0.00    -0.304 OA
HETATM    2  O   UNL     1      47.463  44.161  43.660  1.00  0.00    -0.304 OA
HETATM    3  O   UNL     1      43.908  42.215  43.539  1.00  0.00    -0.304 OA
HETATM    4  O   UNL     1      45.912  43.952  46.429  1.00  0.00    -0.270 OA
HETATM    5  O   UNL     1      47.428  40.660  45.997  1.00  0.00    -0.263 OA
HETATM    6  O   UNL     1      43.555  41.660  46.045  1.00  0.00    -0.270 OA
HETATM    7  O   UNL     1      47.891  46.291  42.898  1.00  0.00    -0.263 OA
HETATM    8  O   UNL     1      47.598  44.670  40.252  1.00  0.00    -0.270 OA
HETATM    9  O   UNL     1      44.340  41.857  41.301  1.00  0.00    -0.263 OA
HETATM   10  N   UNL     1      48.051  44.807  46.162  1.00  0.00    -0.340 N 
HETATM   11  N   UNL     1      44.792  39.711  45.813  1.00  0.00    -0.340 N 
HETATM   12  N   UNL     1      45.482  44.390  41.158  1.00  0.00    -0.340 N 
HETATM   13  C   UNL     1      47.573  45.896  45.278  1.00  0.00     0.190 C 
HETATM   14  C   UNL     1      45.412  39.907  47.138  1.00  0.00     0.190 C 
HETATM   15  C   UNL     1      47.630  42.837  47.669  1.00  0.00     0.227 C 
HETATM   16  C   UNL     1      44.596  44.074  42.298  1.00  0.00     0.190 C 
HETATM   17  C   UNL     1      43.751  40.809  43.823  1.00  0.00     0.227 C 
HETATM   18  C   UNL     1      47.528  43.538  42.373  1.00  0.00     0.227 C 
HETATM   19  C   UNL     1      47.118  43.907  46.697  1.00  0.00     0.250 C 
HETATM   20  C   UNL     1      46.610  40.815  46.894  1.00  0.00     0.283 C 
HETATM   21  C   UNL     1      43.994  40.756  45.326  1.00  0.00     0.250 C 
HETATM   22  C   UNL     1      47.707  45.493  43.809  1.00  0.00     0.283 C 
HETATM   23  C   UNL     1      46.881  44.266  41.174  1.00  0.00     0.250 C 
HETATM   24  C   UNL     1      44.273  42.588  42.278  1.00  0.00     0.283 C 
HETATM   25  C   UNL     1      49.502  44.711  46.354  1.00  0.00     0.153 C 
HETATM   26  C   UNL     1      45.151  38.526  45.030  1.00  0.00     0.153 C 
HETATM   27  C   UNL     1      44.854  44.868  39.926  1.00  0.00     0.153 C 
ENDROOT
BRANCH  15  28
HETATM   28  C   UNL     1      47.856  43.444  49.047  1.00  0.00     0.016 C 
HETATM   29  C   UNL     1      46.589  43.346  49.894  1.00  0.00     0.012 C 
HETATM   30  C   UNL     1      49.026  42.761  49.753  1.00  0.00     0.012 C 
ENDBRANCH  15  28
BRANCH  14  31
HETATM   31  C   UNL     1      45.861  38.650  47.872  1.00  0.00     0.014 C 
HETATM   32  C   UNL     1      46.909  39.014  48.926  1.00  0.00     0.012 C 
BRANCH  31  33
HETATM   33  C   UNL     1      44.687  37.910  48.536  1.00  0.00     0.002 C 
HETATM   34  C   UNL     1      43.626  38.840  49.108  1.00  0.00     0.005 C 
ENDBRANCH  31  33
ENDBRANCH  14  31
BRANCH  13  35
HETATM   35  C   UNL     1      48.244  47.241  45.553  1.00  0.00     0.014 C 
HETATM   36  C   UNL     1      47.492  48.355  44.821  1.00  0.00     0.012 C 
BRANCH  35  37
HETATM   37  C   UNL     1      48.318  47.564  47.056  1.00  0.00     0.002 C 
HETATM   38  C   UNL     1      49.590  48.294  47.461  1.00  0.00     0.005 C 
ENDBRANCH  35  37
ENDBRANCH  13  35
BRANCH  17  39
HETATM   39  C   UNL     1      42.340  40.360  43.491  1.00  0.00     0.016 C 
HETATM   40  C   UNL     1      41.328  41.434  43.885  1.00  0.00     0.012 C 
HETATM   41  C   UNL     1      42.018  39.039  44.187  1.00  0.00     0.012 C 
ENDBRANCH  17  39
BRANCH  18  42
HETATM   42  C   UNL     1      48.994  43.202  42.098  1.00  0.00     0.016 C 
HETATM   43  C   UNL     1      49.673  42.669  43.360  1.00  0.00     0.012 C 
HETATM   44  C   UNL     1      49.111  42.189  40.960  1.00  0.00     0.012 C 
ENDBRANCH  18  42
BRANCH  16  45
HETATM   45  C   UNL     1      43.306  44.889  42.361  1.00  0.00     0.010 C 
HETATM   46  C   UNL     1      42.963  45.248  43.806  1.00  0.00     0.012 C 
HETATM   47  C   UNL     1      42.152  44.126  41.712  1.00  0.00     0.012 C 
ENDBRANCH  16  45
TORSDOF 8
ENDMDL
MODEL 17
REMARK VINA RESULT:    -4.143      2.545      4.623
REMARK INTER + INTRA:          -5.715
REMARK INTER:                  -6.266
REMARK INTRA:                   0.552
REMARK UNBOUND:                 0.366
REMARK  8 active torsions:
REMARK  status: ('A' for Active; 'I' for Inactive)
REMARK    1  A    between atoms: C_13  and  C_15 
REMARK    2  A    between atoms: C_14  and  C_16 
REMARK    3  A    between atoms: C_15  and  C_22 
REMARK    4  A    between atoms: C_16  and  C_23 
REMARK    5  A    between atoms: C_17  and  C_21 
REMARK    6  A    between atoms: C_18  and  C_24 
REMARK    7  A    between atoms: C_19  and  C_27 
REMARK    8  A    between atoms: C_20  and  C_30 
ROOT
HETATM    1  O   UNL     1      43.842  45.212  45.652  1.00  0.00    -0.304 OA
HETATM    2  O   UNL     1      44.394  40.488  46.563  1.00  0.00    -0.304 OA
HETATM    3  O   UNL     1      43.376  42.513  49.926  1.00  0.00    -0.304 OA
HETATM    4  O   UNL     1      42.492  43.002  46.136  1.00  0.00    -0.270 OA
HETATM    5  O   UNL     1      45.812  44.452  46.584  1.00  0.00    -0.263 OA
HETATM    6  O   UNL     1      42.587  44.772  48.931  1.00  0.00    -0.270 OA
HETATM    7  O   UNL     1      43.557  38.457  45.875  1.00  0.00    -0.263 OA
HETATM    8  O   UNL     1      45.401  37.659  48.257  1.00  0.00    -0.270 OA
HETATM    9  O   UNL     1      44.719  41.020  51.062  1.00  0.00    -0.263 OA
HETATM   10  N   UNL     1      43.437  41.741  44.433  1.00  0.00    -0.340 N 
HETATM   11  N   UNL     1      44.768  45.566  48.941  1.00  0.00    -0.340 N 
HETATM   12  N   UNL     1      43.859  39.004  49.347  1.00  0.00    -0.340 N 
HETATM   13  C   UNL     1      42.732  40.512  44.867  1.00  0.00     0.190 C 
HETATM   14  C   UNL     1      44.560  46.250  47.649  1.00  0.00     0.190 C 
HETATM   15  C   UNL     1      43.899  44.207  44.620  1.00  0.00     0.227 C 
HETATM   16  C   UNL     1      43.065  40.247  49.436  1.00  0.00     0.190 C 
HETATM   17  C   UNL     1      44.093  43.665  50.418  1.00  0.00     0.227 C 
HETATM   18  C   UNL     1      45.319  39.943  47.509  1.00  0.00     0.227 C 
HETATM   19  C   UNL     1      43.216  42.935  45.136  1.00  0.00     0.250 C 
HETATM   20  C   UNL     1      44.841  45.198  46.585  1.00  0.00     0.283 C 
HETATM   21  C   UNL     1      43.735  44.729  49.389  1.00  0.00     0.250 C 
HETATM   22  C   UNL     1      43.625  39.677  45.785  1.00  0.00     0.283 C 
HETATM   23  C   UNL     1      44.856  38.760  48.388  1.00  0.00     0.250 C 
HETATM   24  C   UNL     1      43.836  41.270  50.256  1.00  0.00     0.283 C 
HETATM   25  C   UNL     1      44.384  41.593  43.323  1.00  0.00     0.153 C 
HETATM   26  C   UNL     1      46.070  45.678  49.601  1.00  0.00     0.153 C 
HETATM   27  C   UNL     1      43.585  37.954  50.328  1.00  0.00     0.153 C 
ENDROOT
BRANCH  15  28
HETATM   28  C   UNL     1      43.142  44.758  43.419  1.00  0.00     0.016 C 
HETATM   29  C   UNL     1      42.210  45.891  43.843  1.00  0.00     0.012 C 
HETATM   30  C   UNL     1      44.114  45.240  42.343  1.00  0.00     0.012 C 
ENDBRANCH  15  28
BRANCH  14  31
HETATM   31  C   UNL     1      45.411  47.485  47.389  1.00  0.00     0.014 C 
HETATM   32  C   UNL     1      45.526  47.726  45.882  1.00  0.00     0.012 C 
BRANCH  31  33
HETATM   33  C   UNL     1      44.845  48.741  48.076  1.00  0.00     0.002 C 
HETATM   34  C   UNL     1      43.323  48.794  48.089  1.00  0.00     0.005 C 
ENDBRANCH  31  33
ENDBRANCH  14  31
BRANCH  13  35
HETATM   35  C   UNL     1      42.189  39.681  43.706  1.00  0.00     0.014 C 
HETATM   36  C   UNL     1      41.097  38.735  44.211  1.00  0.00     0.012 C 
BRANCH  35  37
HETATM   37  C   UNL     1      41.634  40.555  42.567  1.00  0.00     0.002 C 
HETATM   38  C   UNL     1      41.212  39.761  41.339  1.00  0.00     0.005 C 
ENDBRANCH  35  37
ENDBRANCH  13  35
BRANCH  17  39
HETATM   39  C   UNL     1      43.580  44.054  51.793  1.00  0.00     0.016 C 
HETATM   40  C   UNL     1      44.571  43.631  52.874  1.00  0.00     0.012 C 
HETATM   41  C   UNL     1      42.208  43.433  52.050  1.00  0.00     0.012 C 
ENDBRANCH  17  39
BRANCH  18  42
HETATM   42  C   UNL     1      46.606  39.609  46.755  1.00  0.00     0.016 C 
HETATM   43  C   UNL     1      46.795  40.549  45.565  1.00  0.00     0.012 C 
HETATM   44  C   UNL     1      47.813  39.679  47.689  1.00  0.00     0.012 C 
ENDBRANCH  18  42
BRANCH  16  45
HETATM   45  C   UNL     1      41.657  40.076  50.004  1.00  0.00     0.010 C 
HETATM   46  C   UNL     1      40.718  41.148  49.452  1.00  0.00     0.012 C 
HETATM   47  C   UNL     1      41.680  40.121  51.531  1.00  0.00     0.012 C 
ENDBRANCH  16  45
TORSDOF 8
ENDMDL
MODEL 18
REMARK VINA RESULT:    -4.140      2.636      6.992
REMARK INTER + INTRA:          -5.711
REMARK INTER:                  -6.810
REMARK INTRA:                   1.099
REMARK UNBOUND:                 0.366
REMARK  8 active torsions:
REMARK  status: ('A' for Active; 'I' for Inactive)
REMARK    1  A    between atoms: C_13  and  C_15 
REMARK    2  A    between atoms: C_14  and  C_16 
REMARK    3  A    between atoms: C_15  and  C_22 
REMARK    4  A    between atoms: C_16  and  C_23 
REMARK    5  A    between atoms: C_17  and  C_21 
REMARK    6  A    between atoms: C_18  and  C_24 
REMARK    7  A    between atoms: C_19  and  C_27 
REMARK    8  A    between atoms: C_20  and  C_30 
ROOT
HETATM    1  O   UNL     1      47.126  43.800  42.801  1.00  0.00    -0.304 OA
HETATM    2  O   UNL     1      43.288  41.737  44.914  1.00  0.00    -0.304 OA
HETATM    3  O   UNL     1      45.270  44.136  47.514  1.00  0.00    -0.304 OA
HETATM    4  O   UNL     1      44.679  44.299  43.640  1.00  0.00    -0.270 OA
HETATM    5  O   UNL     1      47.421  41.940  44.136  1.00  0.00    -0.263 OA
HETATM    6  O   UNL     1      46.792  45.475  45.900  1.00  0.00    -0.270 OA
HETATM    7  O   UNL     1      41.007  41.588  44.648  1.00  0.00    -0.263 OA
HETATM    8  O   UNL     1      41.470  40.138  47.368  1.00  0.00    -0.270 OA
HETATM    9  O   UNL     1      44.687  42.612  49.145  1.00  0.00    -0.263 OA
HETATM   10  N   UNL     1      43.642  42.609  42.435  1.00  0.00    -0.340 N 
HETATM   11  N   UNL     1      48.401  43.806  45.991  1.00  0.00    -0.340 N 
HETATM   12  N   UNL     1      42.230  42.267  47.886  1.00  0.00    -0.340 N 
HETATM   13  C   UNL     1      42.329  42.881  43.067  1.00  0.00     0.190 C 
HETATM   14  C   UNL     1      48.701  43.970  44.555  1.00  0.00     0.190 C 
HETATM   15  C   UNL     1      46.071  43.151  42.065  1.00  0.00     0.227 C 
HETATM   16  C   UNL     1      43.030  43.467  47.564  1.00  0.00     0.190 C 
HETATM   17  C   UNL     1      46.682  44.025  47.794  1.00  0.00     0.227 C 
HETATM   18  C   UNL     1      43.347  40.903  46.075  1.00  0.00     0.227 C 
HETATM   19  C   UNL     1      44.742  43.405  42.788  1.00  0.00     0.250 C 
HETATM   20  C   UNL     1      47.689  43.094  43.828  1.00  0.00     0.283 C 
HETATM   21  C   UNL     1      47.306  44.523  46.496  1.00  0.00     0.250 C 
HETATM   22  C   UNL     1      42.110  41.961  44.268  1.00  0.00     0.283 C 
HETATM   23  C   UNL     1      42.253  41.070  47.152  1.00  0.00     0.250 C 
HETATM   24  C   UNL     1      44.406  43.329  48.196  1.00  0.00     0.283 C 
HETATM   25  C   UNL     1      43.705  41.459  41.527  1.00  0.00     0.153 C 
HETATM   26  C   UNL     1      49.152  42.814  46.764  1.00  0.00     0.153 C 
HETATM   27  C   UNL     1      41.349  42.334  49.053  1.00  0.00     0.153 C 
ENDROOT
BRANCH  15  28
HETATM   28  C   UNL     1      46.042  43.781  40.679  1.00  0.00     0.016 C 
HETATM   29  C   UNL     1      45.500  45.208  40.746  1.00  0.00     0.012 C 
HETATM   30  C   UNL     1      47.434  43.766  40.050  1.00  0.00     0.012 C 
ENDBRANCH  15  28
BRANCH  14  31
HETATM   31  C   UNL     1      50.110  43.606  44.108  1.00  0.00     0.014 C 
HETATM   32  C   UNL     1      50.102  43.236  42.623  1.00  0.00     0.012 C 
BRANCH  31  33
HETATM   33  C   UNL     1      51.114  44.746  44.357  1.00  0.00     0.002 C 
HETATM   34  C   UNL     1      52.467  44.521  43.695  1.00  0.00     0.005 C 
ENDBRANCH  31  33
ENDBRANCH  14  31
BRANCH  13  35
HETATM   35  C   UNL     1      41.158  42.810  42.087  1.00  0.00     0.014 C 
HETATM   36  C   UNL     1      41.148  44.058  41.200  1.00  0.00     0.012 C 
BRANCH  35  37
HETATM   37  C   UNL     1      41.203  41.547  41.208  1.00  0.00     0.002 C 
HETATM   38  C   UNL     1      40.496  41.711  39.871  1.00  0.00     0.005 C 
ENDBRANCH  35  37
ENDBRANCH  13  35
BRANCH  17  39
HETATM   39  C   UNL     1      47.060  44.929  48.953  1.00  0.00     0.016 C 
HETATM   40  C   UNL     1      48.063  45.988  48.503  1.00  0.00     0.012 C 
HETATM   41  C   UNL     1      47.629  44.109  50.109  1.00  0.00     0.012 C 
ENDBRANCH  17  39
BRANCH  18  42
HETATM   42  C   UNL     1      43.446  39.454  45.597  1.00  0.00     0.016 C 
HETATM   43  C   UNL     1      44.454  39.329  44.455  1.00  0.00     0.012 C 
HETATM   44  C   UNL     1      43.828  38.530  46.751  1.00  0.00     0.012 C 
ENDBRANCH  18  42
BRANCH  16  45
HETATM   45  C   UNL     1      42.398  44.796  47.971  1.00  0.00     0.010 C 
HETATM   46  C   UNL     1      42.296  45.736  46.771  1.00  0.00     0.012 C 
HETATM   47  C   UNL     1      43.195  45.452  49.098  1.00  0.00     0.012 C 
ENDBRANCH  16  45
TORSDOF 8
ENDMDL
MODEL 19
REMARK VINA RESULT:    -3.969      2.233      6.061
REMARK INTER + INTRA:          -5.459
REMARK INTER:                  -5.836
REMARK INTRA:                   0.377
REMARK UNBOUND:                 0.366
REMARK  8 active torsions:
REMARK  status: ('A' for Active; 'I' for Inactive)
REMARK    1  A    between atoms: C_13  and  C_15 
REMARK    2  A    between atoms: C_14  and  C_16 
REMARK    3  A    between atoms: C_15  and  C_22 
REMARK    4  A    between atoms: C_16  and  C_23 
REMARK    5  A    between atoms: C_17  and  C_21 
REMARK    6  A    between atoms: C_18  and  C_24 
REMARK    7  A    between atoms: C_19  and  C_27 
REMARK    8  A    between atoms: C_20  and  C_30 
ROOT
HETATM    1  O   UNL     1      41.204  43.501  48.481  1.00  0.00    -0.304 OA
HETATM    2  O   UNL     1      43.527  41.977  44.515  1.00  0.00    -0.304 OA
HETATM    3  O   UNL     1      44.062  45.956  45.080  1.00  0.00    -0.304 OA
HETATM    4  O   UNL     1      43.602  42.941  47.545  1.00  0.00    -0.270 OA
HETATM    5  O   UNL     1      40.248  43.821  46.404  1.00  0.00    -0.263 OA
HETATM    6  O   UNL     1      43.240  46.231  47.522  1.00  0.00    -0.270 OA
HETATM    7  O   UNL     1      45.134  40.448  43.900  1.00  0.00    -0.263 OA
HETATM    8  O   UNL     1      44.648  42.023  41.254  1.00  0.00    -0.270 OA
HETATM    9  O   UNL     1      44.056  46.141  42.780  1.00  0.00    -0.263 OA
HETATM   10  N   UNL     1      43.112  40.784  46.845  1.00  0.00    -0.340 N 
HETATM   11  N   UNL     1      41.054  46.483  46.784  1.00  0.00    -0.340 N 
HETATM   12  N   UNL     1      45.427  43.724  42.624  1.00  0.00    -0.340 N 
HETATM   13  C   UNL     1      44.448  40.614  46.228  1.00  0.00     0.190 C 
HETATM   14  C   UNL     1      40.543  45.700  47.926  1.00  0.00     0.190 C 
HETATM   15  C   UNL     1      41.452  42.110  48.193  1.00  0.00     0.227 C 
HETATM   16  C   UNL     1      45.418  44.454  43.909  1.00  0.00     0.190 C 
HETATM   17  C   UNL     1      42.979  46.898  45.244  1.00  0.00     0.227 C 
HETATM   18  C   UNL     1      43.302  42.480  43.194  1.00  0.00     0.227 C 
HETATM   19  C   UNL     1      42.814  41.990  47.498  1.00  0.00     0.250 C 
HETATM   20  C   UNL     1      40.629  44.244  47.488  1.00  0.00     0.283 C 
HETATM   21  C   UNL     1      42.447  46.536  46.624  1.00  0.00     0.250 C 
HETATM   22  C   UNL     1      44.399  40.954  44.738  1.00  0.00     0.283 C 
HETATM   23  C   UNL     1      44.525  42.705  42.278  1.00  0.00     0.250 C 
HETATM   24  C   UNL     1      44.441  45.614  43.814  1.00  0.00     0.283 C 
HETATM   25  C   UNL     1      42.161  39.683  46.658  1.00  0.00     0.153 C 
HETATM   26  C   UNL     1      40.102  47.031  45.816  1.00  0.00     0.153 C 
HETATM   27  C   UNL     1      46.451  44.090  41.645  1.00  0.00     0.153 C 
ENDROOT
BRANCH  15  28
HETATM   28  C   UNL     1      41.477  41.377  49.527  1.00  0.00     0.016 C 
HETATM   29  C   UNL     1      42.086  42.258  50.616  1.00  0.00     0.012 C 
HETATM   30  C   UNL     1      40.071  40.931  49.925  1.00  0.00     0.012 C 
ENDBRANCH  15  28
BRANCH  14  31
HETATM   31  C   UNL     1      39.127  46.016  48.388  1.00  0.00     0.014 C 
HETATM   32  C   UNL     1      38.460  44.744  48.917  1.00  0.00     0.012 C 
BRANCH  31  33
HETATM   33  C   UNL     1      39.095  47.111  49.469  1.00  0.00     0.002 C 
HETATM   34  C   UNL     1      40.471  47.468  50.015  1.00  0.00     0.005 C 
ENDBRANCH  31  33
ENDBRANCH  14  31
BRANCH  13  35
HETATM   35  C   UNL     1      45.056  39.233  46.467  1.00  0.00     0.014 C 
HETATM   36  C   UNL     1      46.576  39.298  46.292  1.00  0.00     0.012 C 
BRANCH  35  37
HETATM   37  C   UNL     1      44.717  38.676  47.861  1.00  0.00     0.002 C 
HETATM   38  C   UNL     1      44.408  37.185  47.862  1.00  0.00     0.005 C 
ENDBRANCH  35  37
ENDBRANCH  13  35
BRANCH  17  39
HETATM   39  C   UNL     1      43.513  48.319  45.228  1.00  0.00     0.016 C 
HETATM   40  C   UNL     1      43.225  49.014  46.556  1.00  0.00     0.012 C 
HETATM   41  C   UNL     1      42.908  49.106  44.068  1.00  0.00     0.012 C 
ENDBRANCH  17  39
BRANCH  18  42
HETATM   42  C   UNL     1      42.263  41.577  42.528  1.00  0.00     0.016 C 
HETATM   43  C   UNL     1      41.362  40.925  43.577  1.00  0.00     0.012 C 
HETATM   44  C   UNL     1      41.427  42.367  41.523  1.00  0.00     0.012 C 
ENDBRANCH  18  42
BRANCH  16  45
HETATM   45  C   UNL     1      46.783  44.956  44.377  1.00  0.00     0.010 C 
HETATM   46  C   UNL     1      47.121  44.394  45.757  1.00  0.00     0.012 C 
HETATM   47  C   UNL     1      46.819  46.484  44.399  1.00  0.00     0.012 C 
ENDBRANCH  16  45
TORSDOF 8
ENDMDL
MODEL 20
REMARK VINA RESULT:    -3.944      2.640      7.142
REMARK INTER + INTRA:          -5.422
REMARK INTER:                  -5.705
REMARK INTRA:                   0.283
REMARK UNBOUND:                 0.366
REMARK  8 active torsions:
REMARK  status: ('A' for Active; 'I' for Inactive)
REMARK    1  A    between atoms: C_13  and  C_15 
REMARK    2  A    between atoms: C_14  and  C_16 
REMARK    3  A    between atoms: C_15  and  C_22 
REMARK    4  A    between atoms: C_16  and  C_23 
REMARK    5  A    between atoms: C_17  and  C_21 
REMARK    6  A    between atoms: C_18  and  C_24 
REMARK    7  A    between atoms: C_19  and  C_27 
REMARK    8  A    between atoms: C_20  and  C_30 
ROOT
HETATM    1  O   UNL     1      45.247  43.907  43.037  1.00  0.00    -0.304 OA
HETATM    2  O   UNL     1      43.822  41.205  46.795  1.00  0.00    -0.304 OA
HETATM    3  O   UNL     1      47.755  42.147  47.084  1.00  0.00    -0.304 OA
HETATM    4  O   UNL     1      44.653  44.034  45.601  1.00  0.00    -0.270 OA
HETATM    5  O   UNL     1      45.685  41.641  43.045  1.00  0.00    -0.263 OA
HETATM    6  O   UNL     1      47.951  44.032  45.316  1.00  0.00    -0.270 OA
HETATM    7  O   UNL     1      42.272  41.242  48.496  1.00  0.00    -0.263 OA
HETATM    8  O   UNL     1      43.973  38.721  49.182  1.00  0.00    -0.270 OA
HETATM    9  O   UNL     1      48.038  40.070  48.047  1.00  0.00    -0.263 OA
HETATM   10  N   UNL     1      42.545  43.083  45.427  1.00  0.00    -0.340 N 
HETATM   11  N   UNL     1      48.303  42.461  43.645  1.00  0.00    -0.340 N 
HETATM   12  N   UNL     1      45.588  40.378  49.331  1.00  0.00    -0.340 N 
HETATM   13  C   UNL     1      42.360  43.074  46.898  1.00  0.00     0.190 C 
HETATM   14  C   UNL     1      47.488  43.241  42.693  1.00  0.00     0.190 C 
HETATM   15  C   UNL     1      43.863  43.678  43.369  1.00  0.00     0.227 C 
HETATM   16  C   UNL     1      46.263  41.577  48.791  1.00  0.00     0.190 C 
HETATM   17  C   UNL     1      48.722  41.892  46.043  1.00  0.00     0.227 C 
HETATM   18  C   UNL     1      44.388  39.940  47.150  1.00  0.00     0.227 C 
HETATM   19  C   UNL     1      43.730  43.612  44.895  1.00  0.00     0.250 C 
HETATM   20  C   UNL     1      46.050  42.804  42.940  1.00  0.00     0.283 C 
HETATM   21  C   UNL     1      48.319  42.901  44.976  1.00  0.00     0.250 C 
HETATM   22  C   UNL     1      42.764  41.720  47.482  1.00  0.00     0.283 C 
HETATM   23  C   UNL     1      44.613  39.633  48.647  1.00  0.00     0.250 C 
HETATM   24  C   UNL     1      47.456  41.141  47.956  1.00  0.00     0.283 C 
HETATM   25  C   UNL     1      41.483  42.458  44.632  1.00  0.00     0.153 C 
HETATM   26  C   UNL     1      48.920  41.212  43.192  1.00  0.00     0.153 C 
HETATM   27  C   UNL     1      45.964  39.938  50.675  1.00  0.00     0.153 C 
ENDROOT
BRANCH  15  28
HETATM   28  C   UNL     1      43.073  44.860  42.824  1.00  0.00     0.016 C 
HETATM   29  C   UNL     1      44.008  46.011  42.457  1.00  0.00     0.012 C 
HETATM   30  C   UNL     1      42.240  44.441  41.613  1.00  0.00     0.012 C 
ENDBRANCH  15  28
BRANCH  14  31
HETATM   31  C   UNL     1      47.827  43.083  41.217  1.00  0.00     0.014 C 
HETATM   32  C   UNL     1      46.632  43.513  40.363  1.00  0.00     0.012 C 
BRANCH  31  33
HETATM   33  C   UNL     1      49.074  43.890  40.815  1.00  0.00     0.002 C 
HETATM   34  C   UNL     1      48.777  45.346  40.484  1.00  0.00     0.005 C 
ENDBRANCH  31  33
ENDBRANCH  14  31
BRANCH  13  35
HETATM   35  C   UNL     1      40.951  43.474  47.335  1.00  0.00     0.014 C 
HETATM   36  C   UNL     1      40.931  43.734  48.843  1.00  0.00     0.012 C 
BRANCH  35  37
HETATM   37  C   UNL     1      40.435  44.715  46.586  1.00  0.00     0.002 C 
HETATM   38  C   UNL     1      38.928  44.713  46.370  1.00  0.00     0.005 C 
ENDBRANCH  35  37
ENDBRANCH  13  35
BRANCH  17  39
HETATM   39  C   UNL     1      50.125  42.175  46.548  1.00  0.00     0.016 C 
HETATM   40  C   UNL     1      50.769  43.300  45.742  1.00  0.00     0.012 C 
HETATM   41  C   UNL     1      50.983  40.912  46.486  1.00  0.00     0.012 C 
ENDBRANCH  17  39
BRANCH  18  42
HETATM   42  C   UNL     1      43.547  38.854  46.477  1.00  0.00     0.016 C 
HETATM   43  C   UNL     1      43.037  39.331  45.118  1.00  0.00     0.012 C 
HETATM   44  C   UNL     1      44.352  37.565  46.325  1.00  0.00     0.012 C 
ENDBRANCH  18  42
BRANCH  16  45
HETATM   45  C   UNL     1      46.702  42.599  49.838  1.00  0.00     0.010 C 
HETATM   46  C   UNL     1      46.094  43.970  49.544  1.00  0.00     0.012 C 
HETATM   47  C   UNL     1      48.226  42.692  49.897  1.00  0.00     0.012 C 
ENDBRANCH  16  45
TORSDOF 8
ENDMDL
