MODEL 1
REMARK VINA RESULT:    -5.426      0.000      0.000
REMARK INTER + INTRA:          -7.469
REMARK INTER:                  -7.964
REMARK INTRA:                   0.495
REMARK UNBOUND:                 0.495
REMARK  8 active torsions:
REMARK  status: ('A' for Active; 'I' for Inactive)
REMARK    1  A    between atoms: C_13  and  C_15 
REMARK    2  A    between atoms: C_14  and  C_16 
REMARK    3  A    between atoms: C_15  and  C_22 
REMARK    4  A    between atoms: C_16  and  C_23 
REMARK    5  A    between atoms: C_17  and  C_21 
REMARK    6  A    between atoms: C_18  and  C_24 
REMARK    7  A    between atoms: C_19  and  C_27 
REMARK    8  A    between atoms: C_20  and  C_30 
ROOT
HETATM    1  O   UNL     1      17.708   5.540  40.233  1.00  0.00    -0.304 OA
HETATM    2  O   UNL     1      15.142   8.426  37.312  1.00  0.00    -0.304 OA
HETATM    3  O   UNL     1      19.030   9.568  37.441  1.00  0.00    -0.304 OA
HETATM    4  O   UNL     1      17.255   6.080  37.695  1.00  0.00    -0.270 OA
HETATM    5  O   UNL     1      16.976   7.588  41.007  1.00  0.00    -0.263 OA
HETATM    6  O   UNL     1      20.125   7.493  38.541  1.00  0.00    -0.270 OA
HETATM    7  O   UNL     1      13.810   8.293  35.439  1.00  0.00    -0.263 OA
HETATM    8  O   UNL     1      14.054  11.369  35.881  1.00  0.00    -0.270 OA
HETATM    9  O   UNL     1      18.256  11.731  37.237  1.00  0.00    -0.263 OA
HETATM   10  N   UNL     1      14.951   5.824  37.781  1.00  0.00    -0.340 N 
HETATM   11  N   UNL     1      19.659   8.336  40.653  1.00  0.00    -0.340 N 
HETATM   12  N   UNL     1      16.275  10.816  35.511  1.00  0.00    -0.340 N 
HETATM   13  C   UNL     1      14.786   6.272  36.378  1.00  0.00     0.190 C 
HETATM   14  C   UNL     1      19.332   6.987  41.156  1.00  0.00     0.190 C 
HETATM   15  C   UNL     1      16.390   5.210  39.751  1.00  0.00     0.227 C 
HETATM   16  C   UNL     1      17.451   9.957  35.761  1.00  0.00     0.190 C 
HETATM   17  C   UNL     1      19.746   9.848  38.663  1.00  0.00     0.227 C 
HETATM   18  C   UNL     1      15.013   9.842  37.473  1.00  0.00     0.227 C 
HETATM   19  C   UNL     1      16.243   5.747  38.323  1.00  0.00     0.250 C 
HETATM   20  C   UNL     1      17.865   6.771  40.808  1.00  0.00     0.283 C 
HETATM   21  C   UNL     1      19.890   8.460  39.275  1.00  0.00     0.250 C 
HETATM   22  C   UNL     1      14.473   7.767  36.324  1.00  0.00     0.283 C 
HETATM   23  C   UNL     1      15.059  10.730  36.209  1.00  0.00     0.250 C 
HETATM   24  C   UNL     1      18.276  10.561  36.886  1.00  0.00     0.283 C 
HETATM   25  C   UNL     1      13.718   5.562  38.532  1.00  0.00     0.153 C 
HETATM   26  C   UNL     1      19.583   9.474  41.572  1.00  0.00     0.153 C 
HETATM   27  C   UNL     1      16.386  11.826  34.458  1.00  0.00     0.153 C 
ENDROOT
BRANCH  15  28
HETATM   28  C   UNL     1      16.283   3.691  39.754  1.00  0.00     0.016 C 
HETATM   29  C   UNL     1      17.669   3.052  39.820  1.00  0.00     0.012 C 
HETATM   30  C   UNL     1      15.418   3.213  40.919  1.00  0.00     0.012 C 
ENDBRANCH  15  28
BRANCH  14  31
HETATM   31  C   UNL     1      19.550   6.745  42.643  1.00  0.00     0.014 C 
HETATM   32  C   UNL     1      18.618   5.631  43.127  1.00  0.00     0.012 C 
BRANCH  31  33
HETATM   33  C   UNL     1      21.009   6.383  42.969  1.00  0.00     0.002 C 
HETATM   34  C   UNL     1      21.816   5.949  41.753  1.00  0.00     0.005 C 
ENDBRANCH  31  33
ENDBRANCH  14  31
BRANCH  13  35
HETATM   35  C   UNL     1      13.756   5.456  35.598  1.00  0.00     0.014 C 
HETATM   36  C   UNL     1      12.400   6.166  35.629  1.00  0.00     0.012 C 
BRANCH  35  37
HETATM   37  C   UNL     1      14.183   5.213  34.139  1.00  0.00     0.002 C 
HETATM   38  C   UNL     1      15.667   5.441  33.892  1.00  0.00     0.005 C 
ENDBRANCH  35  37
ENDBRANCH  13  35
BRANCH  17  39
HETATM   39  C   UNL     1      21.107  10.441  38.350  1.00  0.00     0.016 C 
HETATM   40  C   UNL     1      22.220   9.539  38.876  1.00  0.00     0.012 C 
HETATM   41  C   UNL     1      21.230  11.844  38.941  1.00  0.00     0.012 C 
ENDBRANCH  17  39
BRANCH  18  42
HETATM   42  C   UNL     1      13.747  10.100  38.291  1.00  0.00     0.016 C 
HETATM   43  C   UNL     1      13.547   9.003  39.337  1.00  0.00     0.012 C 
HETATM   44  C   UNL     1      13.806  11.472  38.959  1.00  0.00     0.012 C 
ENDBRANCH  18  42
BRANCH  16  45
HETATM   45  C   UNL     1      18.336   9.701  34.543  1.00  0.00     0.010 C 
HETATM   46  C   UNL     1      18.509   8.201  34.306  1.00  0.00     0.012 C 
HETATM   47  C   UNL     1      19.697  10.374  34.712  1.00  0.00     0.012 C 
ENDBRANCH  16  45
TORSDOF 8
ENDMDL
MODEL 2
REMARK VINA RESULT:    -5.388      1.902      4.259
REMARK INTER + INTRA:          -7.413
REMARK INTER:                  -7.758
REMARK INTRA:                   0.345
REMARK UNBOUND:                 0.495
REMARK  8 active torsions:
REMARK  status: ('A' for Active; 'I' for Inactive)
REMARK    1  A    between atoms: C_13  and  C_15 
REMARK    2  A    between atoms: C_14  and  C_16 
REMARK    3  A    between atoms: C_15  and  C_22 
REMARK    4  A    between atoms: C_16  and  C_23 
REMARK    5  A    between atoms: C_17  and  C_21 
REMARK    6  A    between atoms: C_18  and  C_24 
REMARK    7  A    between atoms: C_19  and  C_27 
REMARK    8  A    between atoms: C_20  and  C_30 
ROOT
HETATM    1  O   UNL     1      20.027   7.278  39.319  1.00  0.00    -0.304 OA
HETATM    2  O   UNL     1      15.227   7.883  39.110  1.00  0.00    -0.304 OA
HETATM    3  O   UNL     1      16.983   8.937  35.611  1.00  0.00    -0.304 OA
HETATM    4  O   UNL     1      17.827   6.229  38.320  1.00  0.00    -0.270 OA
HETATM    5  O   UNL     1      19.128   9.383  39.618  1.00  0.00    -0.263 OA
HETATM    6  O   UNL     1      19.344   7.909  35.905  1.00  0.00    -0.270 OA
HETATM    7  O   UNL     1      13.291   6.664  39.364  1.00  0.00    -0.263 OA
HETATM    8  O   UNL     1      12.232   9.423  38.373  1.00  0.00    -0.270 OA
HETATM    9  O   UNL     1      15.356  10.564  35.447  1.00  0.00    -0.263 OA
HETATM   10  N   UNL     1      16.690   6.042  40.333  1.00  0.00    -0.340 N 
HETATM   11  N   UNL     1      20.065   9.819  37.008  1.00  0.00    -0.340 N 
HETATM   12  N   UNL     1      13.525   8.787  36.557  1.00  0.00    -0.340 N 
HETATM   13  C   UNL     1      15.451   5.584  39.662  1.00  0.00     0.190 C 
HETATM   14  C   UNL     1      20.865   9.013  37.951  1.00  0.00     0.190 C 
HETATM   15  C   UNL     1      19.115   6.711  40.280  1.00  0.00     0.227 C 
HETATM   16  C   UNL     1      14.780   8.252  35.989  1.00  0.00     0.190 C 
HETATM   17  C   UNL     1      18.066   9.887  35.508  1.00  0.00     0.227 C 
HETATM   18  C   UNL     1      14.574   9.125  38.832  1.00  0.00     0.227 C 
HETATM   19  C   UNL     1      17.825   6.312  39.553  1.00  0.00     0.250 C 
HETATM   20  C   UNL     1      19.901   8.615  39.060  1.00  0.00     0.283 C 
HETATM   21  C   UNL     1      19.226   9.119  36.129  1.00  0.00     0.250 C 
HETATM   22  C   UNL     1      14.511   6.763  39.408  1.00  0.00     0.283 C 
HETATM   23  C   UNL     1      13.334   9.109  37.910  1.00  0.00     0.250 C 
HETATM   24  C   UNL     1      15.703   9.410  35.646  1.00  0.00     0.283 C 
HETATM   25  C   UNL     1      16.610   6.250  41.783  1.00  0.00     0.153 C 
HETATM   26  C   UNL     1      20.078  11.278  37.133  1.00  0.00     0.153 C 
HETATM   27  C   UNL     1      12.403   8.995  35.642  1.00  0.00     0.153 C 
ENDROOT
BRANCH  15  28
HETATM   28  C   UNL     1      19.792   5.478  40.863  1.00  0.00     0.016 C 
HETATM   29  C   UNL     1      19.790   4.333  39.851  1.00  0.00     0.012 C 
HETATM   30  C   UNL     1      21.219   5.802  41.301  1.00  0.00     0.012 C 
ENDBRANCH  15  28
BRANCH  14  31
HETATM   31  C   UNL     1      22.091   9.687  38.552  1.00  0.00     0.014 C 
HETATM   32  C   UNL     1      22.297   9.200  39.988  1.00  0.00     0.012 C 
BRANCH  31  33
HETATM   33  C   UNL     1      23.364   9.429  37.726  1.00  0.00     0.002 C 
HETATM   34  C   UNL     1      23.627  10.488  36.664  1.00  0.00     0.005 C 
ENDBRANCH  31  33
ENDBRANCH  14  31
BRANCH  13  35
HETATM   35  C   UNL     1      14.741   4.453  40.404  1.00  0.00     0.014 C 
HETATM   36  C   UNL     1      13.882   3.649  39.425  1.00  0.00     0.012 C 
BRANCH  35  37
HETATM   37  C   UNL     1      15.726   3.514  41.124  1.00  0.00     0.002 C 
HETATM   38  C   UNL     1      16.381   2.496  40.201  1.00  0.00     0.005 C 
ENDBRANCH  35  37
ENDBRANCH  13  35
BRANCH  17  39
HETATM   39  C   UNL     1      18.349  10.205  34.052  1.00  0.00     0.016 C 
HETATM   40  C   UNL     1      19.788   9.842  33.694  1.00  0.00     0.012 C 
HETATM   41  C   UNL     1      18.079  11.680  33.761  1.00  0.00     0.012 C 
ENDBRANCH  17  39
BRANCH  18  42
HETATM   42  C   UNL     1      14.266   9.794  40.172  1.00  0.00     0.016 C 
HETATM   43  C   UNL     1      15.376   9.513  41.184  1.00  0.00     0.012 C 
HETATM   44  C   UNL     1      14.075  11.299  39.992  1.00  0.00     0.012 C 
ENDBRANCH  18  42
BRANCH  16  45
HETATM   45  C   UNL     1      14.604   7.345  34.772  1.00  0.00     0.010 C 
HETATM   46  C   UNL     1      15.330   6.016  34.980  1.00  0.00     0.012 C 
HETATM   47  C   UNL     1      15.107   8.036  33.505  1.00  0.00     0.012 C 
ENDBRANCH  16  45
TORSDOF 8
ENDMDL
MODEL 3
REMARK VINA RESULT:    -5.287      2.271      6.153
REMARK INTER + INTRA:          -7.264
REMARK INTER:                  -8.254
REMARK INTRA:                   0.989
REMARK UNBOUND:                 0.495
REMARK  8 active torsions:
REMARK  status: ('A' for Active; 'I' for Inactive)
REMARK    1  A    between atoms: C_13  and  C_15 
REMARK    2  A    between atoms: C_14  and  C_16 
REMARK    3  A    between atoms: C_15  and  C_22 
REMARK    4  A    between atoms: C_16  and  C_23 
REMARK    5  A    between atoms: C_17  and  C_21 
REMARK    6  A    between atoms: C_18  and  C_24 
REMARK    7  A    between atoms: C_19  and  C_27 
REMARK    8  A    between atoms: C_20  and  C_30 
ROOT
HETATM    1  O   UNL     1      16.969   6.686  37.431  1.00  0.00    -0.304 OA
HETATM    2  O   UNL     1      19.252  10.771  38.673  1.00  0.00    -0.304 OA
HETATM    3  O   UNL     1      20.594   7.629  40.856  1.00  0.00    -0.304 OA
HETATM    4  O   UNL     1      19.261   7.961  37.183  1.00  0.00    -0.270 OA
HETATM    5  O   UNL     1      16.300   7.839  39.315  1.00  0.00    -0.263 OA
HETATM    6  O   UNL     1      19.634   5.635  39.508  1.00  0.00    -0.270 OA
HETATM    7  O   UNL     1      20.533  12.427  37.717  1.00  0.00    -0.263 OA
HETATM    8  O   UNL     1      20.648  13.145  40.748  1.00  0.00    -0.270 OA
HETATM    9  O   UNL     1      20.839   9.123  42.597  1.00  0.00    -0.263 OA
HETATM   10  N   UNL     1      18.375   9.923  36.320  1.00  0.00    -0.340 N 
HETATM   11  N   UNL     1      17.633   5.777  40.676  1.00  0.00    -0.340 N 
HETATM   12  N   UNL     1      21.654  11.056  40.768  1.00  0.00    -0.340 N 
HETATM   13  C   UNL     1      19.692  10.602  36.346  1.00  0.00     0.190 C 
HETATM   14  C   UNL     1      16.861   5.473  39.456  1.00  0.00     0.190 C 
HETATM   15  C   UNL     1      16.931   7.888  36.636  1.00  0.00     0.227 C 
HETATM   16  C   UNL     1      21.689   9.635  40.362  1.00  0.00     0.190 C 
HETATM   17  C   UNL     1      19.735   6.752  41.616  1.00  0.00     0.227 C 
HETATM   18  C   UNL     1      19.265  11.330  39.990  1.00  0.00     0.227 C 
HETATM   19  C   UNL     1      18.290   8.589  36.744  1.00  0.00     0.250 C 
HETATM   20  C   UNL     1      16.664   6.812  38.758  1.00  0.00     0.283 C 
HETATM   21  C   UNL     1      19.012   5.982  40.519  1.00  0.00     0.250 C 
HETATM   22  C   UNL     1      19.854  11.412  37.632  1.00  0.00     0.283 C 
HETATM   23  C   UNL     1      20.585  11.932  40.518  1.00  0.00     0.250 C 
HETATM   24  C   UNL     1      21.003   8.798  41.430  1.00  0.00     0.283 C 
HETATM   25  C   UNL     1      17.227  10.741  35.914  1.00  0.00     0.153 C 
HETATM   26  C   UNL     1      16.917   5.989  41.935  1.00  0.00     0.153 C 
HETATM   27  C   UNL     1      22.818  11.585  41.479  1.00  0.00     0.153 C 
ENDROOT
BRANCH  15  28
HETATM   28  C   UNL     1      16.673   7.462  35.197  1.00  0.00     0.016 C 
HETATM   29  C   UNL     1      17.082   6.006  34.983  1.00  0.00     0.012 C 
HETATM   30  C   UNL     1      15.203   7.664  34.830  1.00  0.00     0.012 C 
ENDBRANCH  15  28
BRANCH  14  31
HETATM   31  C   UNL     1      15.512   4.794  39.656  1.00  0.00     0.014 C 
HETATM   32  C   UNL     1      14.596   5.105  38.469  1.00  0.00     0.012 C 
BRANCH  31  33
HETATM   33  C   UNL     1      15.645   3.271  39.828  1.00  0.00     0.002 C 
HETATM   34  C   UNL     1      14.389   2.502  39.440  1.00  0.00     0.005 C 
ENDBRANCH  31  33
ENDBRANCH  14  31
BRANCH  13  35
HETATM   35  C   UNL     1      19.957  11.459  35.108  1.00  0.00     0.014 C 
HETATM   36  C   UNL     1      21.385  12.011  35.156  1.00  0.00     0.012 C 
BRANCH  35  37
HETATM   37  C   UNL     1      19.745  10.679  33.798  1.00  0.00     0.002 C 
HETATM   38  C   UNL     1      20.618   9.439  33.679  1.00  0.00     0.005 C 
ENDBRANCH  35  37
ENDBRANCH  13  35
BRANCH  17  39
HETATM   39  C   UNL     1      20.566   5.815  42.473  1.00  0.00     0.016 C 
HETATM   40  C   UNL     1      20.346   6.106  43.956  1.00  0.00     0.012 C 
HETATM   41  C   UNL     1      22.047   5.934  42.117  1.00  0.00     0.012 C 
ENDBRANCH  17  39
BRANCH  18  42
HETATM   42  C   UNL     1      18.117  12.338  40.074  1.00  0.00     0.016 C 
HETATM   43  C   UNL     1      16.867  11.792  39.385  1.00  0.00     0.012 C 
HETATM   44  C   UNL     1      17.815  12.692  41.528  1.00  0.00     0.012 C 
ENDBRANCH  18  42
BRANCH  16  45
HETATM   45  C   UNL     1      23.082   9.078  40.076  1.00  0.00     0.010 C 
HETATM   46  C   UNL     1      23.922   9.040  41.352  1.00  0.00     0.012 C 
HETATM   47  C   UNL     1      23.784   9.904  38.999  1.00  0.00     0.012 C 
ENDBRANCH  16  45
TORSDOF 8
ENDMDL
MODEL 4
REMARK VINA RESULT:    -5.255      2.037      7.865
REMARK INTER + INTRA:          -7.217
REMARK INTER:                  -8.227
REMARK INTRA:                   1.010
REMARK UNBOUND:                 0.495
REMARK  8 active torsions:
REMARK  status: ('A' for Active; 'I' for Inactive)
REMARK    1  A    between atoms: C_13  and  C_15 
REMARK    2  A    between atoms: C_14  and  C_16 
REMARK    3  A    between atoms: C_15  and  C_22 
REMARK    4  A    between atoms: C_16  and  C_23 
REMARK    5  A    between atoms: C_17  and  C_21 
REMARK    6  A    between atoms: C_18  and  C_24 
REMARK    7  A    between atoms: C_19  and  C_27 
REMARK    8  A    between atoms: C_20  and  C_30 
ROOT
HETATM    1  O   UNL     1      18.167   8.324  35.246  1.00  0.00    -0.304 OA
HETATM    2  O   UNL     1      19.352   9.545  39.780  1.00  0.00    -0.304 OA
HETATM    3  O   UNL     1      17.650   5.867  39.658  1.00  0.00    -0.304 OA
HETATM    4  O   UNL     1      19.924   7.848  37.151  1.00  0.00    -0.270 OA
HETATM    5  O   UNL     1      16.544   9.139  36.670  1.00  0.00    -0.263 OA
HETATM    6  O   UNL     1      17.752   5.351  37.120  1.00  0.00    -0.270 OA
HETATM    7  O   UNL     1      21.198  10.164  41.006  1.00  0.00    -0.263 OA
HETATM    8  O   UNL     1      18.995   9.884  43.193  1.00  0.00    -0.270 OA
HETATM    9  O   UNL     1      16.725   6.381  41.708  1.00  0.00    -0.263 OA
HETATM   10  N   UNL     1      20.560  10.055  37.476  1.00  0.00    -0.340 N 
HETATM   11  N   UNL     1      15.736   6.453  36.790  1.00  0.00    -0.340 N 
HETATM   12  N   UNL     1      19.073   7.711  42.387  1.00  0.00    -0.340 N 
HETATM   13  C   UNL     1      21.422   9.702  38.628  1.00  0.00     0.190 C 
HETATM   14  C   UNL     1      16.216   7.020  35.515  1.00  0.00     0.190 C 
HETATM   15  C   UNL     1      19.050   9.417  35.567  1.00  0.00     0.227 C 
HETATM   16  C   UNL     1      19.100   6.750  41.265  1.00  0.00     0.190 C 
HETATM   17  C   UNL     1      16.368   5.594  39.051  1.00  0.00     0.227 C 
HETATM   18  C   UNL     1      18.428   9.627  40.870  1.00  0.00     0.227 C 
HETATM   19  C   UNL     1      19.876   9.033  36.801  1.00  0.00     0.250 C 
HETATM   20  C   UNL     1      16.963   8.291  35.893  1.00  0.00     0.283 C 
HETATM   21  C   UNL     1      16.674   5.758  37.568  1.00  0.00     0.250 C 
HETATM   22  C   UNL     1      20.662   9.879  39.943  1.00  0.00     0.283 C 
HETATM   23  C   UNL     1      18.874   9.095  42.250  1.00  0.00     0.250 C 
HETATM   24  C   UNL     1      17.677   6.320  40.945  1.00  0.00     0.283 C 
HETATM   25  C   UNL     1      20.428  11.484  37.172  1.00  0.00     0.153 C 
HETATM   26  C   UNL     1      14.376   6.762  37.237  1.00  0.00     0.153 C 
HETATM   27  C   UNL     1      19.268   7.181  43.737  1.00  0.00     0.153 C 
ENDROOT
BRANCH  15  28
HETATM   28  C   UNL     1      19.965   9.619  34.366  1.00  0.00     0.016 C 
HETATM   29  C   UNL     1      20.361   8.275  33.758  1.00  0.00     0.012 C 
HETATM   30  C   UNL     1      19.291  10.503  33.318  1.00  0.00     0.012 C 
ENDBRANCH  15  28
BRANCH  14  31
HETATM   31  C   UNL     1      15.155   7.338  34.470  1.00  0.00     0.014 C 
HETATM   32  C   UNL     1      15.536   8.617  33.720  1.00  0.00     0.012 C 
BRANCH  31  33
HETATM   33  C   UNL     1      14.954   6.186  33.470  1.00  0.00     0.002 C 
HETATM   34  C   UNL     1      16.257   5.553  33.001  1.00  0.00     0.005 C 
ENDBRANCH  31  33
ENDBRANCH  14  31
BRANCH  13  35
HETATM   35  C   UNL     1      22.752  10.456  38.645  1.00  0.00     0.014 C 
HETATM   36  C   UNL     1      23.764   9.703  39.513  1.00  0.00     0.012 C 
BRANCH  35  37
HETATM   37  C   UNL     1      23.328  10.660  37.232  1.00  0.00     0.002 C 
HETATM   38  C   UNL     1      24.108   9.460  36.713  1.00  0.00     0.005 C 
ENDBRANCH  35  37
ENDBRANCH  13  35
BRANCH  17  39
HETATM   39  C   UNL     1      15.935   4.171  39.357  1.00  0.00     0.016 C 
HETATM   40  C   UNL     1      14.746   4.165  40.314  1.00  0.00     0.012 C 
HETATM   41  C   UNL     1      17.098   3.370  39.940  1.00  0.00     0.012 C 
ENDBRANCH  17  39
BRANCH  18  42
HETATM   42  C   UNL     1      17.948  11.076  40.958  1.00  0.00     0.016 C 
HETATM   43  C   UNL     1      17.839  11.696  39.565  1.00  0.00     0.012 C 
HETATM   44  C   UNL     1      16.607  11.158  41.686  1.00  0.00     0.012 C 
ENDBRANCH  18  42
BRANCH  16  45
HETATM   45  C   UNL     1      19.981   5.521  41.487  1.00  0.00     0.010 C 
HETATM   46  C   UNL     1      21.423   5.935  41.777  1.00  0.00     0.012 C 
HETATM   47  C   UNL     1      19.925   4.590  40.276  1.00  0.00     0.012 C 
ENDBRANCH  16  45
TORSDOF 8
ENDMDL
MODEL 5
REMARK VINA RESULT:    -5.253      9.449     13.127
REMARK INTER + INTRA:          -7.214
REMARK INTER:                  -7.696
REMARK INTRA:                   0.482
REMARK UNBOUND:                 0.495
REMARK  8 active torsions:
REMARK  status: ('A' for Active; 'I' for Inactive)
REMARK    1  A    between atoms: C_13  and  C_15 
REMARK    2  A    between atoms: C_14  and  C_16 
REMARK    3  A    between atoms: C_15  and  C_22 
REMARK    4  A    between atoms: C_16  and  C_23 
REMARK    5  A    between atoms: C_17  and  C_21 
REMARK    6  A    between atoms: C_18  and  C_24 
REMARK    7  A    between atoms: C_19  and  C_27 
REMARK    8  A    between atoms: C_20  and  C_30 
ROOT
HETATM    1  O   UNL     1      17.881  15.984  42.739  1.00  0.00    -0.304 OA
HETATM    2  O   UNL     1      19.139  20.028  45.086  1.00  0.00    -0.304 OA
HETATM    3  O   UNL     1      22.062  18.854  42.534  1.00  0.00    -0.304 OA
HETATM    4  O   UNL     1      18.151  18.586  42.429  1.00  0.00    -0.270 OA
HETATM    5  O   UNL     1      19.285  15.853  44.567  1.00  0.00    -0.263 OA
HETATM    6  O   UNL     1      20.796  17.119  41.085  1.00  0.00    -0.270 OA
HETATM    7  O   UNL     1      18.381  22.177  45.413  1.00  0.00    -0.263 OA
HETATM    8  O   UNL     1      21.165  22.219  46.813  1.00  0.00    -0.270 OA
HETATM    9  O   UNL     1      23.556  19.668  44.092  1.00  0.00    -0.263 OA
HETATM   10  N   UNL     1      16.782  19.202  44.198  1.00  0.00    -0.340 N 
HETATM   11  N   UNL     1      21.272  15.449  42.625  1.00  0.00    -0.340 N 
HETATM   12  N   UNL     1      21.795  21.754  44.631  1.00  0.00    -0.340 N 
HETATM   13  C   UNL     1      17.104  20.639  44.027  1.00  0.00     0.190 C 
HETATM   14  C   UNL     1      19.934  14.853  42.443  1.00  0.00     0.190 C 
HETATM   15  C   UNL     1      16.944  16.799  43.471  1.00  0.00     0.227 C 
HETATM   16  C   UNL     1      21.632  20.994  43.374  1.00  0.00     0.190 C 
HETATM   17  C   UNL     1      22.648  17.535  42.534  1.00  0.00     0.227 C 
HETATM   18  C   UNL     1      20.302  20.165  45.910  1.00  0.00     0.227 C 
HETATM   19  C   UNL     1      17.352  18.269  43.319  1.00  0.00     0.250 C 
HETATM   20  C   UNL     1      19.021  15.611  43.397  1.00  0.00     0.283 C 
HETATM   21  C   UNL     1      21.510  16.679  41.994  1.00  0.00     0.250 C 
HETATM   22  C   UNL     1      18.246  21.048  44.957  1.00  0.00     0.283 C 
HETATM   23  C   UNL     1      21.108  21.480  45.825  1.00  0.00     0.250 C 
HETATM   24  C   UNL     1      22.554  19.785  43.402  1.00  0.00     0.283 C 
HETATM   25  C   UNL     1      15.933  18.855  45.342  1.00  0.00     0.153 C 
HETATM   26  C   UNL     1      22.212  14.815  43.553  1.00  0.00     0.153 C 
HETATM   27  C   UNL     1      22.738  22.872  44.628  1.00  0.00     0.153 C 
ENDROOT
BRANCH  15  28
HETATM   28  C   UNL     1      15.573  16.569  42.850  1.00  0.00     0.016 C 
HETATM   29  C   UNL     1      15.705  15.883  41.491  1.00  0.00     0.012 C 
HETATM   30  C   UNL     1      14.690  15.741  43.783  1.00  0.00     0.012 C 
ENDBRANCH  15  28
BRANCH  14  31
HETATM   31  C   UNL     1      19.816  13.356  42.698  1.00  0.00     0.014 C 
HETATM   32  C   UNL     1      18.358  12.995  42.990  1.00  0.00     0.012 C 
BRANCH  31  33
HETATM   33  C   UNL     1      20.334  12.519  41.515  1.00  0.00     0.002 C 
HETATM   34  C   UNL     1      20.065  13.151  40.157  1.00  0.00     0.005 C 
ENDBRANCH  31  33
ENDBRANCH  14  31
BRANCH  13  35
HETATM   35  C   UNL     1      15.892  21.556  44.191  1.00  0.00     0.014 C 
HETATM   36  C   UNL     1      16.347  23.017  44.214  1.00  0.00     0.012 C 
BRANCH  35  37
HETATM   37  C   UNL     1      14.848  21.353  43.078  1.00  0.00     0.002 C 
HETATM   38  C   UNL     1      13.430  21.709  43.502  1.00  0.00     0.005 C 
ENDBRANCH  35  37
ENDBRANCH  13  35
BRANCH  17  39
HETATM   39  C   UNL     1      23.844  17.491  41.600  1.00  0.00     0.016 C 
HETATM   40  C   UNL     1      23.650  16.418  40.531  1.00  0.00     0.012 C 
HETATM   41  C   UNL     1      25.129  17.240  42.385  1.00  0.00     0.012 C 
ENDBRANCH  17  39
BRANCH  18  42
HETATM   42  C   UNL     1      19.886  19.855  47.348  1.00  0.00     0.016 C 
HETATM   43  C   UNL     1      18.845  18.736  47.382  1.00  0.00     0.012 C 
HETATM   44  C   UNL     1      21.102  19.479  48.193  1.00  0.00     0.012 C 
ENDBRANCH  18  42
BRANCH  16  45
HETATM   45  C   UNL     1      21.863  21.798  42.097  1.00  0.00     0.010 C 
HETATM   46  C   UNL     1      20.624  21.764  41.204  1.00  0.00     0.012 C 
HETATM   47  C   UNL     1      23.082  21.273  41.339  1.00  0.00     0.012 C 
ENDBRANCH  16  45
TORSDOF 8
ENDMDL
MODEL 6
REMARK VINA RESULT:    -5.184      2.011      7.484
REMARK INTER + INTRA:          -7.113
REMARK INTER:                  -8.169
REMARK INTRA:                   1.056
REMARK UNBOUND:                 0.495
REMARK  8 active torsions:
REMARK  status: ('A' for Active; 'I' for Inactive)
REMARK    1  A    between atoms: C_13  and  C_15 
REMARK    2  A    between atoms: C_14  and  C_16 
REMARK    3  A    between atoms: C_15  and  C_22 
REMARK    4  A    between atoms: C_16  and  C_23 
REMARK    5  A    between atoms: C_17  and  C_21 
REMARK    6  A    between atoms: C_18  and  C_24 
REMARK    7  A    between atoms: C_19  and  C_27 
REMARK    8  A    between atoms: C_20  and  C_30 
ROOT
HETATM    1  O   UNL     1      14.489   7.790  35.521  1.00  0.00    -0.304 OA
HETATM    2  O   UNL     1      18.564   8.436  38.057  1.00  0.00    -0.304 OA
HETATM    3  O   UNL     1      16.482   5.240  39.432  1.00  0.00    -0.304 OA
HETATM    4  O   UNL     1      16.914   6.821  35.868  1.00  0.00    -0.270 OA
HETATM    5  O   UNL     1      14.403   8.854  37.568  1.00  0.00    -0.263 OA
HETATM    6  O   UNL     1      14.794   4.873  37.500  1.00  0.00    -0.270 OA
HETATM    7  O   UNL     1      20.838   8.556  37.724  1.00  0.00    -0.263 OA
HETATM    8  O   UNL     1      20.601   8.634  40.831  1.00  0.00    -0.270 OA
HETATM    9  O   UNL     1      17.252   5.818  41.528  1.00  0.00    -0.263 OA
HETATM   10  N   UNL     1      18.046   8.809  35.484  1.00  0.00    -0.340 N 
HETATM   11  N   UNL     1      13.337   6.410  38.448  1.00  0.00    -0.340 N 
HETATM   12  N   UNL     1      19.682   6.552  40.388  1.00  0.00    -0.340 N 
HETATM   13  C   UNL     1      19.354   8.203  35.829  1.00  0.00     0.190 C 
HETATM   14  C   UNL     1      12.972   6.935  37.118  1.00  0.00     0.190 C 
HETATM   15  C   UNL     1      15.568   8.639  35.084  1.00  0.00     0.227 C 
HETATM   16  C   UNL     1      18.771   5.679  39.618  1.00  0.00     0.190 C 
HETATM   17  C   UNL     1      15.096   5.294  39.831  1.00  0.00     0.227 C 
HETATM   18  C   UNL     1      18.618   8.653  39.470  1.00  0.00     0.227 C 
HETATM   19  C   UNL     1      16.896   8.007  35.518  1.00  0.00     0.250 C 
HETATM   20  C   UNL     1      14.027   7.984  36.794  1.00  0.00     0.283 C 
HETATM   21  C   UNL     1      14.385   5.479  38.497  1.00  0.00     0.250 C 
HETATM   22  C   UNL     1      19.694   8.461  37.297  1.00  0.00     0.283 C 
HETATM   23  C   UNL     1      19.734   7.951  40.276  1.00  0.00     0.250 C 
HETATM   24  C   UNL     1      17.436   5.595  40.341  1.00  0.00     0.283 C 
HETATM   25  C   UNL     1      18.048  10.247  35.198  1.00  0.00     0.153 C 
HETATM   26  C   UNL     1      12.701   6.984  39.637  1.00  0.00     0.153 C 
HETATM   27  C   UNL     1      20.596   5.910  41.333  1.00  0.00     0.153 C 
ENDROOT
BRANCH  15  28
HETATM   28  C   UNL     1      15.492   8.708  33.564  1.00  0.00     0.016 C 
HETATM   29  C   UNL     1      14.684   7.535  33.011  1.00  0.00     0.012 C 
HETATM   30  C   UNL     1      14.885  10.036  33.114  1.00  0.00     0.012 C 
ENDBRANCH  15  28
BRANCH  14  31
HETATM   31  C   UNL     1      11.582   7.544  36.985  1.00  0.00     0.014 C 
HETATM   32  C   UNL     1      11.700   9.017  36.585  1.00  0.00     0.012 C 
BRANCH  31  33
HETATM   33  C   UNL     1      10.710   6.794  35.964  1.00  0.00     0.002 C 
HETATM   34  C   UNL     1      11.514   6.039  34.914  1.00  0.00     0.005 C 
ENDBRANCH  31  33
ENDBRANCH  14  31
BRANCH  13  35
HETATM   35  C   UNL     1      20.489   8.642  34.906  1.00  0.00     0.014 C 
HETATM   36  C   UNL     1      20.250   8.098  33.495  1.00  0.00     0.012 C 
BRANCH  35  37
HETATM   37  C   UNL     1      20.645  10.172  34.854  1.00  0.00     0.002 C 
HETATM   38  C   UNL     1      21.671  10.645  33.834  1.00  0.00     0.005 C 
ENDBRANCH  35  37
ENDBRANCH  13  35
BRANCH  17  39
HETATM   39  C   UNL     1      14.685   3.987  40.483  1.00  0.00     0.016 C 
HETATM   40  C   UNL     1      15.293   2.801  39.737  1.00  0.00     0.012 C 
HETATM   41  C   UNL     1      13.163   3.866  40.533  1.00  0.00     0.012 C 
ENDBRANCH  17  39
BRANCH  18  42
HETATM   42  C   UNL     1      18.626  10.164  39.704  1.00  0.00     0.016 C 
HETATM   43  C   UNL     1      17.780  10.879  38.651  1.00  0.00     0.012 C 
HETATM   44  C   UNL     1      18.124  10.495  41.108  1.00  0.00     0.012 C 
ENDBRANCH  18  42
BRANCH  16  45
HETATM   45  C   UNL     1      19.303   4.276  39.337  1.00  0.00     0.010 C 
HETATM   46  C   UNL     1      18.926   3.827  37.925  1.00  0.00     0.012 C 
HETATM   47  C   UNL     1      18.778   3.281  40.371  1.00  0.00     0.012 C 
ENDBRANCH  16  45
TORSDOF 8
ENDMDL
MODEL 7
REMARK VINA RESULT:    -4.990      2.641      6.009
REMARK INTER + INTRA:          -6.829
REMARK INTER:                  -7.126
REMARK INTRA:                   0.298
REMARK UNBOUND:                 0.495
REMARK  8 active torsions:
REMARK  status: ('A' for Active; 'I' for Inactive)
REMARK    1  A    between atoms: C_13  and  C_15 
REMARK    2  A    between atoms: C_14  and  C_16 
REMARK    3  A    between atoms: C_15  and  C_22 
REMARK    4  A    between atoms: C_16  and  C_23 
REMARK    5  A    between atoms: C_17  and  C_21 
REMARK    6  A    between atoms: C_18  and  C_24 
REMARK    7  A    between atoms: C_19  and  C_27 
REMARK    8  A    between atoms: C_20  and  C_30 
ROOT
HETATM    1  O   UNL     1      16.549   5.158  39.410  1.00  0.00    -0.304 OA
HETATM    2  O   UNL     1      14.313   7.391  35.740  1.00  0.00    -0.304 OA
HETATM    3  O   UNL     1      12.564   8.299  39.283  1.00  0.00    -0.304 OA
HETATM    4  O   UNL     1      16.264   7.506  38.251  1.00  0.00    -0.270 OA
HETATM    5  O   UNL     1      14.595   4.274  38.556  1.00  0.00    -0.263 OA
HETATM    6  O   UNL     1      14.358   7.466  40.957  1.00  0.00    -0.270 OA
HETATM    7  O   UNL     1      14.784   8.852  34.025  1.00  0.00    -0.263 OA
HETATM    8  O   UNL     1      11.686   8.566  33.842  1.00  0.00    -0.270 OA
HETATM    9  O   UNL     1      10.569   8.351  38.124  1.00  0.00    -0.263 OA
HETATM   10  N   UNL     1      16.874   6.822  36.120  1.00  0.00    -0.340 N 
HETATM   11  N   UNL     1      13.458   5.328  40.896  1.00  0.00    -0.340 N 
HETATM   12  N   UNL     1      11.903   9.483  35.961  1.00  0.00    -0.340 N 
HETATM   13  C   UNL     1      16.556   8.146  35.536  1.00  0.00     0.190 C 
HETATM   14  C   UNL     1      14.803   4.723  40.941  1.00  0.00     0.190 C 
HETATM   15  C   UNL     1      17.117   5.275  38.090  1.00  0.00     0.227 C 
HETATM   16  C   UNL     1      12.546   9.523  37.291  1.00  0.00     0.190 C 
HETATM   17  C   UNL     1      12.091   7.310  40.223  1.00  0.00     0.227 C 
HETATM   18  C   UNL     1      12.928   7.238  35.416  1.00  0.00     0.227 C 
HETATM   19  C   UNL     1      16.708   6.630  37.500  1.00  0.00     0.250 C 
HETATM   20  C   UNL     1      15.273   4.675  39.493  1.00  0.00     0.283 C 
HETATM   21  C   UNL     1      13.393   6.721  40.751  1.00  0.00     0.250 C 
HETATM   22  C   UNL     1      15.136   8.155  34.969  1.00  0.00     0.283 C 
HETATM   23  C   UNL     1      12.133   8.493  34.992  1.00  0.00     0.250 C 
HETATM   24  C   UNL     1      11.743   8.665  38.255  1.00  0.00     0.283 C 
HETATM   25  C   UNL     1      17.277   5.772  35.178  1.00  0.00     0.153 C 
HETATM   26  C   UNL     1      12.286   4.450  40.860  1.00  0.00     0.153 C 
HETATM   27  C   UNL     1      10.963  10.554  35.631  1.00  0.00     0.153 C 
ENDROOT
BRANCH  15  28
HETATM   28  C   UNL     1      18.630   5.206  38.248  1.00  0.00     0.016 C 
HETATM   29  C   UNL     1      19.107   6.193  39.311  1.00  0.00     0.012 C 
HETATM   30  C   UNL     1      19.071   3.786  38.599  1.00  0.00     0.012 C 
ENDBRANCH  15  28
BRANCH  14  31
HETATM   31  C   UNL     1      14.906   3.337  41.562  1.00  0.00     0.014 C 
HETATM   32  C   UNL     1      16.140   2.616  41.015  1.00  0.00     0.012 C 
BRANCH  31  33
HETATM   33  C   UNL     1      14.969   3.387  43.099  1.00  0.00     0.002 C 
HETATM   34  C   UNL     1      16.385   3.320  43.653  1.00  0.00     0.005 C 
ENDBRANCH  31  33
ENDBRANCH  14  31
BRANCH  13  35
HETATM   35  C   UNL     1      17.576   8.613  34.498  1.00  0.00     0.014 C 
HETATM   36  C   UNL     1      17.556  10.141  34.403  1.00  0.00     0.012 C 
BRANCH  35  37
HETATM   37  C   UNL     1      19.002   8.130  34.819  1.00  0.00     0.002 C 
HETATM   38  C   UNL     1      19.661   8.891  35.960  1.00  0.00     0.005 C 
ENDBRANCH  35  37
ENDBRANCH  13  35
BRANCH  17  39
HETATM   39  C   UNL     1      11.311   7.979  41.341  1.00  0.00     0.016 C 
HETATM   40  C   UNL     1      11.995   7.746  42.686  1.00  0.00     0.012 C 
HETATM   41  C   UNL     1       9.873   7.466  41.374  1.00  0.00     0.012 C 
ENDBRANCH  17  39
BRANCH  18  42
HETATM   42  C   UNL     1      12.820   6.128  34.370  1.00  0.00     0.016 C 
HETATM   43  C   UNL     1      13.869   5.045  34.620  1.00  0.00     0.012 C 
HETATM   44  C   UNL     1      11.417   5.523  34.368  1.00  0.00     0.012 C 
ENDBRANCH  18  42
BRANCH  16  45
HETATM   45  C   UNL     1      12.741  10.922  37.874  1.00  0.00     0.010 C 
HETATM   46  C   UNL     1      14.210  11.164  38.217  1.00  0.00     0.012 C 
HETATM   47  C   UNL     1      11.864  11.120  39.109  1.00  0.00     0.012 C 
ENDBRANCH  16  45
TORSDOF 8
ENDMDL
MODEL 8
REMARK VINA RESULT:    -4.782      1.622      6.423
REMARK INTER + INTRA:          -6.523
REMARK INTER:                  -7.122
REMARK INTRA:                   0.599
REMARK UNBOUND:                 0.495
REMARK  8 active torsions:
REMARK  status: ('A' for Active; 'I' for Inactive)
REMARK    1  A    between atoms: C_13  and  C_15 
REMARK    2  A    between atoms: C_14  and  C_16 
REMARK    3  A    between atoms: C_15  and  C_22 
REMARK    4  A    between atoms: C_16  and  C_23 
REMARK    5  A    between atoms: C_17  and  C_21 
REMARK    6  A    between atoms: C_18  and  C_24 
REMARK    7  A    between atoms: C_19  and  C_27 
REMARK    8  A    between atoms: C_20  and  C_30 
ROOT
HETATM    1  O   UNL     1      17.634   6.348  39.860  1.00  0.00    -0.304 OA
HETATM    2  O   UNL     1      17.941   9.778  36.455  1.00  0.00    -0.304 OA
HETATM    3  O   UNL     1      14.085   9.129  37.528  1.00  0.00    -0.304 OA
HETATM    4  O   UNL     1      17.476   8.952  39.491  1.00  0.00    -0.270 OA
HETATM    5  O   UNL     1      17.217   5.808  37.655  1.00  0.00    -0.263 OA
HETATM    6  O   UNL     1      14.394   7.763  39.708  1.00  0.00    -0.270 OA
HETATM    7  O   UNL     1      18.945  11.819  36.104  1.00  0.00    -0.263 OA
HETATM    8  O   UNL     1      17.125  11.517  33.591  1.00  0.00    -0.270 OA
HETATM    9  O   UNL     1      13.546   9.567  35.328  1.00  0.00    -0.263 OA
HETATM   10  N   UNL     1      19.549   9.198  38.481  1.00  0.00    -0.340 N 
HETATM   11  N   UNL     1      14.535   5.796  38.485  1.00  0.00    -0.340 N 
HETATM   12  N   UNL     1      15.530  11.517  35.273  1.00  0.00    -0.340 N 
HETATM   13  C   UNL     1      19.309  10.633  38.197  1.00  0.00     0.190 C 
HETATM   14  C   UNL     1      15.585   5.274  39.382  1.00  0.00     0.190 C 
HETATM   15  C   UNL     1      18.867   7.004  39.504  1.00  0.00     0.227 C 
HETATM   16  C   UNL     1      15.033  11.046  36.583  1.00  0.00     0.190 C 
HETATM   17  C   UNL     1      13.454   7.830  37.514  1.00  0.00     0.227 C 
HETATM   18  C   UNL     1      17.300   9.717  35.177  1.00  0.00     0.227 C 
HETATM   19  C   UNL     1      18.562   8.466  39.157  1.00  0.00     0.250 C 
HETATM   20  C   UNL     1      16.894   5.825  38.835  1.00  0.00     0.283 C 
HETATM   21  C   UNL     1      14.141   7.128  38.678  1.00  0.00     0.250 C 
HETATM   22  C   UNL     1      18.759  10.816  36.782  1.00  0.00     0.283 C 
HETATM   23  C   UNL     1      16.660  11.006  34.616  1.00  0.00     0.250 C 
HETATM   24  C   UNL     1      14.127   9.845  36.366  1.00  0.00     0.283 C 
HETATM   25  C   UNL     1      20.795   8.628  37.956  1.00  0.00     0.153 C 
HETATM   26  C   UNL     1      14.074   4.963  37.372  1.00  0.00     0.153 C 
HETATM   27  C   UNL     1      14.789  12.596  34.617  1.00  0.00     0.153 C 
ENDROOT
BRANCH  15  28
HETATM   28  C   UNL     1      19.777   6.933  40.724  1.00  0.00     0.016 C 
HETATM   29  C   UNL     1      19.013   7.320  41.989  1.00  0.00     0.012 C 
HETATM   30  C   UNL     1      20.378   5.536  40.869  1.00  0.00     0.012 C 
ENDBRANCH  15  28
BRANCH  14  31
HETATM   31  C   UNL     1      15.678   3.759  39.511  1.00  0.00     0.014 C 
HETATM   32  C   UNL     1      17.104   3.360  39.898  1.00  0.00     0.012 C 
BRANCH  31  33
HETATM   33  C   UNL     1      14.681   3.198  40.540  1.00  0.00     0.002 C 
HETATM   34  C   UNL     1      13.682   2.213  39.946  1.00  0.00     0.005 C 
ENDBRANCH  31  33
ENDBRANCH  14  31
BRANCH  13  35
HETATM   35  C   UNL     1      20.535  11.513  38.439  1.00  0.00     0.014 C 
HETATM   36  C   UNL     1      21.169  11.899  37.100  1.00  0.00     0.012 C 
BRANCH  35  37
HETATM   37  C   UNL     1      20.196  12.783  39.240  1.00  0.00     0.002 C 
HETATM   38  C   UNL     1      18.963  12.638  40.119  1.00  0.00     0.005 C 
ENDBRANCH  35  37
ENDBRANCH  13  35
BRANCH  17  39
HETATM   39  C   UNL     1      11.964   7.968  37.772  1.00  0.00     0.016 C 
HETATM   40  C   UNL     1      11.577   7.259  39.068  1.00  0.00     0.012 C 
HETATM   41  C   UNL     1      11.163   7.412  36.597  1.00  0.00     0.012 C 
ENDBRANCH  17  39
BRANCH  18  42
HETATM   42  C   UNL     1      18.300   9.114  34.189  1.00  0.00     0.016 C 
HETATM   43  C   UNL     1      19.187   8.078  34.881  1.00  0.00     0.012 C 
HETATM   44  C   UNL     1      17.574   8.487  33.000  1.00  0.00     0.012 C 
ENDBRANCH  18  42
BRANCH  16  45
HETATM   45  C   UNL     1      14.312  12.101  37.420  1.00  0.00     0.010 C 
HETATM   46  C   UNL     1      14.840  12.107  38.854  1.00  0.00     0.012 C 
HETATM   47  C   UNL     1      12.803  11.863  37.408  1.00  0.00     0.012 C 
ENDBRANCH  16  45
TORSDOF 8
ENDMDL
MODEL 9
REMARK VINA RESULT:    -4.707      2.528      6.887
REMARK INTER + INTRA:          -6.413
REMARK INTER:                  -7.045
REMARK INTRA:                   0.632
REMARK UNBOUND:                 0.495
REMARK  8 active torsions:
REMARK  status: ('A' for Active; 'I' for Inactive)
REMARK    1  A    between atoms: C_13  and  C_15 
REMARK    2  A    between atoms: C_14  and  C_16 
REMARK    3  A    between atoms: C_15  and  C_22 
REMARK    4  A    between atoms: C_16  and  C_23 
REMARK    5  A    between atoms: C_17  and  C_21 
REMARK    6  A    between atoms: C_18  and  C_24 
REMARK    7  A    between atoms: C_19  and  C_27 
REMARK    8  A    between atoms: C_20  and  C_30 
ROOT
HETATM    1  O   UNL     1      18.219   8.189  36.913  1.00  0.00    -0.304 OA
HETATM    2  O   UNL     1      18.768   6.809  41.521  1.00  0.00    -0.304 OA
HETATM    3  O   UNL     1      17.980  10.778  41.272  1.00  0.00    -0.304 OA
HETATM    4  O   UNL     1      16.874   7.690  39.122  1.00  0.00    -0.270 OA
HETATM    5  O   UNL     1      20.232   8.553  37.981  1.00  0.00    -0.263 OA
HETATM    6  O   UNL     1      17.160  10.974  38.822  1.00  0.00    -0.270 OA
HETATM    7  O   UNL     1      17.866   5.320  43.028  1.00  0.00    -0.263 OA
HETATM    8  O   UNL     1      19.842   6.961  44.794  1.00  0.00    -0.270 OA
HETATM    9  O   UNL     1      19.371  11.026  43.096  1.00  0.00    -0.263 OA
HETATM   10  N   UNL     1      17.699   5.546  39.450  1.00  0.00    -0.340 N 
HETATM   11  N   UNL     1      19.346  11.215  38.083  1.00  0.00    -0.340 N 
HETATM   12  N   UNL     1      18.385   8.634  44.121  1.00  0.00    -0.340 N 
HETATM   13  C   UNL     1      17.007   5.413  40.754  1.00  0.00     0.190 C 
HETATM   14  C   UNL     1      19.069  10.394  36.889  1.00  0.00     0.190 C 
HETATM   15  C   UNL     1      18.202   6.811  37.334  1.00  0.00     0.227 C 
HETATM   16  C   UNL     1      17.612   9.328  43.069  1.00  0.00     0.190 C 
HETATM   17  C   UNL     1      18.739  11.699  40.460  1.00  0.00     0.227 C 
HETATM   18  C   UNL     1      19.741   7.345  42.422  1.00  0.00     0.227 C 
HETATM   19  C   UNL     1      17.536   6.729  38.713  1.00  0.00     0.250 C 
HETATM   20  C   UNL     1      19.273   8.952  37.334  1.00  0.00     0.283 C 
HETATM   21  C   UNL     1      18.332  11.292  39.049  1.00  0.00     0.250 C 
HETATM   22  C   UNL     1      17.943   5.793  41.901  1.00  0.00     0.283 C 
HETATM   23  C   UNL     1      19.318   7.612  43.884  1.00  0.00     0.250 C 
HETATM   24  C   UNL     1      18.443  10.477  42.520  1.00  0.00     0.283 C 
HETATM   25  C   UNL     1      18.576   4.438  39.059  1.00  0.00     0.153 C 
HETATM   26  C   UNL     1      20.687  11.776  38.263  1.00  0.00     0.153 C 
HETATM   27  C   UNL     1      18.158   9.042  45.508  1.00  0.00     0.153 C 
ENDROOT
BRANCH  15  28
HETATM   28  C   UNL     1      17.380   6.042  36.308  1.00  0.00     0.016 C 
HETATM   29  C   UNL     1      15.894   6.362  36.457  1.00  0.00     0.012 C 
HETATM   30  C   UNL     1      17.856   6.356  34.891  1.00  0.00     0.012 C 
ENDBRANCH  15  28
BRANCH  14  31
HETATM   31  C   UNL     1      19.918  10.676  35.656  1.00  0.00     0.014 C 
HETATM   32  C   UNL     1      20.218   9.366  34.924  1.00  0.00     0.012 C 
BRANCH  31  33
HETATM   33  C   UNL     1      19.240  11.669  34.695  1.00  0.00     0.002 C 
HETATM   34  C   UNL     1      17.727  11.734  34.854  1.00  0.00     0.005 C 
ENDBRANCH  31  33
ENDBRANCH  14  31
BRANCH  13  35
HETATM   35  C   UNL     1      16.385   4.034  40.972  1.00  0.00     0.014 C 
HETATM   36  C   UNL     1      15.357   4.102  42.105  1.00  0.00     0.012 C 
BRANCH  35  37
HETATM   37  C   UNL     1      15.719   3.482  39.699  1.00  0.00     0.002 C 
HETATM   38  C   UNL     1      14.431   4.201  39.324  1.00  0.00     0.005 C 
ENDBRANCH  35  37
ENDBRANCH  13  35
BRANCH  17  39
HETATM   39  C   UNL     1      18.315  13.128  40.750  1.00  0.00     0.016 C 
HETATM   40  C   UNL     1      19.353  13.828  41.624  1.00  0.00     0.012 C 
HETATM   41  C   UNL     1      16.943  13.155  41.420  1.00  0.00     0.012 C 
ENDBRANCH  17  39
BRANCH  18  42
HETATM   42  C   UNL     1      20.977   6.446  42.354  1.00  0.00     0.016 C 
HETATM   43  C   UNL     1      20.991   5.646  41.051  1.00  0.00     0.012 C 
HETATM   44  C   UNL     1      22.254   7.273  42.487  1.00  0.00     0.012 C 
ENDBRANCH  18  42
BRANCH  16  45
HETATM   45  C   UNL     1      16.239   9.837  43.504  1.00  0.00     0.010 C 
HETATM   46  C   UNL     1      15.246   9.771  42.344  1.00  0.00     0.012 C 
HETATM   47  C   UNL     1      16.336  11.264  44.043  1.00  0.00     0.012 C 
ENDBRANCH  16  45
TORSDOF 8
ENDMDL
MODEL 10
REMARK VINA RESULT:    -4.663      2.390      7.876
REMARK INTER + INTRA:          -6.348
REMARK INTER:                  -6.850
REMARK INTRA:                   0.501
REMARK UNBOUND:                 0.495
REMARK  8 active torsions:
REMARK  status: ('A' for Active; 'I' for Inactive)
REMARK    1  A    between atoms: C_13  and  C_15 
REMARK    2  A    between atoms: C_14  and  C_16 
REMARK    3  A    between atoms: C_15  and  C_22 
REMARK    4  A    between atoms: C_16  and  C_23 
REMARK    5  A    between atoms: C_17  and  C_21 
REMARK    6  A    between atoms: C_18  and  C_24 
REMARK    7  A    between atoms: C_19  and  C_27 
REMARK    8  A    between atoms: C_20  and  C_30 
ROOT
HETATM    1  O   UNL     1      16.776   9.172  37.460  1.00  0.00    -0.304 OA
HETATM    2  O   UNL     1      17.927   9.671  42.137  1.00  0.00    -0.304 OA
HETATM    3  O   UNL     1      19.122   6.066  40.719  1.00  0.00    -0.304 OA
HETATM    4  O   UNL     1      18.806   9.615  39.081  1.00  0.00    -0.270 OA
HETATM    5  O   UNL     1      15.438   8.206  39.074  1.00  0.00    -0.263 OA
HETATM    6  O   UNL     1      18.909   6.437  38.163  1.00  0.00    -0.270 OA
HETATM    7  O   UNL     1      19.128  11.075  43.510  1.00  0.00    -0.263 OA
HETATM    8  O   UNL     1      18.292   8.783  45.449  1.00  0.00    -0.270 OA
HETATM    9  O   UNL     1      18.632   5.236  42.815  1.00  0.00    -0.263 OA
HETATM   10  N   UNL     1      17.877  11.443  40.166  1.00  0.00    -0.340 N 
HETATM   11  N   UNL     1      16.671   5.827  38.236  1.00  0.00    -0.340 N 
HETATM   12  N   UNL     1      19.584   7.602  43.928  1.00  0.00    -0.340 N 
HETATM   13  C   UNL     1      19.006  11.527  41.122  1.00  0.00     0.190 C 
HETATM   14  C   UNL     1      16.322   6.863  37.244  1.00  0.00     0.190 C 
HETATM   15  C   UNL     1      16.759  10.437  38.150  1.00  0.00     0.227 C 
HETATM   16  C   UNL     1      19.963   7.269  42.539  1.00  0.00     0.190 C 
HETATM   17  C   UNL     1      18.245   5.134  40.051  1.00  0.00     0.227 C 
HETATM   18  C   UNL     1      17.487   8.799  43.183  1.00  0.00     0.227 C 
HETATM   19  C   UNL     1      17.902  10.454  39.171  1.00  0.00     0.250 C 
HETATM   20  C   UNL     1      16.105   8.137  38.050  1.00  0.00     0.283 C 
HETATM   21  C   UNL     1      17.987   5.833  38.722  1.00  0.00     0.250 C 
HETATM   22  C   UNL     1      18.675  10.776  42.412  1.00  0.00     0.283 C 
HETATM   23  C   UNL     1      18.495   8.413  44.287  1.00  0.00     0.250 C 
HETATM   24  C   UNL     1      19.159   6.061  42.083  1.00  0.00     0.283 C 
HETATM   25  C   UNL     1      16.765  12.374  40.386  1.00  0.00     0.153 C 
HETATM   26  C   UNL     1      15.613   4.960  38.759  1.00  0.00     0.153 C 
HETATM   27  C   UNL     1      20.406   7.049  45.005  1.00  0.00     0.153 C 
ENDROOT
BRANCH  15  28
HETATM   28  C   UNL     1      16.977  11.519  37.100  1.00  0.00     0.016 C 
HETATM   29  C   UNL     1      18.279  11.278  36.339  1.00  0.00     0.012 C 
HETATM   30  C   UNL     1      15.796  11.579  36.133  1.00  0.00     0.012 C 
ENDBRANCH  15  28
BRANCH  14  31
HETATM   31  C   UNL     1      15.101   6.589  36.376  1.00  0.00     0.014 C 
HETATM   32  C   UNL     1      14.311   7.884  36.172  1.00  0.00     0.012 C 
BRANCH  31  33
HETATM   33  C   UNL     1      15.479   5.988  35.010  1.00  0.00     0.002 C 
HETATM   34  C   UNL     1      14.306   5.344  34.283  1.00  0.00     0.005 C 
ENDBRANCH  31  33
ENDBRANCH  14  31
BRANCH  13  35
HETATM   35  C   UNL     1      19.454  12.960  41.408  1.00  0.00     0.014 C 
HETATM   36  C   UNL     1      20.622  12.951  42.398  1.00  0.00     0.012 C 
BRANCH  35  37
HETATM   37  C   UNL     1      19.862  13.714  40.130  1.00  0.00     0.002 C 
HETATM   38  C   UNL     1      20.844  12.945  39.257  1.00  0.00     0.005 C 
ENDBRANCH  35  37
ENDBRANCH  13  35
BRANCH  17  39
HETATM   39  C   UNL     1      18.954   3.810  39.833  1.00  0.00     0.016 C 
HETATM   40  C   UNL     1      19.165   3.553  38.343  1.00  0.00     0.012 C 
HETATM   41  C   UNL     1      18.164   2.667  40.468  1.00  0.00     0.012 C 
ENDBRANCH  17  39
BRANCH  18  42
HETATM   42  C   UNL     1      16.210   9.398  43.775  1.00  0.00     0.016 C 
HETATM   43  C   UNL     1      15.369  10.063  42.686  1.00  0.00     0.012 C 
HETATM   44  C   UNL     1      15.397   8.327  44.500  1.00  0.00     0.012 C 
ENDBRANCH  18  42
BRANCH  16  45
HETATM   45  C   UNL     1      21.453   7.020  42.316  1.00  0.00     0.010 C 
HETATM   46  C   UNL     1      22.042   8.072  41.376  1.00  0.00     0.012 C 
HETATM   47  C   UNL     1      21.691   5.616  41.762  1.00  0.00     0.012 C 
ENDBRANCH  16  45
TORSDOF 8
ENDMDL
MODEL 11
REMARK VINA RESULT:    -4.617     11.564     15.365
REMARK INTER + INTRA:          -6.281
REMARK INTER:                  -6.822
REMARK INTRA:                   0.541
REMARK UNBOUND:                 0.495
REMARK  8 active torsions:
REMARK  status: ('A' for Active; 'I' for Inactive)
REMARK    1  A    between atoms: C_13  and  C_15 
REMARK    2  A    between atoms: C_14  and  C_16 
REMARK    3  A    between atoms: C_15  and  C_22 
REMARK    4  A    between atoms: C_16  and  C_23 
REMARK    5  A    between atoms: C_17  and  C_21 
REMARK    6  A    between atoms: C_18  and  C_24 
REMARK    7  A    between atoms: C_19  and  C_27 
REMARK    8  A    between atoms: C_20  and  C_30 
ROOT
HETATM    1  O   UNL     1      20.374  21.199  47.285  1.00  0.00    -0.304 OA
HETATM    2  O   UNL     1      18.153  18.568  43.881  1.00  0.00    -0.304 OA
HETATM    3  O   UNL     1      15.461  20.360  46.327  1.00  0.00    -0.304 OA
HETATM    4  O   UNL     1      19.015  21.403  45.038  1.00  0.00    -0.270 OA
HETATM    5  O   UNL     1      19.592  19.090  47.803  1.00  0.00    -0.263 OA
HETATM    6  O   UNL     1      16.960  22.092  47.539  1.00  0.00    -0.270 OA
HETATM    7  O   UNL     1      18.031  18.405  41.588  1.00  0.00    -0.263 OA
HETATM    8  O   UNL     1      15.859  16.378  42.528  1.00  0.00    -0.270 OA
HETATM    9  O   UNL     1      14.157  18.478  46.039  1.00  0.00    -0.263 OA
HETATM   10  N   UNL     1      20.377  20.006  43.782  1.00  0.00    -0.340 N 
HETATM   11  N   UNL     1      17.556  20.504  49.122  1.00  0.00    -0.340 N 
HETATM   12  N   UNL     1      14.999  18.351  43.389  1.00  0.00    -0.340 N 
HETATM   13  C   UNL     1      19.474  20.077  42.610  1.00  0.00     0.190 C 
HETATM   14  C   UNL     1      18.943  21.009  49.156  1.00  0.00     0.190 C 
HETATM   15  C   UNL     1      21.040  20.703  46.107  1.00  0.00     0.227 C 
HETATM   16  C   UNL     1      15.168  19.620  44.128  1.00  0.00     0.190 C 
HETATM   17  C   UNL     1      15.474  20.236  47.765  1.00  0.00     0.227 C 
HETATM   18  C   UNL     1      17.251  17.488  44.144  1.00  0.00     0.227 C 
HETATM   19  C   UNL     1      20.051  20.735  44.936  1.00  0.00     0.250 C 
HETATM   20  C   UNL     1      19.661  20.292  48.020  1.00  0.00     0.283 C 
HETATM   21  C   UNL     1      16.708  21.044  48.145  1.00  0.00     0.250 C 
HETATM   22  C   UNL     1      18.504  18.895  42.606  1.00  0.00     0.283 C 
HETATM   23  C   UNL     1      15.986  17.360  43.267  1.00  0.00     0.250 C 
HETATM   24  C   UNL     1      14.844  19.387  45.595  1.00  0.00     0.283 C 
HETATM   25  C   UNL     1      21.527  19.103  43.668  1.00  0.00     0.153 C 
HETATM   26  C   UNL     1      17.187  19.386  49.994  1.00  0.00     0.153 C 
HETATM   27  C   UNL     1      13.710  18.114  42.738  1.00  0.00     0.153 C 
ENDROOT
BRANCH  15  28
HETATM   28  C   UNL     1      22.210  21.638  45.830  1.00  0.00     0.016 C 
HETATM   29  C   UNL     1      21.987  22.993  46.499  1.00  0.00     0.012 C 
HETATM   30  C   UNL     1      23.522  21.016  46.306  1.00  0.00     0.012 C 
ENDBRANCH  15  28
BRANCH  14  31
HETATM   31  C   UNL     1      19.709  20.809  50.456  1.00  0.00     0.014 C 
HETATM   32  C   UNL     1      21.212  20.774  50.171  1.00  0.00     0.012 C 
BRANCH  31  33
HETATM   33  C   UNL     1      19.399  21.904  51.492  1.00  0.00     0.002 C 
HETATM   34  C   UNL     1      18.904  21.360  52.825  1.00  0.00     0.005 C 
ENDBRANCH  31  33
ENDBRANCH  14  31
BRANCH  13  35
HETATM   35  C   UNL     1      20.215  20.196  41.279  1.00  0.00     0.014 C 
HETATM   36  C   UNL     1      19.331  20.912  40.255  1.00  0.00     0.012 C 
BRANCH  35  37
HETATM   37  C   UNL     1      21.556  20.940  41.418  1.00  0.00     0.002 C 
HETATM   38  C   UNL     1      21.515  22.371  40.903  1.00  0.00     0.005 C 
ENDBRANCH  35  37
ENDBRANCH  13  35
BRANCH  17  39
HETATM   39  C   UNL     1      14.221  20.856  48.357  1.00  0.00     0.016 C 
HETATM   40  C   UNL     1      13.234  19.772  48.781  1.00  0.00     0.012 C 
HETATM   41  C   UNL     1      13.572  21.812  47.358  1.00  0.00     0.012 C 
ENDBRANCH  17  39
BRANCH  18  42
HETATM   42  C   UNL     1      18.067  16.195  44.141  1.00  0.00     0.016 C 
HETATM   43  C   UNL     1      19.466  16.437  44.708  1.00  0.00     0.012 C 
HETATM   44  C   UNL     1      17.351  15.102  44.932  1.00  0.00     0.012 C 
ENDBRANCH  18  42
BRANCH  16  45
HETATM   45  C   UNL     1      14.351  20.795  43.592  1.00  0.00     0.010 C 
HETATM   46  C   UNL     1      15.084  22.115  43.827  1.00  0.00     0.012 C 
HETATM   47  C   UNL     1      12.967  20.831  44.239  1.00  0.00     0.012 C 
ENDBRANCH  16  45
TORSDOF 8
ENDMDL
MODEL 12
REMARK VINA RESULT:    -4.570     14.426     19.545
REMARK INTER + INTRA:          -6.212
REMARK INTER:                  -6.632
REMARK INTRA:                   0.419
REMARK UNBOUND:                 0.495
REMARK  8 active torsions:
REMARK  status: ('A' for Active; 'I' for Inactive)
REMARK    1  A    between atoms: C_13  and  C_15 
REMARK    2  A    between atoms: C_14  and  C_16 
REMARK    3  A    between atoms: C_15  and  C_22 
REMARK    4  A    between atoms: C_16  and  C_23 
REMARK    5  A    between atoms: C_17  and  C_21 
REMARK    6  A    between atoms: C_18  and  C_24 
REMARK    7  A    between atoms: C_19  and  C_27 
REMARK    8  A    between atoms: C_20  and  C_30 
ROOT
HETATM    1  O   UNL     1       5.499  24.807  40.154  1.00  0.00    -0.304 OA
HETATM    2  O   UNL     1       6.646  20.182  39.292  1.00  0.00    -0.304 OA
HETATM    3  O   UNL     1       4.338  21.691  36.320  1.00  0.00    -0.304 OA
HETATM    4  O   UNL     1       7.047  23.276  38.671  1.00  0.00    -0.270 OA
HETATM    5  O   UNL     1       3.972  23.144  40.634  1.00  0.00    -0.263 OA
HETATM    6  O   UNL     1       4.477  24.230  36.817  1.00  0.00    -0.270 OA
HETATM    7  O   UNL     1       8.508  18.851  39.046  1.00  0.00    -0.263 OA
HETATM    8  O   UNL     1       6.181  16.900  38.343  1.00  0.00    -0.270 OA
HETATM    9  O   UNL     1       3.414  19.583  36.158  1.00  0.00    -0.263 OA
HETATM   10  N   UNL     1       8.040  22.130  40.427  1.00  0.00    -0.340 N 
HETATM   11  N   UNL     1       2.704  24.062  38.303  1.00  0.00    -0.340 N 
HETATM   12  N   UNL     1       5.920  18.490  36.676  1.00  0.00    -0.340 N 
HETATM   13  C   UNL     1       8.768  21.226  39.507  1.00  0.00     0.190 C 
HETATM   14  C   UNL     1       3.339  25.026  39.223  1.00  0.00     0.190 C 
HETATM   15  C   UNL     1       6.541  24.104  40.860  1.00  0.00     0.227 C 
HETATM   16  C   UNL     1       5.837  19.898  36.236  1.00  0.00     0.190 C 
HETATM   17  C   UNL     1       3.061  22.328  36.538  1.00  0.00     0.227 C 
HETATM   18  C   UNL     1       5.697  19.127  39.112  1.00  0.00     0.227 C 
HETATM   19  C   UNL     1       7.224  23.136  39.887  1.00  0.00     0.250 C 
HETATM   20  C   UNL     1       4.277  24.198  40.091  1.00  0.00     0.283 C 
HETATM   21  C   UNL     1       3.465  23.636  37.205  1.00  0.00     0.250 C 
HETATM   22  C   UNL     1       7.985  19.930  39.295  1.00  0.00     0.283 C 
HETATM   23  C   UNL     1       5.973  18.073  38.016  1.00  0.00     0.250 C 
HETATM   24  C   UNL     1       4.379  20.330  36.227  1.00  0.00     0.283 C 
HETATM   25  C   UNL     1       8.175  21.851  41.861  1.00  0.00     0.153 C 
HETATM   26  C   UNL     1       1.397  23.501  38.655  1.00  0.00     0.153 C 
HETATM   27  C   UNL     1       5.951  17.457  35.640  1.00  0.00     0.153 C 
ENDROOT
BRANCH  15  28
HETATM   28  C   UNL     1       7.537  25.151  41.342  1.00  0.00     0.016 C 
HETATM   29  C   UNL     1       7.401  26.439  40.531  1.00  0.00     0.012 C 
HETATM   30  C   UNL     1       7.343  25.435  42.831  1.00  0.00     0.012 C 
ENDBRANCH  15  28
BRANCH  14  31
HETATM   31  C   UNL     1       2.404  25.841  40.106  1.00  0.00     0.014 C 
HETATM   32  C   UNL     1       2.750  25.607  41.579  1.00  0.00     0.012 C 
BRANCH  31  33
HETATM   33  C   UNL     1       2.463  27.346  39.788  1.00  0.00     0.002 C 
HETATM   34  C   UNL     1       3.788  27.996  40.162  1.00  0.00     0.005 C 
ENDBRANCH  31  33
ENDBRANCH  14  31
BRANCH  13  35
HETATM   35  C   UNL     1      10.206  20.946  39.943  1.00  0.00     0.014 C 
HETATM   36  C   UNL     1      10.954  20.214  38.825  1.00  0.00     0.012 C 
BRANCH  35  37
HETATM   37  C   UNL     1      10.965  22.230  40.323  1.00  0.00     0.002 C 
HETATM   38  C   UNL     1      12.224  22.459  39.499  1.00  0.00     0.005 C 
ENDBRANCH  35  37
ENDBRANCH  13  35
BRANCH  17  39
HETATM   39  C   UNL     1       2.372  22.592  35.211  1.00  0.00     0.016 C 
HETATM   40  C   UNL     1       2.265  24.092  34.951  1.00  0.00     0.012 C 
HETATM   41  C   UNL     1       0.990  21.942  35.185  1.00  0.00     0.012 C 
ENDBRANCH  17  39
BRANCH  18  42
HETATM   42  C   UNL     1       5.472  18.471  40.475  1.00  0.00     0.016 C 
HETATM   43  C   UNL     1       5.524  19.513  41.591  1.00  0.00     0.012 C 
HETATM   44  C   UNL     1       4.141  17.724  40.502  1.00  0.00     0.012 C 
ENDBRANCH  18  42
BRANCH  16  45
HETATM   45  C   UNL     1       6.477  20.191  34.880  1.00  0.00     0.010 C 
HETATM   46  C   UNL     1       7.481  21.338  34.993  1.00  0.00     0.012 C 
HETATM   47  C   UNL     1       5.410  20.516  33.836  1.00  0.00     0.012 C 
ENDBRANCH  16  45
TORSDOF 8
ENDMDL
MODEL 13
REMARK VINA RESULT:    -4.185      2.528      7.176
REMARK INTER + INTRA:          -5.647
REMARK INTER:                  -6.396
REMARK INTRA:                   0.749
REMARK UNBOUND:                 0.495
REMARK  8 active torsions:
REMARK  status: ('A' for Active; 'I' for Inactive)
REMARK    1  A    between atoms: C_13  and  C_15 
REMARK    2  A    between atoms: C_14  and  C_16 
REMARK    3  A    between atoms: C_15  and  C_22 
REMARK    4  A    between atoms: C_16  and  C_23 
REMARK    5  A    between atoms: C_17  and  C_21 
REMARK    6  A    between atoms: C_18  and  C_24 
REMARK    7  A    between atoms: C_19  and  C_27 
REMARK    8  A    between atoms: C_20  and  C_30 
ROOT
HETATM    1  O   UNL     1      13.883  10.566  38.551  1.00  0.00    -0.304 OA
HETATM    2  O   UNL     1      16.976   6.910  37.831  1.00  0.00    -0.304 OA
HETATM    3  O   UNL     1      14.904   6.410  41.280  1.00  0.00    -0.304 OA
HETATM    4  O   UNL     1      14.001   8.036  37.827  1.00  0.00    -0.270 OA
HETATM    5  O   UNL     1      15.912  10.555  39.651  1.00  0.00    -0.263 OA
HETATM    6  O   UNL     1      13.006   8.149  40.982  1.00  0.00    -0.270 OA
HETATM    7  O   UNL     1      17.448   5.292  36.264  1.00  0.00    -0.263 OA
HETATM    8  O   UNL     1      19.356   4.541  38.611  1.00  0.00    -0.270 OA
HETATM    9  O   UNL     1      16.823   5.451  42.129  1.00  0.00    -0.263 OA
HETATM   10  N   UNL     1      15.537   8.326  36.113  1.00  0.00    -0.340 N 
HETATM   11  N   UNL     1      14.359   9.813  41.868  1.00  0.00    -0.340 N 
HETATM   12  N   UNL     1      17.296   4.293  39.644  1.00  0.00    -0.340 N 
HETATM   13  C   UNL     1      15.636   6.868  35.871  1.00  0.00     0.190 C 
HETATM   14  C   UNL     1      13.837  10.799  40.902  1.00  0.00     0.190 C 
HETATM   15  C   UNL     1      14.525  10.309  37.286  1.00  0.00     0.227 C 
HETATM   16  C   UNL     1      15.937   4.787  39.950  1.00  0.00     0.190 C 
HETATM   17  C   UNL     1      14.833   7.402  42.327  1.00  0.00     0.227 C 
HETATM   18  C   UNL     1      18.021   6.537  38.735  1.00  0.00     0.227 C 
HETATM   19  C   UNL     1      14.664   8.792  37.108  1.00  0.00     0.250 C 
HETATM   20  C   UNL     1      14.691  10.631  39.652  1.00  0.00     0.283 C 
HETATM   21  C   UNL     1      13.966   8.479  41.689  1.00  0.00     0.250 C 
HETATM   22  C   UNL     1      16.820   6.275  36.636  1.00  0.00     0.283 C 
HETATM   23  C   UNL     1      18.282   5.033  38.972  1.00  0.00     0.250 C 
HETATM   24  C   UNL     1      15.974   5.563  41.257  1.00  0.00     0.283 C 
HETATM   25  C   UNL     1      16.433   9.181  35.328  1.00  0.00     0.153 C 
HETATM   26  C   UNL     1      15.353  10.244  42.854  1.00  0.00     0.153 C 
HETATM   27  C   UNL     1      17.634   2.936  40.071  1.00  0.00     0.153 C 
ENDROOT
BRANCH  15  28
HETATM   28  C   UNL     1      13.622  10.884  36.203  1.00  0.00     0.016 C 
HETATM   29  C   UNL     1      12.208  11.100  36.739  1.00  0.00     0.012 C 
HETATM   30  C   UNL     1      14.195  12.193  35.662  1.00  0.00     0.012 C 
ENDBRANCH  15  28
BRANCH  14  31
HETATM   31  C   UNL     1      13.850  12.257  41.342  1.00  0.00     0.014 C 
HETATM   32  C   UNL     1      14.080  13.161  40.129  1.00  0.00     0.012 C 
BRANCH  31  33
HETATM   33  C   UNL     1      12.550  12.663  42.058  1.00  0.00     0.002 C 
HETATM   34  C   UNL     1      11.377  11.738  41.762  1.00  0.00     0.005 C 
ENDBRANCH  31  33
ENDBRANCH  14  31
BRANCH  13  35
HETATM   35  C   UNL     1      15.688   6.501  34.389  1.00  0.00     0.014 C 
HETATM   36  C   UNL     1      17.133   6.209  33.977  1.00  0.00     0.012 C 
BRANCH  35  37
HETATM   37  C   UNL     1      14.797   5.292  34.051  1.00  0.00     0.002 C 
HETATM   38  C   UNL     1      13.561   5.182  34.933  1.00  0.00     0.005 C 
ENDBRANCH  35  37
ENDBRANCH  13  35
BRANCH  17  39
HETATM   39  C   UNL     1      14.153   6.822  43.554  1.00  0.00     0.016 C 
HETATM   40  C   UNL     1      12.951   5.972  43.151  1.00  0.00     0.012 C 
HETATM   41  C   UNL     1      13.728   7.936  44.508  1.00  0.00     0.012 C 
ENDBRANCH  17  39
BRANCH  18  42
HETATM   42  C   UNL     1      19.293   7.262  38.292  1.00  0.00     0.016 C 
HETATM   43  C   UNL     1      18.949   8.562  37.565  1.00  0.00     0.012 C 
HETATM   44  C   UNL     1      20.199   7.543  39.490  1.00  0.00     0.012 C 
ENDBRANCH  18  42
BRANCH  16  45
HETATM   45  C   UNL     1      14.855   3.710  40.012  1.00  0.00     0.010 C 
HETATM   46  C   UNL     1      13.552   4.217  39.395  1.00  0.00     0.012 C 
HETATM   47  C   UNL     1      14.623   3.258  41.453  1.00  0.00     0.012 C 
ENDBRANCH  16  45
TORSDOF 8
ENDMDL
MODEL 14
REMARK VINA RESULT:    -4.172      3.165      6.787
REMARK INTER + INTRA:          -5.628
REMARK INTER:                  -6.049
REMARK INTRA:                   0.421
REMARK UNBOUND:                 0.495
REMARK  8 active torsions:
REMARK  status: ('A' for Active; 'I' for Inactive)
REMARK    1  A    between atoms: C_13  and  C_15 
REMARK    2  A    between atoms: C_14  and  C_16 
REMARK    3  A    between atoms: C_15  and  C_22 
REMARK    4  A    between atoms: C_16  and  C_23 
REMARK    5  A    between atoms: C_17  and  C_21 
REMARK    6  A    between atoms: C_18  and  C_24 
REMARK    7  A    between atoms: C_19  and  C_27 
REMARK    8  A    between atoms: C_20  and  C_30 
ROOT
HETATM    1  O   UNL     1      15.028  10.440  42.670  1.00  0.00    -0.304 OA
HETATM    2  O   UNL     1      15.798   6.048  40.783  1.00  0.00    -0.304 OA
HETATM    3  O   UNL     1      19.228   8.207  40.898  1.00  0.00    -0.304 OA
HETATM    4  O   UNL     1      16.065   8.081  43.215  1.00  0.00    -0.270 OA
HETATM    5  O   UNL     1      15.145  10.187  40.379  1.00  0.00    -0.263 OA
HETATM    6  O   UNL     1      18.548  10.142  42.482  1.00  0.00    -0.270 OA
HETATM    7  O   UNL     1      15.551   3.829  41.341  1.00  0.00    -0.263 OA
HETATM    8  O   UNL     1      17.054   3.679  38.615  1.00  0.00    -0.270 OA
HETATM    9  O   UNL     1      19.799   7.142  38.933  1.00  0.00    -0.263 OA
HETATM   10  N   UNL     1      14.168   6.841  42.717  1.00  0.00    -0.340 N 
HETATM   11  N   UNL     1      17.687  11.339  40.691  1.00  0.00    -0.340 N 
HETATM   12  N   UNL     1      18.615   4.816  39.898  1.00  0.00    -0.340 N 
HETATM   13  C   UNL     1      14.880   5.556  42.917  1.00  0.00     0.190 C 
HETATM   14  C   UNL     1      16.557  11.818  41.511  1.00  0.00     0.190 C 
HETATM   15  C   UNL     1      14.086   9.355  42.779  1.00  0.00     0.227 C 
HETATM   16  C   UNL     1      18.967   5.884  40.857  1.00  0.00     0.190 C 
HETATM   17  C   UNL     1      19.368   9.525  40.326  1.00  0.00     0.227 C 
HETATM   18  C   UNL     1      16.327   5.804  39.476  1.00  0.00     0.227 C 
HETATM   19  C   UNL     1      14.865   8.042  42.919  1.00  0.00     0.250 C 
HETATM   20  C   UNL     1      15.500  10.726  41.419  1.00  0.00     0.283 C 
HETATM   21  C   UNL     1      18.526  10.375  41.268  1.00  0.00     0.250 C 
HETATM   22  C   UNL     1      15.404   5.020  41.585  1.00  0.00     0.283 C 
HETATM   23  C   UNL     1      17.352   4.661  39.303  1.00  0.00     0.250 C 
HETATM   24  C   UNL     1      19.391   7.123  40.085  1.00  0.00     0.283 C 
HETATM   25  C   UNL     1      12.783   6.754  42.243  1.00  0.00     0.153 C 
HETATM   26  C   UNL     1      17.786  11.775  39.296  1.00  0.00     0.153 C 
HETATM   27  C   UNL     1      19.657   3.851  39.546  1.00  0.00     0.153 C 
ENDROOT
BRANCH  15  28
HETATM   28  C   UNL     1      13.256   9.609  44.031  1.00  0.00     0.016 C 
HETATM   29  C   UNL     1      14.161   9.882  45.231  1.00  0.00     0.012 C 
HETATM   30  C   UNL     1      12.292  10.773  43.812  1.00  0.00     0.012 C 
ENDBRANCH  15  28
BRANCH  14  31
HETATM   31  C   UNL     1      15.949  13.157  41.115  1.00  0.00     0.014 C 
HETATM   32  C   UNL     1      14.513  13.248  41.638  1.00  0.00     0.012 C 
BRANCH  31  33
HETATM   33  C   UNL     1      16.771  14.349  41.637  1.00  0.00     0.002 C 
HETATM   34  C   UNL     1      16.141  15.702  41.336  1.00  0.00     0.005 C 
ENDBRANCH  31  33
ENDBRANCH  14  31
BRANCH  13  35
HETATM   35  C   UNL     1      14.046   4.509  43.654  1.00  0.00     0.014 C 
HETATM   36  C   UNL     1      14.949   3.368  44.129  1.00  0.00     0.012 C 
BRANCH  35  37
HETATM   37  C   UNL     1      13.283   5.102  44.852  1.00  0.00     0.002 C 
HETATM   38  C   UNL     1      11.943   4.430  45.114  1.00  0.00     0.005 C 
ENDBRANCH  35  37
ENDBRANCH  13  35
BRANCH  17  39
HETATM   39  C   UNL     1      20.821   9.961  40.362  1.00  0.00     0.016 C 
HETATM   40  C   UNL     1      20.981  11.227  41.201  1.00  0.00     0.012 C 
HETATM   41  C   UNL     1      21.350  10.185  38.947  1.00  0.00     0.012 C 
ENDBRANCH  17  39
BRANCH  18  42
HETATM   42  C   UNL     1      15.142   5.641  38.522  1.00  0.00     0.016 C 
HETATM   43  C   UNL     1      13.935   6.436  39.019  1.00  0.00     0.012 C 
HETATM   44  C   UNL     1      15.524   6.076  37.109  1.00  0.00     0.012 C 
ENDBRANCH  18  42
BRANCH  16  45
HETATM   45  C   UNL     1      20.041   5.509  41.876  1.00  0.00     0.010 C 
HETATM   46  C   UNL     1      19.606   5.898  43.288  1.00  0.00     0.012 C 
HETATM   47  C   UNL     1      21.374   6.171  41.527  1.00  0.00     0.012 C 
ENDBRANCH  16  45
TORSDOF 8
ENDMDL
MODEL 15
REMARK VINA RESULT:    -4.117     17.834     20.858
REMARK INTER + INTRA:          -5.547
REMARK INTER:                  -6.046
REMARK INTRA:                   0.499
REMARK UNBOUND:                 0.495
REMARK  8 active torsions:
REMARK  status: ('A' for Active; 'I' for Inactive)
REMARK    1  A    between atoms: C_13  and  C_15 
REMARK    2  A    between atoms: C_14  and  C_16 
REMARK    3  A    between atoms: C_15  and  C_22 
REMARK    4  A    between atoms: C_16  and  C_23 
REMARK    5  A    between atoms: C_17  and  C_21 
REMARK    6  A    between atoms: C_18  and  C_24 
REMARK    7  A    between atoms: C_19  and  C_27 
REMARK    8  A    between atoms: C_20  and  C_30 
ROOT
HETATM    1  O   UNL     1      16.698  20.854  53.646  1.00  0.00    -0.304 OA
HETATM    2  O   UNL     1      14.426  24.945  52.401  1.00  0.00    -0.304 OA
HETATM    3  O   UNL     1      15.166  22.640  49.149  1.00  0.00    -0.304 OA
HETATM    4  O   UNL     1      14.358  21.803  52.894  1.00  0.00    -0.270 OA
HETATM    5  O   UNL     1      17.914  22.622  52.796  1.00  0.00    -0.263 OA
HETATM    6  O   UNL     1      15.776  20.381  50.263  1.00  0.00    -0.270 OA
HETATM    7  O   UNL     1      12.480  26.084  52.864  1.00  0.00    -0.263 OA
HETATM    8  O   UNL     1      13.724  27.775  50.561  1.00  0.00    -0.270 OA
HETATM    9  O   UNL     1      15.468  24.613  47.993  1.00  0.00    -0.263 OA
HETATM   10  N   UNL     1      14.186  23.416  54.553  1.00  0.00    -0.340 N 
HETATM   11  N   UNL     1      17.988  21.052  50.469  1.00  0.00    -0.340 N 
HETATM   12  N   UNL     1      13.407  25.750  49.477  1.00  0.00    -0.340 N 
HETATM   13  C   UNL     1      12.939  23.968  53.973  1.00  0.00     0.190 C 
HETATM   14  C   UNL     1      18.095  20.409  51.793  1.00  0.00     0.190 C 
HETATM   15  C   UNL     1      16.040  21.716  54.596  1.00  0.00     0.227 C 
HETATM   16  C   UNL     1      13.521  24.277  49.432  1.00  0.00     0.190 C 
HETATM   17  C   UNL     1      16.473  22.136  48.801  1.00  0.00     0.227 C 
HETATM   18  C   UNL     1      14.938  25.914  51.481  1.00  0.00     0.227 C 
HETATM   19  C   UNL     1      14.793  22.313  53.933  1.00  0.00     0.250 C 
HETATM   20  C   UNL     1      17.583  21.443  52.787  1.00  0.00     0.283 C 
HETATM   21  C   UNL     1      16.713  21.093  49.885  1.00  0.00     0.250 C 
HETATM   22  C   UNL     1      13.250  25.151  53.057  1.00  0.00     0.283 C 
HETATM   23  C   UNL     1      13.957  26.564  50.480  1.00  0.00     0.250 C 
HETATM   24  C   UNL     1      14.829  23.902  48.753  1.00  0.00     0.283 C 
HETATM   25  C   UNL     1      14.739  24.127  55.710  1.00  0.00     0.153 C 
HETATM   26  C   UNL     1      19.162  21.728  49.912  1.00  0.00     0.153 C 
HETATM   27  C   UNL     1      12.666  26.404  48.398  1.00  0.00     0.153 C 
ENDROOT
BRANCH  15  28
HETATM   28  C   UNL     1      15.639  20.848  55.782  1.00  0.00     0.016 C 
HETATM   29  C   UNL     1      15.037  19.527  55.304  1.00  0.00     0.012 C 
HETATM   30  C   UNL     1      16.838  20.591  56.692  1.00  0.00     0.012 C 
ENDBRANCH  15  28
BRANCH  14  31
HETATM   31  C   UNL     1      19.481  19.936  52.210  1.00  0.00     0.014 C 
HETATM   32  C   UNL     1      19.539  19.783  53.732  1.00  0.00     0.012 C 
BRANCH  31  33
HETATM   33  C   UNL     1      19.872  18.609  51.537  1.00  0.00     0.002 C 
HETATM   34  C   UNL     1      21.172  18.017  52.067  1.00  0.00     0.005 C 
ENDBRANCH  31  33
ENDBRANCH  14  31
BRANCH  13  35
HETATM   35  C   UNL     1      11.891  24.334  55.024  1.00  0.00     0.014 C 
HETATM   36  C   UNL     1      10.541  24.582  54.346  1.00  0.00     0.012 C 
BRANCH  35  37
HETATM   37  C   UNL     1      11.738  23.247  56.104  1.00  0.00     0.002 C 
HETATM   38  C   UNL     1      11.242  21.915  55.562  1.00  0.00     0.005 C 
ENDBRANCH  35  37
ENDBRANCH  13  35
BRANCH  17  39
HETATM   39  C   UNL     1      16.439  21.487  47.429  1.00  0.00     0.016 C 
HETATM   40  C   UNL     1      15.793  20.106  47.505  1.00  0.00     0.012 C 
HETATM   41  C   UNL     1      17.847  21.390  46.845  1.00  0.00     0.012 C 
ENDBRANCH  17  39
BRANCH  18  42
HETATM   42  C   UNL     1      15.688  26.970  52.294  1.00  0.00     0.016 C 
HETATM   43  C   UNL     1      16.369  26.335  53.507  1.00  0.00     0.012 C 
HETATM   44  C   UNL     1      16.712  27.695  51.424  1.00  0.00     0.012 C 
ENDBRANCH  18  42
BRANCH  16  45
HETATM   45  C   UNL     1      12.355  23.558  48.756  1.00  0.00     0.010 C 
HETATM   46  C   UNL     1      11.767  22.494  49.682  1.00  0.00     0.012 C 
HETATM   47  C   UNL     1      12.799  22.930  47.435  1.00  0.00     0.012 C 
ENDBRANCH  16  45
TORSDOF 8
ENDMDL
MODEL 16
REMARK VINA RESULT:    -4.098     17.890     21.598
REMARK INTER + INTRA:          -5.519
REMARK INTER:                  -6.275
REMARK INTRA:                   0.756
REMARK UNBOUND:                 0.495
REMARK  8 active torsions:
REMARK  status: ('A' for Active; 'I' for Inactive)
REMARK    1  A    between atoms: C_13  and  C_15 
REMARK    2  A    between atoms: C_14  and  C_16 
REMARK    3  A    between atoms: C_15  and  C_22 
REMARK    4  A    between atoms: C_16  and  C_23 
REMARK    5  A    between atoms: C_17  and  C_21 
REMARK    6  A    between atoms: C_18  and  C_24 
REMARK    7  A    between atoms: C_19  and  C_27 
REMARK    8  A    between atoms: C_20  and  C_30 
ROOT
HETATM    1  O   UNL     1      15.632  22.477  48.748  1.00  0.00    -0.304 OA
HETATM    2  O   UNL     1      13.375  25.693  51.579  1.00  0.00    -0.304 OA
HETATM    3  O   UNL     1      10.881  24.263  48.719  1.00  0.00    -0.304 OA
HETATM    4  O   UNL     1      13.873  22.677  50.698  1.00  0.00    -0.270 OA
HETATM    5  O   UNL     1      15.378  24.654  48.024  1.00  0.00    -0.263 OA
HETATM    6  O   UNL     1      12.215  22.209  47.872  1.00  0.00    -0.270 OA
HETATM    7  O   UNL     1      12.872  26.028  53.799  1.00  0.00    -0.263 OA
HETATM    8  O   UNL     1      11.338  28.351  52.397  1.00  0.00    -0.270 OA
HETATM    9  O   UNL     1       9.934  26.366  48.693  1.00  0.00    -0.263 OA
HETATM   10  N   UNL     1      15.226  23.882  52.147  1.00  0.00    -0.340 N 
HETATM   11  N   UNL     1      13.384  23.551  46.384  1.00  0.00    -0.340 N 
HETATM   12  N   UNL     1      10.286  26.515  51.449  1.00  0.00    -0.340 N 
HETATM   13  C   UNL     1      14.127  24.057  53.126  1.00  0.00     0.190 C 
HETATM   14  C   UNL     1      14.630  22.800  46.633  1.00  0.00     0.190 C 
HETATM   15  C   UNL     1      16.155  22.921  50.016  1.00  0.00     0.227 C 
HETATM   16  C   UNL     1      10.340  25.190  50.797  1.00  0.00     0.190 C 
HETATM   17  C   UNL     1      11.180  24.286  47.307  1.00  0.00     0.227 C 
HETATM   18  C   UNL     1      12.762  26.899  51.113  1.00  0.00     0.227 C 
HETATM   19  C   UNL     1      14.981  23.149  50.976  1.00  0.00     0.250 C 
HETATM   20  C   UNL     1      15.253  23.447  47.862  1.00  0.00     0.283 C 
HETATM   21  C   UNL     1      12.283  23.242  47.196  1.00  0.00     0.250 C 
HETATM   22  C   UNL     1      13.419  25.393  52.907  1.00  0.00     0.283 C 
HETATM   23  C   UNL     1      11.406  27.315  51.727  1.00  0.00     0.250 C 
HETATM   24  C   UNL     1      10.340  25.380  49.288  1.00  0.00     0.283 C 
HETATM   25  C   UNL     1      16.488  24.565  52.452  1.00  0.00     0.153 C 
HETATM   26  C   UNL     1      13.402  24.656  45.423  1.00  0.00     0.153 C 
HETATM   27  C   UNL     1       8.971  27.027  51.833  1.00  0.00     0.153 C 
ENDROOT
BRANCH  15  28
HETATM   28  C   UNL     1      17.053  21.808  50.541  1.00  0.00     0.016 C 
HETATM   29  C   UNL     1      16.553  20.444  50.070  1.00  0.00     0.012 C 
HETATM   30  C   UNL     1      18.499  22.029  50.101  1.00  0.00     0.012 C 
ENDBRANCH  15  28
BRANCH  14  31
HETATM   31  C   UNL     1      15.644  22.769  45.497  1.00  0.00     0.014 C 
HETATM   32  C   UNL     1      16.975  22.212  46.009  1.00  0.00     0.012 C 
BRANCH  31  33
HETATM   33  C   UNL     1      15.155  21.936  44.299  1.00  0.00     0.002 C 
HETATM   34  C   UNL     1      16.263  21.563  43.323  1.00  0.00     0.005 C 
ENDBRANCH  31  33
ENDBRANCH  14  31
BRANCH  13  35
HETATM   35  C   UNL     1      14.577  23.893  54.578  1.00  0.00     0.014 C 
HETATM   36  C   UNL     1      14.941  25.259  55.165  1.00  0.00     0.012 C 
BRANCH  35  37
HETATM   37  C   UNL     1      13.503  23.220  55.453  1.00  0.00     0.002 C 
HETATM   38  C   UNL     1      14.068  22.529  56.685  1.00  0.00     0.005 C 
ENDBRANCH  35  37
ENDBRANCH  13  35
BRANCH  17  39
HETATM   39  C   UNL     1       9.961  23.867  46.506  1.00  0.00     0.016 C 
HETATM   40  C   UNL     1      10.252  22.596  45.711  1.00  0.00     0.012 C 
HETATM   41  C   UNL     1       9.518  24.993  45.574  1.00  0.00     0.012 C 
ENDBRANCH  17  39
BRANCH  18  42
HETATM   42  C   UNL     1      13.797  28.018  51.233  1.00  0.00     0.016 C 
HETATM   43  C   UNL     1      15.197  27.497  50.909  1.00  0.00     0.012 C 
HETATM   44  C   UNL     1      13.436  29.187  50.318  1.00  0.00     0.012 C 
ENDBRANCH  18  42
BRANCH  16  45
HETATM   45  C   UNL     1       9.229  24.223  51.203  1.00  0.00     0.010 C 
HETATM   46  C   UNL     1       9.816  22.916  51.731  1.00  0.00     0.012 C 
HETATM   47  C   UNL     1       8.292  23.951  50.026  1.00  0.00     0.012 C 
ENDBRANCH  16  45
TORSDOF 8
ENDMDL
MODEL 17
REMARK VINA RESULT:    -4.089      2.075      6.902
REMARK INTER + INTRA:          -5.507
REMARK INTER:                  -5.753
REMARK INTRA:                   0.246
REMARK UNBOUND:                 0.495
REMARK  8 active torsions:
REMARK  status: ('A' for Active; 'I' for Inactive)
REMARK    1  A    between atoms: C_13  and  C_15 
REMARK    2  A    between atoms: C_14  and  C_16 
REMARK    3  A    between atoms: C_15  and  C_22 
REMARK    4  A    between atoms: C_16  and  C_23 
REMARK    5  A    between atoms: C_17  and  C_21 
REMARK    6  A    between atoms: C_18  and  C_24 
REMARK    7  A    between atoms: C_19  and  C_27 
REMARK    8  A    between atoms: C_20  and  C_30 
ROOT
HETATM    1  O   UNL     1      14.255   8.531  37.146  1.00  0.00    -0.304 OA
HETATM    2  O   UNL     1      17.385   6.644  40.322  1.00  0.00    -0.304 OA
HETATM    3  O   UNL     1      19.134   9.553  38.105  1.00  0.00    -0.304 OA
HETATM    4  O   UNL     1      15.478   9.027  39.426  1.00  0.00    -0.270 OA
HETATM    5  O   UNL     1      15.775   6.942  36.444  1.00  0.00    -0.263 OA
HETATM    6  O   UNL     1      17.061  10.684  37.037  1.00  0.00    -0.270 OA
HETATM    7  O   UNL     1      17.606   6.324  42.591  1.00  0.00    -0.263 OA
HETATM    8  O   UNL     1      20.371   5.384  41.500  1.00  0.00    -0.270 OA
HETATM    9  O   UNL     1      21.064   8.297  38.235  1.00  0.00    -0.263 OA
HETATM   10  N   UNL     1      14.782   7.103  40.519  1.00  0.00    -0.340 N 
HETATM   11  N   UNL     1      17.086   9.146  35.300  1.00  0.00    -0.340 N 
HETATM   12  N   UNL     1      20.390   7.608  40.846  1.00  0.00    -0.340 N 
HETATM   13  C   UNL     1      15.613   7.403  41.708  1.00  0.00     0.190 C 
HETATM   14  C   UNL     1      15.611   9.081  35.291  1.00  0.00     0.190 C 
HETATM   15  C   UNL     1      13.854   7.709  38.260  1.00  0.00     0.227 C 
HETATM   16  C   UNL     1      19.733   8.779  40.228  1.00  0.00     0.190 C 
HETATM   17  C   UNL     1      19.139   9.570  36.661  1.00  0.00     0.227 C 
HETATM   18  C   UNL     1      18.626   6.023  39.973  1.00  0.00     0.227 C 
HETATM   19  C   UNL     1      14.780   8.007  39.445  1.00  0.00     0.250 C 
HETATM   20  C   UNL     1      15.246   8.041  36.341  1.00  0.00     0.283 C 
HETATM   21  C   UNL     1      17.683   9.876  36.339  1.00  0.00     0.250 C 
HETATM   22  C   UNL     1      16.961   6.689  41.616  1.00  0.00     0.283 C 
HETATM   23  C   UNL     1      19.861   6.307  40.856  1.00  0.00     0.250 C 
HETATM   24  C   UNL     1      20.091   8.827  38.751  1.00  0.00     0.283 C 
HETATM   25  C   UNL     1      14.068   5.822  40.527  1.00  0.00     0.153 C 
HETATM   26  C   UNL     1      17.837   8.343  34.332  1.00  0.00     0.153 C 
HETATM   27  C   UNL     1      21.685   7.822  41.493  1.00  0.00     0.153 C 
ENDROOT
BRANCH  15  28
HETATM   28  C   UNL     1      12.421   8.093  38.604  1.00  0.00     0.016 C 
HETATM   29  C   UNL     1      12.255   9.611  38.604  1.00  0.00     0.012 C 
HETATM   30  C   UNL     1      11.440   7.447  37.627  1.00  0.00     0.012 C 
ENDBRANCH  15  28
BRANCH  14  31
HETATM   31  C   UNL     1      14.954   8.727  33.964  1.00  0.00     0.014 C 
HETATM   32  C   UNL     1      13.540   8.195  34.213  1.00  0.00     0.012 C 
BRANCH  31  33
HETATM   33  C   UNL     1      14.898   9.925  33.000  1.00  0.00     0.002 C 
HETATM   34  C   UNL     1      14.747  11.267  33.704  1.00  0.00     0.005 C 
ENDBRANCH  31  33
ENDBRANCH  14  31
BRANCH  13  35
HETATM   35  C   UNL     1      14.909   7.103  43.031  1.00  0.00     0.014 C 
HETATM   36  C   UNL     1      15.632   7.818  44.177  1.00  0.00     0.012 C 
BRANCH  35  37
HETATM   37  C   UNL     1      13.426   7.515  43.015  1.00  0.00     0.002 C 
HETATM   38  C   UNL     1      12.539   6.630  43.877  1.00  0.00     0.005 C 
ENDBRANCH  35  37
ENDBRANCH  13  35
BRANCH  17  39
HETATM   39  C   UNL     1      20.046  10.676  36.153  1.00  0.00     0.016 C 
HETATM   40  C   UNL     1      19.261  11.658  35.286  1.00  0.00     0.012 C 
HETATM   41  C   UNL     1      21.221  10.091  35.372  1.00  0.00     0.012 C 
ENDBRANCH  17  39
BRANCH  18  42
HETATM   42  C   UNL     1      18.368   4.521  39.840  1.00  0.00     0.016 C 
HETATM   43  C   UNL     1      16.961   4.260  39.302  1.00  0.00     0.012 C 
HETATM   44  C   UNL     1      19.414   3.872  38.936  1.00  0.00     0.012 C 
ENDBRANCH  18  42
BRANCH  16  45
HETATM   45  C   UNL     1      20.048  10.120  40.887  1.00  0.00     0.010 C 
HETATM   46  C   UNL     1      18.763  10.822  41.326  1.00  0.00     0.012 C 
HETATM   47  C   UNL     1      20.848  11.014  39.940  1.00  0.00     0.012 C 
ENDBRANCH  16  45
TORSDOF 8
ENDMDL
MODEL 18
REMARK VINA RESULT:    -4.064     12.425     15.975
REMARK INTER + INTRA:          -5.470
REMARK INTER:                  -6.184
REMARK INTRA:                   0.714
REMARK UNBOUND:                 0.495
REMARK  8 active torsions:
REMARK  status: ('A' for Active; 'I' for Inactive)
REMARK    1  A    between atoms: C_13  and  C_15 
REMARK    2  A    between atoms: C_14  and  C_16 
REMARK    3  A    between atoms: C_15  and  C_22 
REMARK    4  A    between atoms: C_16  and  C_23 
REMARK    5  A    between atoms: C_17  and  C_21 
REMARK    6  A    between atoms: C_18  and  C_24 
REMARK    7  A    between atoms: C_19  and  C_27 
REMARK    8  A    between atoms: C_20  and  C_30 
ROOT
HETATM    1  O   UNL     1      17.562  21.220  49.519  1.00  0.00    -0.304 OA
HETATM    2  O   UNL     1      19.650  19.942  45.341  1.00  0.00    -0.304 OA
HETATM    3  O   UNL     1      20.588  17.332  48.298  1.00  0.00    -0.304 OA
HETATM    4  O   UNL     1      17.399  19.486  47.542  1.00  0.00    -0.270 OA
HETATM    5  O   UNL     1      19.777  21.746  49.142  1.00  0.00    -0.263 OA
HETATM    6  O   UNL     1      18.847  17.976  50.107  1.00  0.00    -0.270 OA
HETATM    7  O   UNL     1      19.069  19.416  43.176  1.00  0.00    -0.263 OA
HETATM    8  O   UNL     1      22.131  18.834  43.219  1.00  0.00    -0.270 OA
HETATM    9  O   UNL     1      22.646  17.130  47.276  1.00  0.00    -0.263 OA
HETATM   10  N   UNL     1      17.292  21.050  45.832  1.00  0.00    -0.340 N 
HETATM   11  N   UNL     1      20.264  19.626  50.917  1.00  0.00    -0.340 N 
HETATM   12  N   UNL     1      21.388  17.311  44.800  1.00  0.00    -0.340 N 
HETATM   13  C   UNL     1      17.342  20.001  44.786  1.00  0.00     0.190 C 
HETATM   14  C   UNL     1      19.125  20.535  51.153  1.00  0.00     0.190 C 
HETATM   15  C   UNL     1      17.176  21.765  48.241  1.00  0.00     0.227 C 
HETATM   16  C   UNL     1      20.574  16.974  45.988  1.00  0.00     0.190 C 
HETATM   17  C   UNL     1      21.159  17.723  49.565  1.00  0.00     0.227 C 
HETATM   18  C   UNL     1      21.059  19.793  45.146  1.00  0.00     0.227 C 
HETATM   19  C   UNL     1      17.304  20.665  47.181  1.00  0.00     0.250 C 
HETATM   20  C   UNL     1      18.894  21.245  49.825  1.00  0.00     0.283 C 
HETATM   21  C   UNL     1      19.990  18.429  50.240  1.00  0.00     0.250 C 
HETATM   22  C   UNL     1      18.777  19.788  44.306  1.00  0.00     0.283 C 
HETATM   23  C   UNL     1      21.559  18.608  44.290  1.00  0.00     0.250 C 
HETATM   24  C   UNL     1      21.425  17.146  47.236  1.00  0.00     0.283 C 
HETATM   25  C   UNL     1      17.309  22.440  45.364  1.00  0.00     0.153 C 
HETATM   26  C   UNL     1      21.614  20.075  51.265  1.00  0.00     0.153 C 
HETATM   27  C   UNL     1      22.061  16.211  44.107  1.00  0.00     0.153 C 
ENDROOT
BRANCH  15  28
HETATM   28  C   UNL     1      15.725  22.208  48.365  1.00  0.00     0.016 C 
HETATM   29  C   UNL     1      15.088  21.622  49.624  1.00  0.00     0.012 C 
HETATM   30  C   UNL     1      15.625  23.733  48.376  1.00  0.00     0.012 C 
ENDBRANCH  15  28
BRANCH  14  31
HETATM   31  C   UNL     1      19.293  21.563  52.264  1.00  0.00     0.014 C 
HETATM   32  C   UNL     1      18.532  22.841  51.905  1.00  0.00     0.012 C 
BRANCH  31  33
HETATM   33  C   UNL     1      18.813  21.034  53.627  1.00  0.00     0.002 C 
HETATM   34  C   UNL     1      19.939  20.515  54.510  1.00  0.00     0.005 C 
ENDBRANCH  31  33
ENDBRANCH  14  31
BRANCH  13  35
HETATM   35  C   UNL     1      16.394  20.265  43.617  1.00  0.00     0.014 C 
HETATM   36  C   UNL     1      15.808  18.943  43.115  1.00  0.00     0.012 C 
BRANCH  35  37
HETATM   37  C   UNL     1      15.254  21.230  43.991  1.00  0.00     0.002 C 
HETATM   38  C   UNL     1      14.193  21.368  42.909  1.00  0.00     0.005 C 
ENDBRANCH  35  37
ENDBRANCH  13  35
BRANCH  17  39
HETATM   39  C   UNL     1      21.575  16.496  50.355  1.00  0.00     0.016 C 
HETATM   40  C   UNL     1      20.456  15.458  50.362  1.00  0.00     0.012 C 
HETATM   41  C   UNL     1      21.958  16.881  51.783  1.00  0.00     0.012 C 
ENDBRANCH  17  39
BRANCH  18  42
HETATM   42  C   UNL     1      21.596  21.126  44.623  1.00  0.00     0.016 C 
HETATM   43  C   UNL     1      20.995  22.294  45.404  1.00  0.00     0.012 C 
HETATM   44  C   UNL     1      23.121  21.161  44.698  1.00  0.00     0.012 C 
ENDBRANCH  18  42
BRANCH  16  45
HETATM   45  C   UNL     1      19.948  15.581  45.969  1.00  0.00     0.010 C 
HETATM   46  C   UNL     1      18.487  15.640  46.416  1.00  0.00     0.012 C 
HETATM   47  C   UNL     1      20.739  14.620  46.856  1.00  0.00     0.012 C 
ENDBRANCH  16  45
TORSDOF 8
ENDMDL
MODEL 19
REMARK VINA RESULT:    -3.908     10.977     13.873
REMARK INTER + INTRA:          -5.240
REMARK INTER:                  -5.692
REMARK INTRA:                   0.451
REMARK UNBOUND:                 0.495
REMARK  8 active torsions:
REMARK  status: ('A' for Active; 'I' for Inactive)
REMARK    1  A    between atoms: C_13  and  C_15 
REMARK    2  A    between atoms: C_14  and  C_16 
REMARK    3  A    between atoms: C_15  and  C_22 
REMARK    4  A    between atoms: C_16  and  C_23 
REMARK    5  A    between atoms: C_17  and  C_21 
REMARK    6  A    between atoms: C_18  and  C_24 
REMARK    7  A    between atoms: C_19  and  C_27 
REMARK    8  A    between atoms: C_20  and  C_30 
ROOT
HETATM    1  O   UNL     1      16.388  16.839  47.494  1.00  0.00    -0.304 OA
HETATM    2  O   UNL     1      18.495  19.142  43.791  1.00  0.00    -0.304 OA
HETATM    3  O   UNL     1      20.302  20.066  47.302  1.00  0.00    -0.304 OA
HETATM    4  O   UNL     1      18.538  16.825  45.971  1.00  0.00    -0.270 OA
HETATM    5  O   UNL     1      15.857  19.045  47.070  1.00  0.00    -0.263 OA
HETATM    6  O   UNL     1      19.341  18.230  48.858  1.00  0.00    -0.270 OA
HETATM    7  O   UNL     1      19.535  18.670  41.793  1.00  0.00    -0.263 OA
HETATM    8  O   UNL     1      19.942  21.748  42.059  1.00  0.00    -0.270 OA
HETATM    9  O   UNL     1      20.634  22.170  46.415  1.00  0.00    -0.263 OA
HETATM   10  N   UNL     1      17.419  16.724  43.942  1.00  0.00    -0.340 N 
HETATM   11  N   UNL     1      17.482  19.545  49.304  1.00  0.00    -0.340 N 
HETATM   12  N   UNL     1      21.092  21.005  43.930  1.00  0.00    -0.340 N 
HETATM   13  C   UNL     1      18.678  16.857  43.170  1.00  0.00     0.190 C 
HETATM   14  C   UNL     1      16.600  18.362  49.287  1.00  0.00     0.190 C 
HETATM   15  C   UNL     1      16.173  16.483  46.114  1.00  0.00     0.227 C 
HETATM   16  C   UNL     1      21.184  20.159  45.138  1.00  0.00     0.190 C 
HETATM   17  C   UNL     1      19.600  20.570  48.459  1.00  0.00     0.227 C 
HETATM   18  C   UNL     1      18.617  20.563  43.679  1.00  0.00     0.227 C 
HETATM   19  C   UNL     1      17.481  16.697  45.343  1.00  0.00     0.250 C 
HETATM   20  C   UNL     1      16.228  18.156  47.825  1.00  0.00     0.283 C 
HETATM   21  C   UNL     1      18.816  19.348  48.916  1.00  0.00     0.250 C 
HETATM   22  C   UNL     1      18.926  18.318  42.796  1.00  0.00     0.283 C 
HETATM   23  C   UNL     1      19.942  21.144  43.137  1.00  0.00     0.250 C 
HETATM   24  C   UNL     1      20.687  20.952  46.337  1.00  0.00     0.283 C 
HETATM   25  C   UNL     1      16.176  16.703  43.164  1.00  0.00     0.153 C 
HETATM   26  C   UNL     1      16.900  20.861  49.577  1.00  0.00     0.153 C 
HETATM   27  C   UNL     1      22.288  21.748  43.532  1.00  0.00     0.153 C 
ENDROOT
BRANCH  15  28
HETATM   28  C   UNL     1      15.784  15.011  46.089  1.00  0.00     0.016 C 
HETATM   29  C   UNL     1      16.392  14.272  47.279  1.00  0.00     0.012 C 
HETATM   30  C   UNL     1      14.264  14.854  46.082  1.00  0.00     0.012 C 
ENDBRANCH  15  28
BRANCH  14  31
HETATM   31  C   UNL     1      15.336  18.444  50.133  1.00  0.00     0.014 C 
HETATM   32  C   UNL     1      14.292  17.461  49.598  1.00  0.00     0.012 C 
BRANCH  31  33
HETATM   33  C   UNL     1      15.608  18.159  51.620  1.00  0.00     0.002 C 
HETATM   34  C   UNL     1      16.650  17.073  51.852  1.00  0.00     0.005 C 
ENDBRANCH  31  33
ENDBRANCH  14  31
BRANCH  13  35
HETATM   35  C   UNL     1      18.738  15.946  41.945  1.00  0.00     0.014 C 
HETATM   36  C   UNL     1      20.128  16.025  41.308  1.00  0.00     0.012 C 
BRANCH  35  37
HETATM   37  C   UNL     1      18.403  14.483  42.284  1.00  0.00     0.002 C 
HETATM   38  C   UNL     1      17.561  13.789  41.223  1.00  0.00     0.005 C 
ENDBRANCH  35  37
ENDBRANCH  13  35
BRANCH  17  39
HETATM   39  C   UNL     1      20.590  21.003  49.525  1.00  0.00     0.016 C 
HETATM   40  C   UNL     1      21.619  19.905  49.780  1.00  0.00     0.012 C 
HETATM   41  C   UNL     1      19.861  21.366  50.818  1.00  0.00     0.012 C 
ENDBRANCH  17  39
BRANCH  18  42
HETATM   42  C   UNL     1      17.416  21.065  42.875  1.00  0.00     0.016 C 
HETATM   43  C   UNL     1      16.185  20.200  43.145  1.00  0.00     0.012 C 
HETATM   44  C   UNL     1      17.123  22.529  43.200  1.00  0.00     0.012 C 
ENDBRANCH  18  42
BRANCH  16  45
HETATM   45  C   UNL     1      22.572  19.590  45.427  1.00  0.00     0.010 C 
HETATM   46  C   UNL     1      22.482  18.113  45.807  1.00  0.00     0.012 C 
HETATM   47  C   UNL     1      23.264  20.386  46.533  1.00  0.00     0.012 C 
ENDBRANCH  16  45
TORSDOF 8
ENDMDL
MODEL 20
REMARK VINA RESULT:    -3.877      2.187      6.362
REMARK INTER + INTRA:          -5.195
REMARK INTER:                  -6.346
REMARK INTRA:                   1.151
REMARK UNBOUND:                 0.495
REMARK  8 active torsions:
REMARK  status: ('A' for Active; 'I' for Inactive)
REMARK    1  A    between atoms: C_13  and  C_15 
REMARK    2  A    between atoms: C_14  and  C_16 
REMARK    3  A    between atoms: C_15  and  C_22 
REMARK    4  A    between atoms: C_16  and  C_23 
REMARK    5  A    between atoms: C_17  and  C_21 
REMARK    6  A    between atoms: C_18  and  C_24 
REMARK    7  A    between atoms: C_19  and  C_27 
REMARK    8  A    between atoms: C_20  and  C_30 
ROOT
HETATM    1  O   UNL     1      17.272   5.508  40.329  1.00  0.00    -0.304 OA
HETATM    2  O   UNL     1      16.497   9.592  37.845  1.00  0.00    -0.304 OA
HETATM    3  O   UNL     1      13.761   9.143  40.804  1.00  0.00    -0.304 OA
HETATM    4  O   UNL     1      17.535   8.125  40.470  1.00  0.00    -0.270 OA
HETATM    5  O   UNL     1      15.644   5.558  38.693  1.00  0.00    -0.263 OA
HETATM    6  O   UNL     1      14.859   7.272  42.222  1.00  0.00    -0.270 OA
HETATM    7  O   UNL     1      17.593  11.533  37.270  1.00  0.00    -0.263 OA
HETATM    8  O   UNL     1      14.708  12.042  36.207  1.00  0.00    -0.270 OA
HETATM    9  O   UNL     1      12.256  10.149  39.374  1.00  0.00    -0.263 OA
HETATM   10  N   UNL     1      18.753   8.372  38.512  1.00  0.00    -0.340 N 
HETATM   11  N   UNL     1      13.885   5.649  40.879  1.00  0.00    -0.340 N 
HETATM   12  N   UNL     1      14.291  11.822  38.477  1.00  0.00    -0.340 N 
HETATM   13  C   UNL     1      18.730   9.850  38.610  1.00  0.00     0.190 C 
HETATM   14  C   UNL     1      15.100   4.814  40.948  1.00  0.00     0.190 C 
HETATM   15  C   UNL     1      18.242   6.087  39.433  1.00  0.00     0.227 C 
HETATM   16  C   UNL     1      14.470  11.111  39.760  1.00  0.00     0.190 C 
HETATM   17  C   UNL     1      12.945   7.964  40.973  1.00  0.00     0.227 C 
HETATM   18  C   UNL     1      15.283   9.909  37.156  1.00  0.00     0.227 C 
HETATM   19  C   UNL     1      18.138   7.614  39.520  1.00  0.00     0.250 C 
HETATM   20  C   UNL     1      16.008   5.330  39.839  1.00  0.00     0.283 C 
HETATM   21  C   UNL     1      13.964   6.932  41.439  1.00  0.00     0.250 C 
HETATM   22  C   UNL     1      17.573  10.425  37.792  1.00  0.00     0.283 C 
HETATM   23  C   UNL     1      14.754  11.358  37.235  1.00  0.00     0.250 C 
HETATM   24  C   UNL     1      13.343  10.105  39.931  1.00  0.00     0.283 C 
HETATM   25  C   UNL     1      19.367   7.807  37.306  1.00  0.00     0.153 C 
HETATM   26  C   UNL     1      12.732   5.162  40.119  1.00  0.00     0.153 C 
HETATM   27  C   UNL     1      13.581  13.101  38.505  1.00  0.00     0.153 C 
ENDROOT
BRANCH  15  28
HETATM   28  C   UNL     1      19.615   5.627  39.905  1.00  0.00     0.016 C 
HETATM   29  C   UNL     1      19.937   6.212  41.279  1.00  0.00     0.012 C 
HETATM   30  C   UNL     1      19.689   4.101  39.942  1.00  0.00     0.012 C 
ENDBRANCH  15  28
BRANCH  14  31
HETATM   31  C   UNL     1      14.904   3.312  40.795  1.00  0.00     0.014 C 
HETATM   32  C   UNL     1      16.246   2.644  40.486  1.00  0.00     0.012 C 
BRANCH  31  33
HETATM   33  C   UNL     1      14.279   2.674  42.049  1.00  0.00     0.002 C 
HETATM   34  C   UNL     1      13.115   1.742  41.742  1.00  0.00     0.005 C 
ENDBRANCH  31  33
ENDBRANCH  14  31
BRANCH  13  35
HETATM   35  C   UNL     1      20.059  10.504  38.236  1.00  0.00     0.014 C 
HETATM   36  C   UNL     1      20.087  11.950  38.742  1.00  0.00     0.012 C 
BRANCH  35  37
HETATM   37  C   UNL     1      21.270   9.735  38.796  1.00  0.00     0.002 C 
HETATM   38  C   UNL     1      21.420   9.850  40.305  1.00  0.00     0.005 C 
ENDBRANCH  35  37
ENDBRANCH  13  35
BRANCH  17  39
HETATM   39  C   UNL     1      11.893   8.201  42.041  1.00  0.00     0.016 C 
HETATM   40  C   UNL     1      12.083   7.233  43.206  1.00  0.00     0.012 C 
HETATM   41  C   UNL     1      10.490   8.065  41.452  1.00  0.00     0.012 C 
ENDBRANCH  17  39
BRANCH  18  42
HETATM   42  C   UNL     1      15.444   9.450  35.706  1.00  0.00     0.016 C 
HETATM   43  C   UNL     1      16.276   8.170  35.633  1.00  0.00     0.012 C 
HETATM   44  C   UNL     1      14.080   9.239  35.052  1.00  0.00     0.012 C 
ENDBRANCH  18  42
BRANCH  16  45
HETATM   45  C   UNL     1      14.560  12.011  40.991  1.00  0.00     0.010 C 
HETATM   46  C   UNL     1      13.204  12.649  41.294  1.00  0.00     0.012 C 
HETATM   47  C   UNL     1      15.626  13.088  40.797  1.00  0.00     0.012 C 
ENDBRANCH  16  45
TORSDOF 8
ENDMDL
