MODEL 1
REMARK VINA RESULT:    -6.223      0.000      0.000
REMARK INTER + INTRA:          -8.389
REMARK INTER:                  -9.134
REMARK INTRA:                   0.745
REMARK UNBOUND:                 0.745
REMARK  8 active torsions:
REMARK  status: ('A' for Active; 'I' for Inactive)
REMARK    1  A    between atoms: C_13  and  C_15 
REMARK    2  A    between atoms: C_14  and  C_16 
REMARK    3  A    between atoms: C_15  and  C_22 
REMARK    4  A    between atoms: C_16  and  C_23 
REMARK    5  A    between atoms: C_17  and  C_21 
REMARK    6  A    between atoms: C_18  and  C_24 
REMARK    7  A    between atoms: C_19  and  C_27 
REMARK    8  A    between atoms: C_20  and  C_30 
ROOT
HETATM    1  O   UNL     1      16.973  35.538   0.375  1.00  0.00    -0.304 OA
HETATM    2  O   UNL     1      21.040  34.369  -1.980  1.00  0.00    -0.304 OA
HETATM    3  O   UNL     1      21.854  35.711   1.758  1.00  0.00    -0.304 OA
HETATM    4  O   UNL     1      18.854  33.699   0.231  1.00  0.00    -0.270 OA
HETATM    5  O   UNL     1      18.241  37.198  -0.606  1.00  0.00    -0.263 OA
HETATM    6  O   UNL     1      19.504  35.620   2.846  1.00  0.00    -0.270 OA
HETATM    7  O   UNL     1      22.002  32.562  -3.032  1.00  0.00    -0.263 OA
HETATM    8  O   UNL     1      24.292  34.675  -3.082  1.00  0.00    -0.270 OA
HETATM    9  O   UNL     1      23.768  36.632   0.859  1.00  0.00    -0.263 OA
HETATM   10  N   UNL     1      18.627  33.271  -2.038  1.00  0.00    -0.340 N 
HETATM   11  N   UNL     1      19.020  37.740   2.036  1.00  0.00    -0.340 N 
HETATM   12  N   UNL     1      24.011  34.408  -0.796  1.00  0.00    -0.340 N 
HETATM   13  C   UNL     1      19.789  32.351  -2.043  1.00  0.00     0.190 C 
HETATM   14  C   UNL     1      17.627  37.348   1.746  1.00  0.00     0.190 C 
HETATM   15  C   UNL     1      16.990  34.757  -0.837  1.00  0.00     0.227 C 
HETATM   16  C   UNL     1      23.143  34.314   0.397  1.00  0.00     0.190 C 
HETATM   17  C   UNL     1      21.387  36.974   2.279  1.00  0.00     0.227 C 
HETATM   18  C   UNL     1      22.121  35.270  -2.235  1.00  0.00     0.227 C 
HETATM   19  C   UNL     1      18.240  33.869  -0.829  1.00  0.00     0.250 C 
HETATM   20  C   UNL     1      17.665  36.717   0.360  1.00  0.00     0.283 C 
HETATM   21  C   UNL     1      19.894  36.721   2.442  1.00  0.00     0.250 C 
HETATM   22  C   UNL     1      21.060  33.093  -2.457  1.00  0.00     0.283 C 
HETATM   23  C   UNL     1      23.565  34.742  -2.085  1.00  0.00     0.250 C 
HETATM   24  C   UNL     1      22.998  35.696   1.013  1.00  0.00     0.283 C 
HETATM   25  C   UNL     1      18.006  33.547  -3.337  1.00  0.00     0.153 C 
HETATM   26  C   UNL     1      19.444  39.113   1.751  1.00  0.00     0.153 C 
HETATM   27  C   UNL     1      25.437  34.130  -0.619  1.00  0.00     0.153 C 
ENDROOT
BRANCH  15  28
HETATM   28  C   UNL     1      15.735  33.896  -0.829  1.00  0.00     0.016 C 
HETATM   29  C   UNL     1      15.875  32.747   0.168  1.00  0.00     0.012 C 
HETATM   30  C   UNL     1      14.503  34.739  -0.504  1.00  0.00     0.012 C 
ENDBRANCH  15  28
BRANCH  14  31
HETATM   31  C   UNL     1      16.586  38.459   1.777  1.00  0.00     0.014 C 
HETATM   32  C   UNL     1      15.883  38.548   0.421  1.00  0.00     0.012 C 
BRANCH  31  33
HETATM   33  C   UNL     1      15.545  38.254   2.892  1.00  0.00     0.002 C 
HETATM   34  C   UNL     1      14.505  37.191   2.567  1.00  0.00     0.005 C 
ENDBRANCH  31  33
ENDBRANCH  14  31
BRANCH  13  35
HETATM   35  C   UNL     1      19.569  31.101  -2.894  1.00  0.00     0.014 C 
HETATM   36  C   UNL     1      20.590  30.027  -2.511  1.00  0.00     0.012 C 
BRANCH  35  37
HETATM   37  C   UNL     1      18.143  30.537  -2.751  1.00  0.00     0.002 C 
HETATM   38  C   UNL     1      18.024  29.074  -3.152  1.00  0.00     0.005 C 
ENDBRANCH  35  37
ENDBRANCH  13  35
BRANCH  17  39
HETATM   39  C   UNL     1      22.034  37.260   3.621  1.00  0.00     0.016 C 
HETATM   40  C   UNL     1      20.971  37.539   4.681  1.00  0.00     0.012 C 
HETATM   41  C   UNL     1      23.003  38.436   3.511  1.00  0.00     0.012 C 
ENDBRANCH  17  39
BRANCH  18  42
HETATM   42  C   UNL     1      21.892  35.886  -3.616  1.00  0.00     0.016 C 
HETATM   43  C   UNL     1      20.403  36.135  -3.857  1.00  0.00     0.012 C 
HETATM   44  C   UNL     1      22.683  37.184  -3.767  1.00  0.00     0.012 C 
ENDBRANCH  18  42
BRANCH  16  45
HETATM   45  C   UNL     1      23.604  33.315   1.456  1.00  0.00     0.010 C 
HETATM   46  C   UNL     1      22.407  32.607   2.089  1.00  0.00     0.012 C 
HETATM   47  C   UNL     1      24.442  34.010   2.528  1.00  0.00     0.012 C 
ENDBRANCH  16  45
TORSDOF 8
ENDMDL
MODEL 2
REMARK VINA RESULT:    -6.048      2.925      8.833
REMARK INTER + INTRA:          -8.131
REMARK INTER:                  -9.013
REMARK INTRA:                   0.882
REMARK UNBOUND:                 0.745
REMARK  8 active torsions:
REMARK  status: ('A' for Active; 'I' for Inactive)
REMARK    1  A    between atoms: C_13  and  C_15 
REMARK    2  A    between atoms: C_14  and  C_16 
REMARK    3  A    between atoms: C_15  and  C_22 
REMARK    4  A    between atoms: C_16  and  C_23 
REMARK    5  A    between atoms: C_17  and  C_21 
REMARK    6  A    between atoms: C_18  and  C_24 
REMARK    7  A    between atoms: C_19  and  C_27 
REMARK    8  A    between atoms: C_20  and  C_30 
ROOT
HETATM    1  O   UNL     1      21.141  37.268   2.875  1.00  0.00    -0.304 OA
HETATM    2  O   UNL     1      18.256  40.389   0.555  1.00  0.00    -0.304 OA
HETATM    3  O   UNL     1      16.566  36.708   0.749  1.00  0.00    -0.304 OA
HETATM    4  O   UNL     1      18.943  38.692   3.157  1.00  0.00    -0.270 OA
HETATM    5  O   UNL     1      21.094  37.280   0.568  1.00  0.00    -0.263 OA
HETATM    6  O   UNL     1      18.059  35.564   2.531  1.00  0.00    -0.270 OA
HETATM    7  O   UNL     1      17.203  42.405   0.912  1.00  0.00    -0.263 OA
HETATM    8  O   UNL     1      16.093  41.542  -1.870  1.00  0.00    -0.270 OA
HETATM    9  O   UNL     1      15.670  37.165  -1.328  1.00  0.00    -0.263 OA
HETATM   10  N   UNL     1      19.888  40.740   2.614  1.00  0.00    -0.340 N 
HETATM   11  N   UNL     1      19.579  34.938   0.893  1.00  0.00    -0.340 N 
HETATM   12  N   UNL     1      15.307  39.810  -0.544  1.00  0.00    -0.340 N 
HETATM   13  C   UNL     1      18.577  41.429   2.666  1.00  0.00     0.190 C 
HETATM   14  C   UNL     1      20.715  35.210   1.795  1.00  0.00     0.190 C 
HETATM   15  C   UNL     1      21.325  38.697   2.915  1.00  0.00     0.227 C 
HETATM   16  C   UNL     1      15.518  38.783   0.498  1.00  0.00     0.190 C 
HETATM   17  C   UNL     1      17.216  35.500   0.298  1.00  0.00     0.227 C 
HETATM   18  C   UNL     1      17.789  40.224  -0.787  1.00  0.00     0.227 C 
HETATM   19  C   UNL     1      19.947  39.368   2.903  1.00  0.00     0.250 C 
HETATM   20  C   UNL     1      21.007  36.697   1.640  1.00  0.00     0.283 C 
HETATM   21  C   UNL     1      18.305  35.312   1.346  1.00  0.00     0.250 C 
HETATM   22  C   UNL     1      17.957  41.509   1.271  1.00  0.00     0.283 C 
HETATM   23  C   UNL     1      16.324  40.600  -1.104  1.00  0.00     0.250 C 
HETATM   24  C   UNL     1      15.905  37.473  -0.169  1.00  0.00     0.283 C 
HETATM   25  C   UNL     1      21.034  41.549   2.185  1.00  0.00     0.153 C 
HETATM   26  C   UNL     1      19.849  34.439  -0.457  1.00  0.00     0.153 C 
HETATM   27  C   UNL     1      13.941  40.018  -1.023  1.00  0.00     0.153 C 
ENDROOT
BRANCH  15  28
HETATM   28  C   UNL     1      22.052  39.016   4.215  1.00  0.00     0.016 C 
HETATM   29  C   UNL     1      21.825  37.911   5.245  1.00  0.00     0.012 C 
HETATM   30  C   UNL     1      23.546  39.214   3.963  1.00  0.00     0.012 C 
ENDBRANCH  15  28
BRANCH  14  31
HETATM   31  C   UNL     1      21.985  34.407   1.550  1.00  0.00     0.014 C 
HETATM   32  C   UNL     1      23.203  35.216   2.004  1.00  0.00     0.012 C 
BRANCH  31  33
HETATM   33  C   UNL     1      21.965  33.047   2.268  1.00  0.00     0.002 C 
HETATM   34  C   UNL     1      22.107  31.859   1.327  1.00  0.00     0.005 C 
ENDBRANCH  31  33
ENDBRANCH  14  31
BRANCH  13  35
HETATM   35  C   UNL     1      18.639  42.803   3.331  1.00  0.00     0.014 C 
HETATM   36  C   UNL     1      18.912  43.878   2.276  1.00  0.00     0.012 C 
BRANCH  35  37
HETATM   37  C   UNL     1      17.349  43.143   4.098  1.00  0.00     0.002 C 
HETATM   38  C   UNL     1      17.518  44.274   5.103  1.00  0.00     0.005 C 
ENDBRANCH  35  37
ENDBRANCH  13  35
BRANCH  17  39
HETATM   39  C   UNL     1      16.240  34.338   0.322  1.00  0.00     0.016 C 
HETATM   40  C   UNL     1      15.514  34.275   1.663  1.00  0.00     0.012 C 
HETATM   41  C   UNL     1      16.964  33.023   0.041  1.00  0.00     0.012 C 
ENDBRANCH  17  39
BRANCH  18  42
HETATM   42  C   UNL     1      18.766  40.957  -1.708  1.00  0.00     0.016 C 
HETATM   43  C   UNL     1      20.194  40.851  -1.174  1.00  0.00     0.012 C 
HETATM   44  C   UNL     1      18.685  40.405  -3.130  1.00  0.00     0.012 C 
ENDBRANCH  18  42
BRANCH  16  45
HETATM   45  C   UNL     1      14.334  38.563   1.438  1.00  0.00     0.010 C 
HETATM   46  C   UNL     1      14.802  38.503   2.892  1.00  0.00     0.012 C 
HETATM   47  C   UNL     1      13.579  37.287   1.067  1.00  0.00     0.012 C 
ENDBRANCH  16  45
TORSDOF 8
ENDMDL
MODEL 3
REMARK VINA RESULT:    -5.687      2.245      7.151
REMARK INTER + INTRA:          -7.601
REMARK INTER:                  -8.092
REMARK INTRA:                   0.491
REMARK UNBOUND:                 0.745
REMARK  8 active torsions:
REMARK  status: ('A' for Active; 'I' for Inactive)
REMARK    1  A    between atoms: C_13  and  C_15 
REMARK    2  A    between atoms: C_14  and  C_16 
REMARK    3  A    between atoms: C_15  and  C_22 
REMARK    4  A    between atoms: C_16  and  C_23 
REMARK    5  A    between atoms: C_17  and  C_21 
REMARK    6  A    between atoms: C_18  and  C_24 
REMARK    7  A    between atoms: C_19  and  C_27 
REMARK    8  A    between atoms: C_20  and  C_30 
ROOT
HETATM    1  O   UNL     1      17.749  33.868  -1.114  1.00  0.00    -0.304 OA
HETATM    2  O   UNL     1      19.022  37.536   1.780  1.00  0.00    -0.304 OA
HETATM    3  O   UNL     1      20.576  38.003  -1.936  1.00  0.00    -0.304 OA
HETATM    4  O   UNL     1      17.250  36.405  -0.607  1.00  0.00    -0.270 OA
HETATM    5  O   UNL     1      19.837  33.874  -0.130  1.00  0.00    -0.263 OA
HETATM    6  O   UNL     1      19.202  36.263  -3.276  1.00  0.00    -0.270 OA
HETATM    7  O   UNL     1      18.047  39.168   3.078  1.00  0.00    -0.263 OA
HETATM    8  O   UNL     1      21.073  39.904   3.220  1.00  0.00    -0.270 OA
HETATM    9  O   UNL     1      22.402  38.958  -0.899  1.00  0.00    -0.263 OA
HETATM   10  N   UNL     1      16.777  36.132   1.648  1.00  0.00    -0.340 N 
HETATM   11  N   UNL     1      20.708  34.594  -2.700  1.00  0.00    -0.340 N 
HETATM   12  N   UNL     1      20.686  40.138   0.947  1.00  0.00    -0.340 N 
HETATM   13  C   UNL     1      16.649  37.593   1.861  1.00  0.00     0.190 C 
HETATM   14  C   UNL     1      19.614  33.615  -2.542  1.00  0.00     0.190 C 
HETATM   15  C   UNL     1      17.111  34.138   0.150  1.00  0.00     0.227 C 
HETATM   16  C   UNL     1      20.125  39.639  -0.327  1.00  0.00     0.190 C 
HETATM   17  C   UNL     1      21.371  37.002  -2.606  1.00  0.00     0.227 C 
HETATM   18  C   UNL     1      20.371  37.903   2.085  1.00  0.00     0.227 C 
HETATM   19  C   UNL     1      17.058  35.656   0.358  1.00  0.00     0.250 C 
HETATM   20  C   UNL     1      19.114  33.795  -1.115  1.00  0.00     0.283 C 
HETATM   21  C   UNL     1      20.337  35.929  -2.920  1.00  0.00     0.250 C 
HETATM   22  C   UNL     1      17.970  38.181   2.358  1.00  0.00     0.283 C 
HETATM   23  C   UNL     1      20.724  39.406   2.144  1.00  0.00     0.250 C 
HETATM   24  C   UNL     1      21.196  38.852  -1.065  1.00  0.00     0.283 C 
HETATM   25  C   UNL     1      16.670  35.285   2.841  1.00  0.00     0.153 C 
HETATM   26  C   UNL     1      22.088  34.157  -2.480  1.00  0.00     0.153 C 
HETATM   27  C   UNL     1      21.239  41.493   0.958  1.00  0.00     0.153 C 
ENDROOT
BRANCH  15  28
HETATM   28  C   UNL     1      15.701  33.570   0.068  1.00  0.00     0.016 C 
HETATM   29  C   UNL     1      14.744  34.590  -0.547  1.00  0.00     0.012 C 
HETATM   30  C   UNL     1      15.688  32.271  -0.737  1.00  0.00     0.012 C 
ENDBRANCH  15  28
BRANCH  14  31
HETATM   31  C   UNL     1      19.969  32.154  -2.782  1.00  0.00     0.014 C 
HETATM   32  C   UNL     1      18.797  31.262  -2.363  1.00  0.00     0.012 C 
BRANCH  31  33
HETATM   33  C   UNL     1      20.337  31.875  -4.250  1.00  0.00     0.002 C 
HETATM   34  C   UNL     1      21.674  31.166  -4.419  1.00  0.00     0.005 C 
ENDBRANCH  31  33
ENDBRANCH  14  31
BRANCH  13  35
HETATM   35  C   UNL     1      15.487  37.972   2.779  1.00  0.00     0.014 C 
HETATM   36  C   UNL     1      15.291  39.490   2.765  1.00  0.00     0.012 C 
BRANCH  35  37
HETATM   37  C   UNL     1      14.174  37.274   2.382  1.00  0.00     0.002 C 
HETATM   38  C   UNL     1      13.575  37.795   1.084  1.00  0.00     0.005 C 
ENDBRANCH  35  37
ENDBRANCH  13  35
BRANCH  17  39
HETATM   39  C   UNL     1      21.961  37.570  -3.884  1.00  0.00     0.016 C 
HETATM   40  C   UNL     1      21.444  36.805  -5.100  1.00  0.00     0.012 C 
HETATM   41  C   UNL     1      23.487  37.531  -3.835  1.00  0.00     0.012 C 
ENDBRANCH  17  39
BRANCH  18  42
HETATM   42  C   UNL     1      20.764  37.185   3.376  1.00  0.00     0.016 C 
HETATM   43  C   UNL     1      20.152  35.785   3.423  1.00  0.00     0.012 C 
HETATM   44  C   UNL     1      22.283  37.110   3.511  1.00  0.00     0.012 C 
ENDBRANCH  18  42
BRANCH  16  45
HETATM   45  C   UNL     1      19.541  40.713  -1.241  1.00  0.00     0.010 C 
HETATM   46  C   UNL     1      18.096  40.380  -1.611  1.00  0.00     0.012 C 
HETATM   47  C   UNL     1      20.391  40.873  -2.501  1.00  0.00     0.012 C 
ENDBRANCH  16  45
TORSDOF 8
ENDMDL
MODEL 4
REMARK VINA RESULT:    -5.604      3.658      8.183
REMARK INTER + INTRA:          -7.480
REMARK INTER:                  -7.832
REMARK INTRA:                   0.352
REMARK UNBOUND:                 0.745
REMARK  8 active torsions:
REMARK  status: ('A' for Active; 'I' for Inactive)
REMARK    1  A    between atoms: C_13  and  C_15 
REMARK    2  A    between atoms: C_14  and  C_16 
REMARK    3  A    between atoms: C_15  and  C_22 
REMARK    4  A    between atoms: C_16  and  C_23 
REMARK    5  A    between atoms: C_17  and  C_21 
REMARK    6  A    between atoms: C_18  and  C_24 
REMARK    7  A    between atoms: C_19  and  C_27 
REMARK    8  A    between atoms: C_20  and  C_30 
ROOT
HETATM    1  O   UNL     1      17.555  36.147   0.675  1.00  0.00    -0.304 OA
HETATM    2  O   UNL     1      14.892  40.191   0.672  1.00  0.00    -0.304 OA
HETATM    3  O   UNL     1      18.852  41.052   0.537  1.00  0.00    -0.304 OA
HETATM    4  O   UNL     1      16.706  38.093  -0.885  1.00  0.00    -0.270 OA
HETATM    5  O   UNL     1      17.263  37.323   2.640  1.00  0.00    -0.263 OA
HETATM    6  O   UNL     1      19.848  38.737  -0.066  1.00  0.00    -0.270 OA
HETATM    7  O   UNL     1      13.225  41.195  -0.557  1.00  0.00    -0.263 OA
HETATM    8  O   UNL     1      13.956  43.399   1.521  1.00  0.00    -0.270 OA
HETATM    9  O   UNL     1      18.349  42.905   1.816  1.00  0.00    -0.263 OA
HETATM   10  N   UNL     1      14.447  37.823  -0.433  1.00  0.00    -0.340 N 
HETATM   11  N   UNL     1      19.906  38.150   2.178  1.00  0.00    -0.340 N 
HETATM   12  N   UNL     1      15.973  43.190   0.397  1.00  0.00    -0.340 N 
HETATM   13  C   UNL     1      14.082  39.019  -1.228  1.00  0.00     0.190 C 
HETATM   14  C   UNL     1      19.502  36.766   1.861  1.00  0.00     0.190 C 
HETATM   15  C   UNL     1      16.138  36.162   0.412  1.00  0.00     0.227 C 
HETATM   16  C   UNL     1      17.050  42.358  -0.181  1.00  0.00     0.190 C 
HETATM   17  C   UNL     1      19.817  40.551   1.487  1.00  0.00     0.227 C 
HETATM   18  C   UNL     1      14.987  41.230   1.651  1.00  0.00     0.227 C 
HETATM   19  C   UNL     1      15.796  37.445  -0.355  1.00  0.00     0.250 C 
HETATM   20  C   UNL     1      17.981  36.791   1.803  1.00  0.00     0.283 C 
HETATM   21  C   UNL     1      19.887  39.073   1.123  1.00  0.00     0.250 C 
HETATM   22  C   UNL     1      13.967  40.249  -0.327  1.00  0.00     0.283 C 
HETATM   23  C   UNL     1      14.912  42.697   1.172  1.00  0.00     0.250 C 
HETATM   24  C   UNL     1      18.146  42.175   0.858  1.00  0.00     0.283 C 
HETATM   25  C   UNL     1      13.355  37.157   0.285  1.00  0.00     0.153 C 
HETATM   26  C   UNL     1      20.158  38.513   3.574  1.00  0.00     0.153 C 
HETATM   27  C   UNL     1      16.018  44.629   0.138  1.00  0.00     0.153 C 
ENDROOT
BRANCH  15  28
HETATM   28  C   UNL     1      15.830  34.941  -0.445  1.00  0.00     0.016 C 
HETATM   29  C   UNL     1      17.012  34.611  -1.356  1.00  0.00     0.012 C 
HETATM   30  C   UNL     1      15.479  33.741   0.432  1.00  0.00     0.012 C 
ENDBRANCH  15  28
BRANCH  14  31
HETATM   31  C   UNL     1      19.963  35.684   2.829  1.00  0.00     0.014 C 
HETATM   32  C   UNL     1      19.002  34.494   2.769  1.00  0.00     0.012 C 
BRANCH  31  33
HETATM   33  C   UNL     1      21.398  35.211   2.538  1.00  0.00     0.002 C 
HETATM   34  C   UNL     1      21.495  33.729   2.204  1.00  0.00     0.005 C 
ENDBRANCH  31  33
ENDBRANCH  14  31
BRANCH  13  35
HETATM   35  C   UNL     1      12.823  38.825  -2.073  1.00  0.00     0.014 C 
HETATM   36  C   UNL     1      12.730  39.931  -3.127  1.00  0.00     0.012 C 
BRANCH  35  37
HETATM   37  C   UNL     1      12.784  37.448  -2.760  1.00  0.00     0.002 C 
HETATM   38  C   UNL     1      12.219  37.488  -4.172  1.00  0.00     0.005 C 
ENDBRANCH  35  37
ENDBRANCH  13  35
BRANCH  17  39
HETATM   39  C   UNL     1      21.161  41.222   1.274  1.00  0.00     0.016 C 
HETATM   40  C   UNL     1      22.222  40.191   0.895  1.00  0.00     0.012 C 
HETATM   41  C   UNL     1      21.582  41.990   2.525  1.00  0.00     0.012 C 
ENDBRANCH  17  39
BRANCH  18  42
HETATM   42  C   UNL     1      13.944  40.941   2.732  1.00  0.00     0.016 C 
HETATM   43  C   UNL     1      13.728  39.435   2.885  1.00  0.00     0.012 C 
HETATM   44  C   UNL     1      14.361  41.560   4.064  1.00  0.00     0.012 C 
ENDBRANCH  18  42
BRANCH  16  45
HETATM   45  C   UNL     1      17.647  42.885  -1.484  1.00  0.00     0.010 C 
HETATM   46  C   UNL     1      17.543  41.836  -2.590  1.00  0.00     0.012 C 
HETATM   47  C   UNL     1      19.102  43.306  -1.282  1.00  0.00     0.012 C 
ENDBRANCH  16  45
TORSDOF 8
ENDMDL
MODEL 5
REMARK VINA RESULT:    -5.271      2.178      3.508
REMARK INTER + INTRA:          -6.991
REMARK INTER:                  -7.688
REMARK INTRA:                   0.697
REMARK UNBOUND:                 0.745
REMARK  8 active torsions:
REMARK  status: ('A' for Active; 'I' for Inactive)
REMARK    1  A    between atoms: C_13  and  C_15 
REMARK    2  A    between atoms: C_14  and  C_16 
REMARK    3  A    between atoms: C_15  and  C_22 
REMARK    4  A    between atoms: C_16  and  C_23 
REMARK    5  A    between atoms: C_17  and  C_21 
REMARK    6  A    between atoms: C_18  and  C_24 
REMARK    7  A    between atoms: C_19  and  C_27 
REMARK    8  A    between atoms: C_20  and  C_30 
ROOT
HETATM    1  O   UNL     1      16.212  36.107   0.654  1.00  0.00    -0.304 OA
HETATM    2  O   UNL     1      20.874  35.958  -0.651  1.00  0.00    -0.304 OA
HETATM    3  O   UNL     1      20.100  39.223   1.626  1.00  0.00    -0.304 OA
HETATM    4  O   UNL     1      18.627  35.588   1.571  1.00  0.00    -0.270 OA
HETATM    5  O   UNL     1      16.943  37.392  -1.119  1.00  0.00    -0.263 OA
HETATM    6  O   UNL     1      17.775  38.617   2.597  1.00  0.00    -0.270 OA
HETATM    7  O   UNL     1      22.700  34.567  -0.484  1.00  0.00    -0.263 OA
HETATM    8  O   UNL     1      23.916  37.134  -1.767  1.00  0.00    -0.270 OA
HETATM    9  O   UNL     1      21.668  40.319   0.338  1.00  0.00    -0.263 OA
HETATM   10  N   UNL     1      19.183  34.011  -0.037  1.00  0.00    -0.340 N 
HETATM   11  N   UNL     1      16.734  39.501   0.721  1.00  0.00    -0.340 N 
HETATM   12  N   UNL     1      23.178  37.982   0.260  1.00  0.00    -0.340 N 
HETATM   13  C   UNL     1      20.569  33.888   0.473  1.00  0.00     0.190 C 
HETATM   14  C   UNL     1      15.730  38.419   0.727  1.00  0.00     0.190 C 
HETATM   15  C   UNL     1      16.846  34.932   0.111  1.00  0.00     0.227 C 
HETATM   16  C   UNL     1      22.137  38.121   1.300  1.00  0.00     0.190 C 
HETATM   17  C   UNL     1      19.061  40.181   1.331  1.00  0.00     0.227 C 
HETATM   18  C   UNL     1      21.546  36.981  -1.391  1.00  0.00     0.227 C 
HETATM   19  C   UNL     1      18.294  34.880   0.613  1.00  0.00     0.250 C 
HETATM   20  C   UNL     1      16.369  37.272  -0.045  1.00  0.00     0.283 C 
HETATM   21  C   UNL     1      17.797  39.385   1.629  1.00  0.00     0.250 C 
HETATM   22  C   UNL     1      21.511  34.804  -0.307  1.00  0.00     0.283 C 
HETATM   23  C   UNL     1      22.988  37.353  -0.981  1.00  0.00     0.250 C 
HETATM   24  C   UNL     1      21.310  39.364   1.011  1.00  0.00     0.283 C 
HETATM   25  C   UNL     1      18.864  33.252  -1.251  1.00  0.00     0.153 C 
HETATM   26  C   UNL     1      16.650  40.542  -0.306  1.00  0.00     0.153 C 
HETATM   27  C   UNL     1      24.500  38.540   0.547  1.00  0.00     0.153 C 
ENDROOT
BRANCH  15  28
HETATM   28  C   UNL     1      16.069  33.728   0.628  1.00  0.00     0.016 C 
HETATM   29  C   UNL     1      15.271  34.097   1.877  1.00  0.00     0.012 C 
HETATM   30  C   UNL     1      15.143  33.178  -0.455  1.00  0.00     0.012 C 
ENDBRANCH  15  28
BRANCH  14  31
HETATM   31  C   UNL     1      14.371  38.749   0.126  1.00  0.00     0.014 C 
HETATM   32  C   UNL     1      13.764  37.491  -0.501  1.00  0.00     0.012 C 
BRANCH  31  33
HETATM   33  C   UNL     1      13.399  39.336   1.165  1.00  0.00     0.002 C 
HETATM   34  C   UNL     1      13.392  38.580   2.487  1.00  0.00     0.005 C 
ENDBRANCH  31  33
ENDBRANCH  14  31
BRANCH  13  35
HETATM   35  C   UNL     1      21.081  32.449   0.499  1.00  0.00     0.014 C 
HETATM   36  C   UNL     1      21.760  32.116  -0.832  1.00  0.00     0.012 C 
BRANCH  35  37
HETATM   37  C   UNL     1      22.059  32.194   1.660  1.00  0.00     0.002 C 
HETATM   38  C   UNL     1      23.322  31.455   1.242  1.00  0.00     0.005 C 
ENDBRANCH  35  37
ENDBRANCH  13  35
BRANCH  17  39
HETATM   39  C   UNL     1      19.173  41.378   2.257  1.00  0.00     0.016 C 
HETATM   40  C   UNL     1      17.834  41.661   2.933  1.00  0.00     0.012 C 
HETATM   41  C   UNL     1      19.658  42.607   1.490  1.00  0.00     0.012 C 
ENDBRANCH  17  39
BRANCH  18  42
HETATM   42  C   UNL     1      21.463  36.609  -2.872  1.00  0.00     0.016 C 
HETATM   43  C   UNL     1      20.130  35.930  -3.185  1.00  0.00     0.012 C 
HETATM   44  C   UNL     1      21.655  37.843  -3.750  1.00  0.00     0.012 C 
ENDBRANCH  18  42
BRANCH  16  45
HETATM   45  C   UNL     1      22.657  38.160   2.735  1.00  0.00     0.010 C 
HETATM   46  C   UNL     1      21.950  37.113   3.595  1.00  0.00     0.012 C 
HETATM   47  C   UNL     1      22.480  39.553   3.337  1.00  0.00     0.012 C 
ENDBRANCH  16  45
TORSDOF 8
ENDMDL
MODEL 6
REMARK VINA RESULT:    -5.257      2.706      6.477
REMARK INTER + INTRA:          -6.971
REMARK INTER:                  -7.520
REMARK INTRA:                   0.549
REMARK UNBOUND:                 0.745
REMARK  8 active torsions:
REMARK  status: ('A' for Active; 'I' for Inactive)
REMARK    1  A    between atoms: C_13  and  C_15 
REMARK    2  A    between atoms: C_14  and  C_16 
REMARK    3  A    between atoms: C_15  and  C_22 
REMARK    4  A    between atoms: C_16  and  C_23 
REMARK    5  A    between atoms: C_17  and  C_21 
REMARK    6  A    between atoms: C_18  and  C_24 
REMARK    7  A    between atoms: C_19  and  C_27 
REMARK    8  A    between atoms: C_20  and  C_30 
ROOT
HETATM    1  O   UNL     1      16.898  38.804  -1.804  1.00  0.00    -0.304 OA
HETATM    2  O   UNL     1      20.795  37.833   0.901  1.00  0.00    -0.304 OA
HETATM    3  O   UNL     1      18.839  34.429  -0.114  1.00  0.00    -0.304 OA
HETATM    4  O   UNL     1      19.356  37.865  -1.936  1.00  0.00    -0.270 OA
HETATM    5  O   UNL     1      16.647  38.395   0.453  1.00  0.00    -0.263 OA
HETATM    6  O   UNL     1      17.275  35.291  -1.992  1.00  0.00    -0.270 OA
HETATM    7  O   UNL     1      23.073  38.167   0.883  1.00  0.00    -0.263 OA
HETATM    8  O   UNL     1      22.676  36.327   3.368  1.00  0.00    -0.270 OA
HETATM    9  O   UNL     1      19.468  33.619   1.952  1.00  0.00    -0.263 OA
HETATM   10  N   UNL     1      20.387  39.691  -0.945  1.00  0.00    -0.340 N 
HETATM   11  N   UNL     1      15.684  35.906  -0.418  1.00  0.00    -0.340 N 
HETATM   12  N   UNL     1      21.905  34.935   1.682  1.00  0.00    -0.340 N 
HETATM   13  C   UNL     1      21.709  39.021  -0.941  1.00  0.00     0.190 C 
HETATM   14  C   UNL     1      15.356  37.128  -1.177  1.00  0.00     0.190 C 
HETATM   15  C   UNL     1      17.946  39.762  -1.552  1.00  0.00     0.227 C 
HETATM   16  C   UNL     1      21.086  34.701   0.473  1.00  0.00     0.190 C 
HETATM   17  C   UNL     1      17.434  34.206   0.130  1.00  0.00     0.227 C 
HETATM   18  C   UNL     1      20.766  37.142   2.153  1.00  0.00     0.227 C 
HETATM   19  C   UNL     1      19.285  39.017  -1.493  1.00  0.00     0.250 C 
HETATM   20  C   UNL     1      16.362  38.174  -0.716  1.00  0.00     0.283 C 
HETATM   21  C   UNL     1      16.781  35.156  -0.866  1.00  0.00     0.250 C 
HETATM   22  C   UNL     1      21.959  38.335   0.402  1.00  0.00     0.283 C 
HETATM   23  C   UNL     1      21.879  36.112   2.448  1.00  0.00     0.250 C 
HETATM   24  C   UNL     1      19.724  34.171   0.892  1.00  0.00     0.283 C 
HETATM   25  C   UNL     1      20.318  41.005  -0.296  1.00  0.00     0.153 C 
HETATM   26  C   UNL     1      14.957  35.624   0.822  1.00  0.00     0.153 C 
HETATM   27  C   UNL     1      22.806  33.864   2.107  1.00  0.00     0.153 C 
ENDROOT
BRANCH  15  28
HETATM   28  C   UNL     1      17.943  40.743  -2.717  1.00  0.00     0.016 C 
HETATM   29  C   UNL     1      17.219  40.147  -3.923  1.00  0.00     0.012 C 
HETATM   30  C   UNL     1      17.298  42.065  -2.306  1.00  0.00     0.012 C 
ENDBRANCH  15  28
BRANCH  14  31
HETATM   31  C   UNL     1      13.942  37.670  -1.017  1.00  0.00     0.014 C 
HETATM   32  C   UNL     1      13.942  39.186  -1.227  1.00  0.00     0.012 C 
BRANCH  31  33
HETATM   33  C   UNL     1      12.949  37.008  -1.990  1.00  0.00     0.002 C 
HETATM   34  C   UNL     1      12.285  37.991  -2.945  1.00  0.00     0.005 C 
ENDBRANCH  31  33
ENDBRANCH  14  31
BRANCH  13  35
HETATM   35  C   UNL     1      22.861  39.951  -1.318  1.00  0.00     0.014 C 
HETATM   36  C   UNL     1      24.130  39.131  -1.564  1.00  0.00     0.012 C 
BRANCH  35  37
HETATM   37  C   UNL     1      22.545  40.805  -2.559  1.00  0.00     0.002 C 
HETATM   38  C   UNL     1      23.027  42.244  -2.447  1.00  0.00     0.005 C 
ENDBRANCH  35  37
ENDBRANCH  13  35
BRANCH  17  39
HETATM   39  C   UNL     1      17.069  32.766  -0.182  1.00  0.00     0.016 C 
HETATM   40  C   UNL     1      17.775  32.296  -1.451  1.00  0.00     0.012 C 
HETATM   41  C   UNL     1      15.556  32.614  -0.321  1.00  0.00     0.012 C 
ENDBRANCH  17  39
BRANCH  18  42
HETATM   42  C   UNL     1      20.673  38.195   3.258  1.00  0.00     0.016 C 
HETATM   43  C   UNL     1      19.675  39.290   2.879  1.00  0.00     0.012 C 
HETATM   44  C   UNL     1      20.281  37.551   4.587  1.00  0.00     0.012 C 
ENDBRANCH  18  42
BRANCH  16  45
HETATM   45  C   UNL     1      21.714  33.769  -0.562  1.00  0.00     0.010 C 
HETATM   46  C   UNL     1      21.496  34.308  -1.976  1.00  0.00     0.012 C 
HETATM   47  C   UNL     1      21.144  32.357  -0.436  1.00  0.00     0.012 C 
ENDBRANCH  16  45
TORSDOF 8
ENDMDL
MODEL 7
REMARK VINA RESULT:    -5.203      1.354      1.758
REMARK INTER + INTRA:          -6.891
REMARK INTER:                  -7.571
REMARK INTRA:                   0.679
REMARK UNBOUND:                 0.745
REMARK  8 active torsions:
REMARK  status: ('A' for Active; 'I' for Inactive)
REMARK    1  A    between atoms: C_13  and  C_15 
REMARK    2  A    between atoms: C_14  and  C_16 
REMARK    3  A    between atoms: C_15  and  C_22 
REMARK    4  A    between atoms: C_16  and  C_23 
REMARK    5  A    between atoms: C_17  and  C_21 
REMARK    6  A    between atoms: C_18  and  C_24 
REMARK    7  A    between atoms: C_19  and  C_27 
REMARK    8  A    between atoms: C_20  and  C_30 
ROOT
HETATM    1  O   UNL     1      17.581  34.587   0.161  1.00  0.00    -0.304 OA
HETATM    2  O   UNL     1      21.923  34.715  -1.979  1.00  0.00    -0.304 OA
HETATM    3  O   UNL     1      22.034  36.511   1.655  1.00  0.00    -0.304 OA
HETATM    4  O   UNL     1      19.977  33.494   0.222  1.00  0.00    -0.270 OA
HETATM    5  O   UNL     1      18.264  36.508  -0.921  1.00  0.00    -0.263 OA
HETATM    6  O   UNL     1      19.799  35.699   2.684  1.00  0.00    -0.270 OA
HETATM    7  O   UNL     1      23.494  33.277  -2.850  1.00  0.00    -0.263 OA
HETATM    8  O   UNL     1      24.935  36.036  -3.015  1.00  0.00    -0.270 OA
HETATM    9  O   UNL     1      23.570  37.965   0.733  1.00  0.00    -0.263 OA
HETATM   10  N   UNL     1      20.031  32.859  -2.009  1.00  0.00    -0.340 N 
HETATM   11  N   UNL     1      18.671  37.465   1.686  1.00  0.00    -0.340 N 
HETATM   12  N   UNL     1      24.639  35.848  -0.723  1.00  0.00    -0.340 N 
HETATM   13  C   UNL     1      21.434  32.393  -1.907  1.00  0.00     0.190 C 
HETATM   14  C   UNL     1      17.510  36.602   1.393  1.00  0.00     0.190 C 
HETATM   15  C   UNL     1      17.926  33.777  -0.980  1.00  0.00     0.227 C 
HETATM   16  C   UNL     1      23.791  35.547   0.450  1.00  0.00     0.190 C 
HETATM   17  C   UNL     1      21.141  37.572   2.055  1.00  0.00     0.227 C 
HETATM   18  C   UNL     1      22.649  35.911  -2.279  1.00  0.00     0.227 C 
HETATM   19  C   UNL     1      19.400  33.371  -0.865  1.00  0.00     0.250 C 
HETATM   20  C   UNL     1      17.833  35.928   0.066  1.00  0.00     0.283 C 
HETATM   21  C   UNL     1      19.815  36.837   2.199  1.00  0.00     0.250 C 
HETATM   22  C   UNL     1      22.399  33.493  -2.347  1.00  0.00     0.283 C 
HETATM   23  C   UNL     1      24.176  35.919  -2.047  1.00  0.00     0.250 C 
HETATM   24  C   UNL     1      23.154  36.835   0.945  1.00  0.00     0.283 C 
HETATM   25  C   UNL     1      19.423  32.815  -3.343  1.00  0.00     0.153 C 
HETATM   26  C   UNL     1      18.621  38.877   1.299  1.00  0.00     0.153 C 
HETATM   27  C   UNL     1      26.063  36.086  -0.485  1.00  0.00     0.153 C 
ENDROOT
BRANCH  15  28
HETATM   28  C   UNL     1      17.037  32.541  -0.935  1.00  0.00     0.016 C 
HETATM   29  C   UNL     1      16.078  32.611   0.252  1.00  0.00     0.012 C 
HETATM   30  C   UNL     1      16.261  32.386  -2.241  1.00  0.00     0.012 C 
ENDBRANCH  15  28
BRANCH  14  31
HETATM   31  C   UNL     1      16.155  37.291   1.304  1.00  0.00     0.014 C 
HETATM   32  C   UNL     1      15.201  36.447   0.455  1.00  0.00     0.012 C 
BRANCH  31  33
HETATM   33  C   UNL     1      15.535  37.545   2.689  1.00  0.00     0.002 C 
HETATM   34  C   UNL     1      15.291  39.018   2.987  1.00  0.00     0.005 C 
ENDBRANCH  31  33
ENDBRANCH  14  31
BRANCH  13  35
HETATM   35  C   UNL     1      21.695  31.086  -2.655  1.00  0.00     0.014 C 
HETATM   36  C   UNL     1      22.332  31.386  -4.015  1.00  0.00     0.012 C 
BRANCH  35  37
HETATM   37  C   UNL     1      22.595  30.123  -1.860  1.00  0.00     0.002 C 
HETATM   38  C   UNL     1      22.675  30.451  -0.376  1.00  0.00     0.005 C 
ENDBRANCH  35  37
ENDBRANCH  13  35
BRANCH  17  39
HETATM   39  C   UNL     1      21.581  38.154   3.386  1.00  0.00     0.016 C 
HETATM   40  C   UNL     1      20.576  37.807   4.482  1.00  0.00     0.012 C 
HETATM   41  C   UNL     1      21.756  39.667   3.279  1.00  0.00     0.012 C 
ENDBRANCH  17  39
BRANCH  18  42
HETATM   42  C   UNL     1      22.299  36.314  -3.713  1.00  0.00     0.016 C 
HETATM   43  C   UNL     1      20.840  35.983  -4.027  1.00  0.00     0.012 C 
HETATM   44  C   UNL     1      22.571  37.800  -3.937  1.00  0.00     0.012 C 
ENDBRANCH  18  42
BRANCH  16  45
HETATM   45  C   UNL     1      24.505  34.840   1.600  1.00  0.00     0.010 C 
HETATM   46  C   UNL     1      23.756  33.571   2.004  1.00  0.00     0.012 C 
HETATM   47  C   UNL     1      24.656  35.776   2.800  1.00  0.00     0.012 C 
ENDBRANCH  16  45
TORSDOF 8
ENDMDL
MODEL 8
REMARK VINA RESULT:    -5.193      2.244      7.018
REMARK INTER + INTRA:          -6.876
REMARK INTER:                  -7.155
REMARK INTRA:                   0.279
REMARK UNBOUND:                 0.745
REMARK  8 active torsions:
REMARK  status: ('A' for Active; 'I' for Inactive)
REMARK    1  A    between atoms: C_13  and  C_15 
REMARK    2  A    between atoms: C_14  and  C_16 
REMARK    3  A    between atoms: C_15  and  C_22 
REMARK    4  A    between atoms: C_16  and  C_23 
REMARK    5  A    between atoms: C_17  and  C_21 
REMARK    6  A    between atoms: C_18  and  C_24 
REMARK    7  A    between atoms: C_19  and  C_27 
REMARK    8  A    between atoms: C_20  and  C_30 
ROOT
HETATM    1  O   UNL     1      20.290  33.589  -3.039  1.00  0.00    -0.304 OA
HETATM    2  O   UNL     1      19.526  36.035   1.069  1.00  0.00    -0.304 OA
HETATM    3  O   UNL     1      20.466  38.547  -1.970  1.00  0.00    -0.304 OA
HETATM    4  O   UNL     1      18.541  35.134  -1.818  1.00  0.00    -0.270 OA
HETATM    5  O   UNL     1      22.090  34.284  -1.773  1.00  0.00    -0.263 OA
HETATM    6  O   UNL     1      20.178  36.987  -4.019  1.00  0.00    -0.270 OA
HETATM    7  O   UNL     1      17.880  36.344   2.649  1.00  0.00    -0.263 OA
HETATM    8  O   UNL     1      20.060  38.390   3.530  1.00  0.00    -0.270 OA
HETATM    9  O   UNL     1      21.544  39.833  -0.387  1.00  0.00    -0.263 OA
HETATM   10  N   UNL     1      18.363  33.855   0.109  1.00  0.00    -0.340 N 
HETATM   11  N   UNL     1      22.358  36.229  -3.780  1.00  0.00    -0.340 N 
HETATM   12  N   UNL     1      19.529  39.214   1.429  1.00  0.00    -0.340 N 
HETATM   13  C   UNL     1      17.488  34.854   0.766  1.00  0.00     0.190 C 
HETATM   14  C   UNL     1      21.955  34.855  -4.137  1.00  0.00     0.190 C 
HETATM   15  C   UNL     1      19.651  33.014  -1.882  1.00  0.00     0.227 C 
HETATM   16  C   UNL     1      19.274  39.009  -0.013  1.00  0.00     0.190 C 
HETATM   17  C   UNL     1      21.648  38.412  -2.790  1.00  0.00     0.227 C 
HETATM   18  C   UNL     1      20.485  36.890   1.699  1.00  0.00     0.227 C 
HETATM   19  C   UNL     1      18.809  34.098  -1.199  1.00  0.00     0.250 C 
HETATM   20  C   UNL     1      21.485  34.220  -2.835  1.00  0.00     0.283 C 
HETATM   21  C   UNL     1      21.329  37.167  -3.607  1.00  0.00     0.250 C 
HETATM   22  C   UNL     1      18.313  35.797   1.642  1.00  0.00     0.283 C 
HETATM   23  C   UNL     1      19.990  38.221   2.308  1.00  0.00     0.250 C 
HETATM   24  C   UNL     1      20.573  39.204  -0.779  1.00  0.00     0.283 C 
HETATM   25  C   UNL     1      18.762  32.701   0.921  1.00  0.00     0.153 C 
HETATM   26  C   UNL     1      23.767  36.502  -3.487  1.00  0.00     0.153 C 
HETATM   27  C   UNL     1      19.280  40.547   1.977  1.00  0.00     0.153 C 
ENDROOT
BRANCH  15  28
HETATM   28  C   UNL     1      18.753  31.889  -2.382  1.00  0.00     0.016 C 
HETATM   29  C   UNL     1      17.507  32.455  -3.060  1.00  0.00     0.012 C 
HETATM   30  C   UNL     1      19.515  30.976  -3.340  1.00  0.00     0.012 C 
ENDBRANCH  15  28
BRANCH  14  31
HETATM   31  C   UNL     1      23.021  33.979  -4.782  1.00  0.00     0.014 C 
HETATM   32  C   UNL     1      22.670  32.503  -4.578  1.00  0.00     0.012 C 
BRANCH  31  33
HETATM   33  C   UNL     1      23.191  34.273  -6.283  1.00  0.00     0.002 C 
HETATM   34  C   UNL     1      24.633  34.543  -6.692  1.00  0.00     0.005 C 
ENDBRANCH  31  33
ENDBRANCH  14  31
BRANCH  13  35
HETATM   35  C   UNL     1      16.334  34.228   1.549  1.00  0.00     0.014 C 
HETATM   36  C   UNL     1      15.284  35.296   1.867  1.00  0.00     0.012 C 
BRANCH  35  37
HETATM   37  C   UNL     1      15.676  33.061   0.792  1.00  0.00     0.002 C 
HETATM   38  C   UNL     1      14.912  33.494  -0.451  1.00  0.00     0.005 C 
ENDBRANCH  35  37
ENDBRANCH  13  35
BRANCH  17  39
HETATM   39  C   UNL     1      21.802  39.622  -3.692  1.00  0.00     0.016 C 
HETATM   40  C   UNL     1      21.732  39.210  -5.160  1.00  0.00     0.012 C 
HETATM   41  C   UNL     1      23.116  40.345  -3.400  1.00  0.00     0.012 C 
ENDBRANCH  17  39
BRANCH  18  42
HETATM   42  C   UNL     1      21.243  36.051   2.729  1.00  0.00     0.016 C 
HETATM   43  C   UNL     1      21.458  34.628   2.215  1.00  0.00     0.012 C 
HETATM   44  C   UNL     1      22.580  36.702   3.076  1.00  0.00     0.012 C 
ENDBRANCH  18  42
BRANCH  16  45
HETATM   45  C   UNL     1      18.178  39.890  -0.608  1.00  0.00     0.010 C 
HETATM   46  C   UNL     1      17.116  39.038  -1.303  1.00  0.00     0.012 C 
HETATM   47  C   UNL     1      18.770  40.905  -1.584  1.00  0.00     0.012 C 
ENDBRANCH  16  45
TORSDOF 8
ENDMDL
MODEL 9
REMARK VINA RESULT:    -4.972      2.407      7.040
REMARK INTER + INTRA:          -6.553
REMARK INTER:                  -7.244
REMARK INTRA:                   0.692
REMARK UNBOUND:                 0.745
REMARK  8 active torsions:
REMARK  status: ('A' for Active; 'I' for Inactive)
REMARK    1  A    between atoms: C_13  and  C_15 
REMARK    2  A    between atoms: C_14  and  C_16 
REMARK    3  A    between atoms: C_15  and  C_22 
REMARK    4  A    between atoms: C_16  and  C_23 
REMARK    5  A    between atoms: C_17  and  C_21 
REMARK    6  A    between atoms: C_18  and  C_24 
REMARK    7  A    between atoms: C_19  and  C_27 
REMARK    8  A    between atoms: C_20  and  C_30 
ROOT
HETATM    1  O   UNL     1      16.351  36.226   0.226  1.00  0.00    -0.304 OA
HETATM    2  O   UNL     1      20.110  38.987   1.528  1.00  0.00    -0.304 OA
HETATM    3  O   UNL     1      21.017  36.720  -1.709  1.00  0.00    -0.304 OA
HETATM    4  O   UNL     1      17.696  38.386  -0.454  1.00  0.00    -0.270 OA
HETATM    5  O   UNL     1      18.062  35.309   1.474  1.00  0.00    -0.263 OA
HETATM    6  O   UNL     1      18.663  35.916  -2.434  1.00  0.00    -0.270 OA
HETATM    7  O   UNL     1      20.634  41.206   1.842  1.00  0.00    -0.263 OA
HETATM    8  O   UNL     1      23.392  39.800   2.204  1.00  0.00    -0.270 OA
HETATM    9  O   UNL     1      23.155  36.601  -0.851  1.00  0.00    -0.263 OA
HETATM   10  N   UNL     1      17.504  39.467   1.589  1.00  0.00    -0.340 N 
HETATM   11  N   UNL     1      18.794  34.126  -0.964  1.00  0.00    -0.340 N 
HETATM   12  N   UNL     1      22.914  39.237   0.007  1.00  0.00    -0.340 N 
HETATM   13  C   UNL     1      18.386  40.576   1.156  1.00  0.00     0.190 C 
HETATM   14  C   UNL     1      17.367  34.265  -0.614  1.00  0.00     0.190 C 
HETATM   15  C   UNL     1      16.239  37.342   1.132  1.00  0.00     0.227 C 
HETATM   16  C   UNL     1      21.981  38.737  -1.025  1.00  0.00     0.190 C 
HETATM   17  C   UNL     1      20.863  35.285  -1.755  1.00  0.00     0.227 C 
HETATM   18  C   UNL     1      21.402  38.487   1.888  1.00  0.00     0.227 C 
HETATM   19  C   UNL     1      17.213  38.437   0.683  1.00  0.00     0.250 C 
HETATM   20  C   UNL     1      17.324  35.305   0.498  1.00  0.00     0.283 C 
HETATM   21  C   UNL     1      19.348  35.126  -1.776  1.00  0.00     0.250 C 
HETATM   22  C   UNL     1      19.829  40.318   1.591  1.00  0.00     0.283 C 
HETATM   23  C   UNL     1      22.648  39.249   1.385  1.00  0.00     0.250 C 
HETATM   24  C   UNL     1      22.161  37.235  -1.171  1.00  0.00     0.283 C 
HETATM   25  C   UNL     1      17.055  39.498   2.985  1.00  0.00     0.153 C 
HETATM   26  C   UNL     1      19.576  33.055  -0.342  1.00  0.00     0.153 C 
HETATM   27  C   UNL     1      24.205  39.756  -0.444  1.00  0.00     0.153 C 
ENDROOT
BRANCH  15  28
HETATM   28  C   UNL     1      14.804  37.846   1.042  1.00  0.00     0.016 C 
HETATM   29  C   UNL     1      14.062  37.160  -0.103  1.00  0.00     0.012 C 
HETATM   30  C   UNL     1      14.070  37.625   2.363  1.00  0.00     0.012 C 
ENDBRANCH  15  28
BRANCH  14  31
HETATM   31  C   UNL     1      16.650  33.000  -0.163  1.00  0.00     0.014 C 
HETATM   32  C   UNL     1      15.629  33.343   0.924  1.00  0.00     0.012 C 
BRANCH  31  33
HETATM   33  C   UNL     1      15.949  32.279  -1.328  1.00  0.00     0.002 C 
HETATM   34  C   UNL     1      16.682  32.411  -2.656  1.00  0.00     0.005 C 
ENDBRANCH  31  33
ENDBRANCH  14  31
BRANCH  13  35
HETATM   35  C   UNL     1      17.901  41.952   1.612  1.00  0.00     0.014 C 
HETATM   36  C   UNL     1      18.610  42.347   2.910  1.00  0.00     0.012 C 
BRANCH  35  37
HETATM   37  C   UNL     1      18.126  43.038   0.545  1.00  0.00     0.002 C 
HETATM   38  C   UNL     1      18.162  42.497  -0.876  1.00  0.00     0.005 C 
ENDBRANCH  35  37
ENDBRANCH  13  35
BRANCH  17  39
HETATM   39  C   UNL     1      21.480  34.731  -3.026  1.00  0.00     0.016 C 
HETATM   40  C   UNL     1      20.413  34.070  -3.896  1.00  0.00     0.012 C 
HETATM   41  C   UNL     1      22.592  33.738  -2.694  1.00  0.00     0.012 C 
ENDBRANCH  17  39
BRANCH  18  42
HETATM   42  C   UNL     1      21.424  38.321   3.408  1.00  0.00     0.016 C 
HETATM   43  C   UNL     1      20.047  37.907   3.927  1.00  0.00     0.012 C 
HETATM   44  C   UNL     1      22.481  37.300   3.825  1.00  0.00     0.012 C 
ENDBRANCH  18  42
BRANCH  16  45
HETATM   45  C   UNL     1      22.102  39.414  -2.389  1.00  0.00     0.010 C 
HETATM   46  C   UNL     1      20.762  40.008  -2.819  1.00  0.00     0.012 C 
HETATM   47  C   UNL     1      22.610  38.426  -3.440  1.00  0.00     0.012 C 
ENDBRANCH  16  45
TORSDOF 8
ENDMDL
MODEL 10
REMARK VINA RESULT:    -4.898     15.130     18.905
REMARK INTER + INTRA:          -6.444
REMARK INTER:                  -6.976
REMARK INTRA:                   0.532
REMARK UNBOUND:                 0.745
REMARK  8 active torsions:
REMARK  status: ('A' for Active; 'I' for Inactive)
REMARK    1  A    between atoms: C_13  and  C_15 
REMARK    2  A    between atoms: C_14  and  C_16 
REMARK    3  A    between atoms: C_15  and  C_22 
REMARK    4  A    between atoms: C_16  and  C_23 
REMARK    5  A    between atoms: C_17  and  C_21 
REMARK    6  A    between atoms: C_18  and  C_24 
REMARK    7  A    between atoms: C_19  and  C_27 
REMARK    8  A    between atoms: C_20  and  C_30 
ROOT
HETATM    1  O   UNL     1       4.109  29.189  -3.290  1.00  0.00    -0.304 OA
HETATM    2  O   UNL     1       4.401  33.383  -5.694  1.00  0.00    -0.304 OA
HETATM    3  O   UNL     1       3.436  30.336  -8.189  1.00  0.00    -0.304 OA
HETATM    4  O   UNL     1       2.639  31.062  -4.418  1.00  0.00    -0.270 OA
HETATM    5  O   UNL     1       6.022  29.692  -4.480  1.00  0.00    -0.263 OA
HETATM    6  O   UNL     1       2.781  28.488  -6.494  1.00  0.00    -0.270 OA
HETATM    7  O   UNL     1       3.471  35.488  -5.672  1.00  0.00    -0.263 OA
HETATM    8  O   UNL     1       5.234  35.552  -8.241  1.00  0.00    -0.270 OA
HETATM    9  O   UNL     1       4.682  31.437  -9.788  1.00  0.00    -0.263 OA
HETATM   10  N   UNL     1       3.544  32.846  -3.244  1.00  0.00    -0.340 N 
HETATM   11  N   UNL     1       4.999  27.830  -6.316  1.00  0.00    -0.340 N 
HETATM   12  N   UNL     1       3.746  33.860  -8.789  1.00  0.00    -0.340 N 
HETATM   13  C   UNL     1       2.770  33.836  -4.029  1.00  0.00     0.190 C 
HETATM   14  C   UNL     1       4.848  27.593  -4.867  1.00  0.00     0.190 C 
HETATM   15  C   UNL     1       4.131  30.476  -2.640  1.00  0.00     0.227 C 
HETATM   16  C   UNL     1       3.016  32.621  -8.447  1.00  0.00     0.190 C 
HETATM   17  C   UNL     1       4.203  29.118  -8.306  1.00  0.00     0.227 C 
HETATM   18  C   UNL     1       5.281  33.632  -6.794  1.00  0.00     0.227 C 
HETATM   19  C   UNL     1       3.375  31.481  -3.517  1.00  0.00     0.250 C 
HETATM   20  C   UNL     1       5.091  28.944  -4.209  1.00  0.00     0.283 C 
HETATM   21  C   UNL     1       3.918  28.431  -6.977  1.00  0.00     0.250 C 
HETATM   22  C   UNL     1       3.604  34.368  -5.195  1.00  0.00     0.283 C 
HETATM   23  C   UNL     1       4.744  34.445  -7.992  1.00  0.00     0.250 C 
HETATM   24  C   UNL     1       3.825  31.423  -8.917  1.00  0.00     0.283 C 
HETATM   25  C   UNL     1       4.500  33.387  -2.272  1.00  0.00     0.153 C 
HETATM   26  C   UNL     1       6.295  27.568  -6.947  1.00  0.00     0.153 C 
HETATM   27  C   UNL     1       3.403  34.523 -10.047  1.00  0.00     0.153 C 
ENDROOT
BRANCH  15  28
HETATM   28  C   UNL     1       3.423  30.310  -1.301  1.00  0.00     0.016 C 
HETATM   29  C   UNL     1       2.680  28.977  -1.246  1.00  0.00     0.012 C 
HETATM   30  C   UNL     1       4.418  30.417  -0.147  1.00  0.00     0.012 C 
ENDBRANCH  15  28
BRANCH  14  31
HETATM   31  C   UNL     1       5.766  26.547  -4.249  1.00  0.00     0.014 C 
HETATM   32  C   UNL     1       6.851  27.237  -3.419  1.00  0.00     0.012 C 
BRANCH  31  33
HETATM   33  C   UNL     1       4.999  25.540  -3.374  1.00  0.00     0.002 C 
HETATM   34  C   UNL     1       3.487  25.711  -3.430  1.00  0.00     0.005 C 
ENDBRANCH  31  33
ENDBRANCH  14  31
BRANCH  13  35
HETATM   35  C   UNL     1       2.203  34.974  -3.181  1.00  0.00     0.014 C 
HETATM   36  C   UNL     1       1.029  35.631  -3.912  1.00  0.00     0.012 C 
BRANCH  35  37
HETATM   37  C   UNL     1       1.750  34.500  -1.789  1.00  0.00     0.002 C 
HETATM   38  C   UNL     1       1.789  35.592  -0.730  1.00  0.00     0.005 C 
ENDBRANCH  35  37
ENDBRANCH  13  35
BRANCH  17  39
HETATM   39  C   UNL     1       3.690  28.283  -9.464  1.00  0.00     0.016 C 
HETATM   40  C   UNL     1       3.145  26.948  -8.964  1.00  0.00     0.012 C 
HETATM   41  C   UNL     1       4.795  28.060 -10.496  1.00  0.00     0.012 C 
ENDBRANCH  17  39
BRANCH  18  42
HETATM   42  C   UNL     1       6.562  34.248  -6.229  1.00  0.00     0.016 C 
HETATM   43  C   UNL     1       7.025  33.489  -4.986  1.00  0.00     0.012 C 
HETATM   44  C   UNL     1       7.664  34.267  -7.286  1.00  0.00     0.012 C 
ENDBRANCH  18  42
BRANCH  16  45
HETATM   45  C   UNL     1       1.592  32.538  -8.994  1.00  0.00     0.010 C 
HETATM   46  C   UNL     1       0.593  32.291  -7.864  1.00  0.00     0.012 C 
HETATM   47  C   UNL     1       1.483  31.441 -10.053  1.00  0.00     0.012 C 
ENDBRANCH  16  45
TORSDOF 8
ENDMDL
MODEL 11
REMARK VINA RESULT:    -4.708     14.557     17.332
REMARK INTER + INTRA:          -6.165
REMARK INTER:                  -6.580
REMARK INTRA:                   0.416
REMARK UNBOUND:                 0.745
REMARK  8 active torsions:
REMARK  status: ('A' for Active; 'I' for Inactive)
REMARK    1  A    between atoms: C_13  and  C_15 
REMARK    2  A    between atoms: C_14  and  C_16 
REMARK    3  A    between atoms: C_15  and  C_22 
REMARK    4  A    between atoms: C_16  and  C_23 
REMARK    5  A    between atoms: C_17  and  C_21 
REMARK    6  A    between atoms: C_18  and  C_24 
REMARK    7  A    between atoms: C_19  and  C_27 
REMARK    8  A    between atoms: C_20  and  C_30 
ROOT
HETATM    1  O   UNL     1       4.846  34.119  -3.038  1.00  0.00    -0.304 OA
HETATM    2  O   UNL     1       3.610  37.088  -6.658  1.00  0.00    -0.304 OA
HETATM    3  O   UNL     1       4.178  39.147  -3.212  1.00  0.00    -0.304 OA
HETATM    4  O   UNL     1       5.825  35.913  -4.700  1.00  0.00    -0.270 OA
HETATM    5  O   UNL     1       2.662  34.839  -3.228  1.00  0.00    -0.263 OA
HETATM    6  O   UNL     1       5.388  37.374  -1.761  1.00  0.00    -0.270 OA
HETATM    7  O   UNL     1       4.335  37.694  -8.757  1.00  0.00    -0.263 OA
HETATM    8  O   UNL     1       1.989  39.682  -8.248  1.00  0.00    -0.270 OA
HETATM    9  O   UNL     1       2.484  40.540  -3.930  1.00  0.00    -0.263 OA
HETATM   10  N   UNL     1       5.093  34.891  -6.649  1.00  0.00    -0.340 N 
HETATM   11  N   UNL     1       3.348  36.506  -1.075  1.00  0.00    -0.340 N 
HETATM   12  N   UNL     1       3.430  40.280  -6.534  1.00  0.00    -0.340 N 
HETATM   13  C   UNL     1       5.560  36.018  -7.489  1.00  0.00     0.190 C 
HETATM   14  C   UNL     1       3.875  35.129  -1.136  1.00  0.00     0.190 C 
HETATM   15  C   UNL     1       4.878  33.731  -4.426  1.00  0.00     0.227 C 
HETATM   16  C   UNL     1       4.325  39.920  -5.414  1.00  0.00     0.190 C 
HETATM   17  C   UNL     1       3.511  38.835  -1.970  1.00  0.00     0.227 C 
HETATM   18  C   UNL     1       2.466  37.947  -6.653  1.00  0.00     0.227 C 
HETATM   19  C   UNL     1       5.304  34.944  -5.263  1.00  0.00     0.250 C 
HETATM   20  C   UNL     1       3.690  34.688  -2.582  1.00  0.00     0.283 C 
HETATM   21  C   UNL     1       4.176  37.525  -1.570  1.00  0.00     0.250 C 
HETATM   22  C   UNL     1       4.420  37.003  -7.750  1.00  0.00     0.283 C 
HETATM   23  C   UNL     1       2.617  39.372  -7.230  1.00  0.00     0.250 C 
HETATM   24  C   UNL     1       3.529  39.934  -4.119  1.00  0.00     0.283 C 
HETATM   25  C   UNL     1       4.366  33.819  -7.338  1.00  0.00     0.153 C 
HETATM   26  C   UNL     1       1.963  36.718  -0.648  1.00  0.00     0.153 C 
HETATM   27  C   UNL     1       3.393  41.683  -6.945  1.00  0.00     0.153 C 
ENDROOT
BRANCH  15  28
HETATM   28  C   UNL     1       5.908  32.618  -4.555  1.00  0.00     0.016 C 
HETATM   29  C   UNL     1       7.321  33.195  -4.617  1.00  0.00     0.012 C 
HETATM   30  C   UNL     1       5.784  31.631  -3.394  1.00  0.00     0.012 C 
ENDBRANCH  15  28
BRANCH  14  31
HETATM   31  C   UNL     1       3.232  34.113  -0.202  1.00  0.00     0.014 C 
HETATM   32  C   UNL     1       3.661  32.699  -0.602  1.00  0.00     0.012 C 
BRANCH  31  33
HETATM   33  C   UNL     1       3.588  34.368   1.274  1.00  0.00     0.002 C 
HETATM   34  C   UNL     1       4.423  33.259   1.900  1.00  0.00     0.005 C 
ENDBRANCH  31  33
ENDBRANCH  14  31
BRANCH  13  35
HETATM   35  C   UNL     1       6.222  35.570  -8.792  1.00  0.00     0.014 C 
HETATM   36  C   UNL     1       6.911  36.762  -9.461  1.00  0.00     0.012 C 
BRANCH  35  37
HETATM   37  C   UNL     1       7.240  34.437  -8.574  1.00  0.00     0.002 C 
HETATM   38  C   UNL     1       8.463  34.862  -7.775  1.00  0.00     0.005 C 
ENDBRANCH  35  37
ENDBRANCH  13  35
BRANCH  17  39
HETATM   39  C   UNL     1       3.789  39.915  -0.939  1.00  0.00     0.016 C 
HETATM   40  C   UNL     1       4.635  39.361   0.204  1.00  0.00     0.012 C 
HETATM   41  C   UNL     1       2.481  40.497  -0.406  1.00  0.00     0.012 C 
ENDBRANCH  17  39
BRANCH  18  42
HETATM   42  C   UNL     1       1.319  37.190  -7.325  1.00  0.00     0.016 C 
HETATM   43  C   UNL     1       1.381  35.701  -6.985  1.00  0.00     0.012 C 
HETATM   44  C   UNL     1      -0.030  37.776  -6.913  1.00  0.00     0.012 C 
ENDBRANCH  18  42
BRANCH  16  45
HETATM   45  C   UNL     1       5.570  40.794  -5.273  1.00  0.00     0.010 C 
HETATM   46  C   UNL     1       6.838  39.945  -5.345  1.00  0.00     0.012 C 
HETATM   47  C   UNL     1       5.530  41.585  -3.966  1.00  0.00     0.012 C 
ENDBRANCH  16  45
TORSDOF 8
ENDMDL
MODEL 12
REMARK VINA RESULT:    -4.625     14.212     16.695
REMARK INTER + INTRA:          -6.042
REMARK INTER:                  -7.115
REMARK INTRA:                   1.073
REMARK UNBOUND:                 0.745
REMARK  8 active torsions:
REMARK  status: ('A' for Active; 'I' for Inactive)
REMARK    1  A    between atoms: C_13  and  C_15 
REMARK    2  A    between atoms: C_14  and  C_16 
REMARK    3  A    between atoms: C_15  and  C_22 
REMARK    4  A    between atoms: C_16  and  C_23 
REMARK    5  A    between atoms: C_17  and  C_21 
REMARK    6  A    between atoms: C_18  and  C_24 
REMARK    7  A    between atoms: C_19  and  C_27 
REMARK    8  A    between atoms: C_20  and  C_30 
ROOT
HETATM    1  O   UNL     1       3.912  34.762  -1.281  1.00  0.00    -0.304 OA
HETATM    2  O   UNL     1       3.629  33.101  -5.821  1.00  0.00    -0.304 OA
HETATM    3  O   UNL     1       5.984  36.396  -5.618  1.00  0.00    -0.304 OA
HETATM    4  O   UNL     1       5.273  33.456  -3.121  1.00  0.00    -0.270 OA
HETATM    5  O   UNL     1       2.466  35.764  -2.775  1.00  0.00    -0.263 OA
HETATM    6  O   UNL     1       6.372  36.577  -3.062  1.00  0.00    -0.270 OA
HETATM    7  O   UNL     1       4.052  31.181  -7.018  1.00  0.00    -0.263 OA
HETATM    8  O   UNL     1       3.306  33.223  -9.252  1.00  0.00    -0.270 OA
HETATM    9  O   UNL     1       5.170  36.934  -7.708  1.00  0.00    -0.263 OA
HETATM   10  N   UNL     1       3.681  31.813  -3.505  1.00  0.00    -0.340 N 
HETATM   11  N   UNL     1       4.409  37.790  -2.824  1.00  0.00    -0.340 N 
HETATM   12  N   UNL     1       5.198  34.231  -8.370  1.00  0.00    -0.340 N 
HETATM   13  C   UNL     1       4.462  31.229  -4.620  1.00  0.00     0.190 C 
HETATM   14  C   UNL     1       4.097  37.101  -1.557  1.00  0.00     0.190 C 
HETATM   15  C   UNL     1       3.410  33.453  -1.616  1.00  0.00     0.227 C 
HETATM   16  C   UNL     1       5.999  34.688  -7.215  1.00  0.00     0.190 C 
HETATM   17  C   UNL     1       5.564  37.649  -5.037  1.00  0.00     0.227 C 
HETATM   18  C   UNL     1       3.150  33.857  -6.937  1.00  0.00     0.227 C 
HETATM   19  C   UNL     1       4.204  32.916  -2.813  1.00  0.00     0.250 C 
HETATM   20  C   UNL     1       3.376  35.821  -1.959  1.00  0.00     0.283 C 
HETATM   21  C   UNL     1       5.508  37.311  -3.553  1.00  0.00     0.250 C 
HETATM   22  C   UNL     1       3.991  31.795  -5.960  1.00  0.00     0.283 C 
HETATM   23  C   UNL     1       3.892  33.723  -8.285  1.00  0.00     0.250 C 
HETATM   24  C   UNL     1       5.659  36.140  -6.918  1.00  0.00     0.283 C 
HETATM   25  C   UNL     1       2.361  31.224  -3.254  1.00  0.00     0.153 C 
HETATM   26  C   UNL     1       3.489  38.818  -3.318  1.00  0.00     0.153 C 
HETATM   27  C   UNL     1       5.813  34.314  -9.695  1.00  0.00     0.153 C 
ENDROOT
BRANCH  15  28
HETATM   28  C   UNL     1       3.633  32.565  -0.399  1.00  0.00     0.016 C 
HETATM   29  C   UNL     1       4.797  31.605  -0.637  1.00  0.00     0.012 C 
HETATM   30  C   UNL     1       3.884  33.412   0.848  1.00  0.00     0.012 C 
ENDBRANCH  15  28
BRANCH  14  31
HETATM   31  C   UNL     1       3.252  37.873  -0.552  1.00  0.00     0.014 C 
HETATM   32  C   UNL     1       2.627  36.902   0.452  1.00  0.00     0.012 C 
BRANCH  31  33
HETATM   33  C   UNL     1       4.066  38.945   0.195  1.00  0.00     0.002 C 
HETATM   34  C   UNL     1       3.584  39.194   1.618  1.00  0.00     0.005 C 
ENDBRANCH  31  33
ENDBRANCH  14  31
BRANCH  13  35
HETATM   35  C   UNL     1       4.462  29.701  -4.627  1.00  0.00     0.014 C 
HETATM   36  C   UNL     1       5.520  29.186  -5.607  1.00  0.00     0.012 C 
BRANCH  35  37
HETATM   37  C   UNL     1       4.715  29.107  -3.229  1.00  0.00     0.002 C 
HETATM   38  C   UNL     1       5.272  27.692  -3.261  1.00  0.00     0.005 C 
ENDBRANCH  35  37
ENDBRANCH  13  35
BRANCH  17  39
HETATM   39  C   UNL     1       6.601  38.725  -5.304  1.00  0.00     0.016 C 
HETATM   40  C   UNL     1       6.142  39.645  -6.433  1.00  0.00     0.012 C 
HETATM   41  C   UNL     1       7.952  38.096  -5.641  1.00  0.00     0.012 C 
ENDBRANCH  17  39
BRANCH  18  42
HETATM   42  C   UNL     1       1.658  33.560  -7.088  1.00  0.00     0.016 C 
HETATM   43  C   UNL     1       1.009  33.341  -5.722  1.00  0.00     0.012 C 
HETATM   44  C   UNL     1       0.955  34.690  -7.839  1.00  0.00     0.012 C 
ENDBRANCH  18  42
BRANCH  16  45
HETATM   45  C   UNL     1       7.510  34.526  -7.371  1.00  0.00     0.010 C 
HETATM   46  C   UNL     1       8.169  34.267  -6.016  1.00  0.00     0.012 C 
HETATM   47  C   UNL     1       8.121  35.760  -8.034  1.00  0.00     0.012 C 
ENDBRANCH  16  45
TORSDOF 8
ENDMDL
MODEL 13
REMARK VINA RESULT:    -4.469     15.819     18.752
REMARK INTER + INTRA:          -5.814
REMARK INTER:                  -6.064
REMARK INTRA:                   0.249
REMARK UNBOUND:                 0.745
REMARK  8 active torsions:
REMARK  status: ('A' for Active; 'I' for Inactive)
REMARK    1  A    between atoms: C_13  and  C_15 
REMARK    2  A    between atoms: C_14  and  C_16 
REMARK    3  A    between atoms: C_15  and  C_22 
REMARK    4  A    between atoms: C_16  and  C_23 
REMARK    5  A    between atoms: C_17  and  C_21 
REMARK    6  A    between atoms: C_18  and  C_24 
REMARK    7  A    between atoms: C_19  and  C_27 
REMARK    8  A    between atoms: C_20  and  C_30 
ROOT
HETATM    1  O   UNL     1       3.647  31.963  -7.667  1.00  0.00    -0.304 OA
HETATM    2  O   UNL     1       4.105  27.621  -5.573  1.00  0.00    -0.304 OA
HETATM    3  O   UNL     1       2.662  30.359  -2.953  1.00  0.00    -0.304 OA
HETATM    4  O   UNL     1       2.259  29.888  -6.826  1.00  0.00    -0.270 OA
HETATM    5  O   UNL     1       5.488  31.521  -6.347  1.00  0.00    -0.263 OA
HETATM    6  O   UNL     1       1.992  32.282  -4.556  1.00  0.00    -0.270 OA
HETATM    7  O   UNL     1       3.372  25.456  -5.841  1.00  0.00    -0.263 OA
HETATM    8  O   UNL     1       4.906  25.322  -3.131  1.00  0.00    -0.270 OA
HETATM    9  O   UNL     1       3.859  29.233  -1.334  1.00  0.00    -0.263 OA
HETATM   10  N   UNL     1       3.417  28.288  -8.044  1.00  0.00    -0.340 N 
HETATM   11  N   UNL     1       4.150  33.132  -4.477  1.00  0.00    -0.340 N 
HETATM   12  N   UNL     1       3.232  26.834  -2.597  1.00  0.00    -0.340 N 
HETATM   13  C   UNL     1       2.670  27.176  -7.411  1.00  0.00     0.190 C 
HETATM   14  C   UNL     1       4.103  33.477  -5.912  1.00  0.00     0.190 C 
HETATM   15  C   UNL     1       3.840  30.742  -8.409  1.00  0.00     0.227 C 
HETATM   16  C   UNL     1       2.426  28.033  -2.910  1.00  0.00     0.190 C 
HETATM   17  C   UNL     1       3.305  31.621  -2.674  1.00  0.00     0.227 C 
HETATM   18  C   UNL     1       4.906  27.354  -4.418  1.00  0.00     0.227 C 
HETATM   19  C   UNL     1       3.104  29.608  -7.684  1.00  0.00     0.250 C 
HETATM   20  C   UNL     1       4.522  32.210  -6.646  1.00  0.00     0.283 C 
HETATM   21  C   UNL     1       3.074  32.392  -3.967  1.00  0.00     0.250 C 
HETATM   22  C   UNL     1       3.445  26.619  -6.217  1.00  0.00     0.283 C 
HETATM   23  C   UNL     1       4.343  26.401  -3.340  1.00  0.00     0.250 C 
HETATM   24  C   UNL     1       3.082  29.250  -2.278  1.00  0.00     0.283 C 
HETATM   25  C   UNL     1       4.498  27.911  -8.961  1.00  0.00     0.153 C 
HETATM   26  C   UNL     1       5.358  33.446  -3.711  1.00  0.00     0.153 C 
HETATM   27  C   UNL     1       2.842  26.042  -1.430  1.00  0.00     0.153 C 
ENDROOT
BRANCH  15  28
HETATM   28  C   UNL     1       3.237  30.960  -9.790  1.00  0.00     0.016 C 
HETATM   29  C   UNL     1       2.265  32.138  -9.775  1.00  0.00     0.012 C 
HETATM   30  C   UNL     1       4.335  31.185 -10.828  1.00  0.00     0.012 C 
ENDBRANCH  15  28
BRANCH  14  31
HETATM   31  C   UNL     1       4.974  34.643  -6.360  1.00  0.00     0.014 C 
HETATM   32  C   UNL     1       5.268  34.522  -7.857  1.00  0.00     0.012 C 
BRANCH  31  33
HETATM   33  C   UNL     1       4.323  36.006  -6.064  1.00  0.00     0.002 C 
HETATM   34  C   UNL     1       5.174  36.907  -5.179  1.00  0.00     0.005 C 
ENDBRANCH  31  33
ENDBRANCH  14  31
BRANCH  13  35
HETATM   35  C   UNL     1       2.282  26.070  -8.392  1.00  0.00     0.014 C 
HETATM   36  C   UNL     1       1.211  25.173  -7.766  1.00  0.00     0.012 C 
BRANCH  35  37
HETATM   37  C   UNL     1       1.773  26.628  -9.734  1.00  0.00     0.002 C 
HETATM   38  C   UNL     1       2.136  25.760 -10.930  1.00  0.00     0.005 C 
ENDBRANCH  35  37
ENDBRANCH  13  35
BRANCH  17  39
HETATM   39  C   UNL     1       2.621  32.311  -1.507  1.00  0.00     0.016 C 
HETATM   40  C   UNL     1       1.896  33.569  -1.978  1.00  0.00     0.012 C 
HETATM   41  C   UNL     1       3.635  32.652  -0.417  1.00  0.00     0.012 C 
ENDBRANCH  17  39
BRANCH  18  42
HETATM   42  C   UNL     1       6.280  26.893  -4.907  1.00  0.00     0.016 C 
HETATM   43  C   UNL     1       6.701  27.676  -6.150  1.00  0.00     0.012 C 
HETATM   44  C   UNL     1       7.325  27.042  -3.802  1.00  0.00     0.012 C 
ENDBRANCH  18  42
BRANCH  16  45
HETATM   45  C   UNL     1       0.959  27.953  -2.492  1.00  0.00     0.010 C 
HETATM   46  C   UNL     1       0.043  28.280  -3.671  1.00  0.00     0.012 C 
HETATM   47  C   UNL     1       0.678  28.894  -1.321  1.00  0.00     0.012 C 
ENDBRANCH  16  45
TORSDOF 8
ENDMDL
MODEL 14
REMARK VINA RESULT:    -4.385      2.413      4.504
REMARK INTER + INTRA:          -5.690
REMARK INTER:                  -6.216
REMARK INTRA:                   0.526
REMARK UNBOUND:                 0.745
REMARK  8 active torsions:
REMARK  status: ('A' for Active; 'I' for Inactive)
REMARK    1  A    between atoms: C_13  and  C_15 
REMARK    2  A    between atoms: C_14  and  C_16 
REMARK    3  A    between atoms: C_15  and  C_22 
REMARK    4  A    between atoms: C_16  and  C_23 
REMARK    5  A    between atoms: C_17  and  C_21 
REMARK    6  A    between atoms: C_18  and  C_24 
REMARK    7  A    between atoms: C_19  and  C_27 
REMARK    8  A    between atoms: C_20  and  C_30 
ROOT
HETATM    1  O   UNL     1      17.589  35.284   0.329  1.00  0.00    -0.304 OA
HETATM    2  O   UNL     1      21.763  37.278  -1.104  1.00  0.00    -0.304 OA
HETATM    3  O   UNL     1      19.752  39.749   1.405  1.00  0.00    -0.304 OA
HETATM    4  O   UNL     1      20.030  35.845   1.146  1.00  0.00    -0.270 OA
HETATM    5  O   UNL     1      17.584  36.844  -1.372  1.00  0.00    -0.263 OA
HETATM    6  O   UNL     1      17.987  38.130   2.394  1.00  0.00    -0.270 OA
HETATM    7  O   UNL     1      24.021  36.834  -1.079  1.00  0.00    -0.263 OA
HETATM    8  O   UNL     1      23.912  39.733  -2.220  1.00  0.00    -0.270 OA
HETATM    9  O   UNL     1      20.606  41.487   0.152  1.00  0.00    -0.263 OA
HETATM   10  N   UNL     1      21.138  34.757  -0.578  1.00  0.00    -0.340 N 
HETATM   11  N   UNL     1      16.565  38.551   0.610  1.00  0.00    -0.340 N 
HETATM   12  N   UNL     1      22.984  40.067  -0.122  1.00  0.00    -0.340 N 
HETATM   13  C   UNL     1      22.461  35.236  -0.114  1.00  0.00     0.190 C 
HETATM   14  C   UNL     1      16.143  37.137   0.569  1.00  0.00     0.190 C 
HETATM   15  C   UNL     1      18.646  34.539  -0.307  1.00  0.00     0.227 C 
HETATM   16  C   UNL     1      22.045  39.680   0.952  1.00  0.00     0.190 C 
HETATM   17  C   UNL     1      18.384  40.161   1.202  1.00  0.00     0.227 C 
HETATM   18  C   UNL     1      21.875  38.528  -1.792  1.00  0.00     0.227 C 
HETATM   19  C   UNL     1      19.993  35.110   0.152  1.00  0.00     0.250 C 
HETATM   20  C   UNL     1      17.180  36.430  -0.294  1.00  0.00     0.283 C 
HETATM   21  C   UNL     1      17.617  38.874   1.479  1.00  0.00     0.250 C 
HETATM   22  C   UNL     1      22.861  36.512  -0.856  1.00  0.00     0.283 C 
HETATM   23  C   UNL     1      23.026  39.480  -1.397  1.00  0.00     0.250 C 
HETATM   24  C   UNL     1      20.742  40.441   0.769  1.00  0.00     0.283 C 
HETATM   25  C   UNL     1      21.122  33.995  -1.831  1.00  0.00     0.153 C 
HETATM   26  C   UNL     1      15.977  39.495  -0.343  1.00  0.00     0.153 C 
HETATM   27  C   UNL     1      23.939  41.138   0.167  1.00  0.00     0.153 C 
ENDROOT
BRANCH  15  28
HETATM   28  C   UNL     1      18.507  33.092   0.148  1.00  0.00     0.016 C 
HETATM   29  C   UNL     1      19.280  32.859   1.445  1.00  0.00     0.012 C 
HETATM   30  C   UNL     1      17.036  32.722   0.329  1.00  0.00     0.012 C 
ENDBRANCH  15  28
BRANCH  14  31
HETATM   31  C   UNL     1      14.747  36.859   0.028  1.00  0.00     0.014 C 
HETATM   32  C   UNL     1      14.735  35.515  -0.704  1.00  0.00     0.012 C 
BRANCH  31  33
HETATM   33  C   UNL     1      13.679  36.860   1.136  1.00  0.00     0.002 C 
HETATM   34  C   UNL     1      13.133  38.246   1.454  1.00  0.00     0.005 C 
ENDBRANCH  31  33
ENDBRANCH  14  31
BRANCH  13  35
HETATM   35  C   UNL     1      23.556  34.173  -0.197  1.00  0.00     0.014 C 
HETATM   36  C   UNL     1      24.753  34.593   0.660  1.00  0.00     0.012 C 
BRANCH  35  37
HETATM   37  C   UNL     1      23.060  32.785   0.245  1.00  0.00     0.002 C 
HETATM   38  C   UNL     1      22.940  32.633   1.755  1.00  0.00     0.005 C 
ENDBRANCH  35  37
ENDBRANCH  13  35
BRANCH  17  39
HETATM   39  C   UNL     1      18.006  41.237   2.203  1.00  0.00     0.016 C 
HETATM   40  C   UNL     1      16.682  40.897   2.884  1.00  0.00     0.012 C 
HETATM   41  C   UNL     1      17.922  42.600   1.519  1.00  0.00     0.012 C 
ENDBRANCH  17  39
BRANCH  18  42
HETATM   42  C   UNL     1      21.886  38.230  -3.292  1.00  0.00     0.016 C 
HETATM   43  C   UNL     1      20.952  37.065  -3.618  1.00  0.00     0.012 C 
HETATM   44  C   UNL     1      21.494  39.470  -4.092  1.00  0.00     0.012 C 
ENDBRANCH  18  42
BRANCH  16  45
HETATM   45  C   UNL     1      22.571  39.877   2.373  1.00  0.00     0.010 C 
HETATM   46  C   UNL     1      22.499  38.569   3.161  1.00  0.00     0.012 C 
HETATM   47  C   UNL     1      21.791  40.977   3.092  1.00  0.00     0.012 C 
ENDBRANCH  16  45
TORSDOF 8
ENDMDL
MODEL 15
REMARK VINA RESULT:    -4.343     14.760     19.137
REMARK INTER + INTRA:          -5.629
REMARK INTER:                  -6.271
REMARK INTRA:                   0.642
REMARK UNBOUND:                 0.745
REMARK  8 active torsions:
REMARK  status: ('A' for Active; 'I' for Inactive)
REMARK    1  A    between atoms: C_13  and  C_15 
REMARK    2  A    between atoms: C_14  and  C_16 
REMARK    3  A    between atoms: C_15  and  C_22 
REMARK    4  A    between atoms: C_16  and  C_23 
REMARK    5  A    between atoms: C_17  and  C_21 
REMARK    6  A    between atoms: C_18  and  C_24 
REMARK    7  A    between atoms: C_19  and  C_27 
REMARK    8  A    between atoms: C_20  and  C_30 
ROOT
HETATM    1  O   UNL     1       2.677  29.221  -3.835  1.00  0.00    -0.304 OA
HETATM    2  O   UNL     1       4.629  33.645  -4.101  1.00  0.00    -0.304 OA
HETATM    3  O   UNL     1       2.166  32.946  -7.245  1.00  0.00    -0.304 OA
HETATM    4  O   UNL     1       2.125  31.776  -3.502  1.00  0.00    -0.270 OA
HETATM    5  O   UNL     1       4.494  29.586  -5.210  1.00  0.00    -0.263 OA
HETATM    6  O   UNL     1       0.896  30.840  -6.429  1.00  0.00    -0.270 OA
HETATM    7  O   UNL     1       4.764  35.582  -2.865  1.00  0.00    -0.263 OA
HETATM    8  O   UNL     1       6.127  36.392  -5.548  1.00  0.00    -0.270 OA
HETATM    9  O   UNL     1       3.629  34.221  -8.494  1.00  0.00    -0.263 OA
HETATM   10  N   UNL     1       3.843  32.220  -2.008  1.00  0.00    -0.340 N 
HETATM   11  N   UNL     1       2.579  29.473  -7.259  1.00  0.00    -0.340 N 
HETATM   12  N   UNL     1       3.990  35.886  -6.293  1.00  0.00    -0.340 N 
HETATM   13  C   UNL     1       3.538  33.670  -1.992  1.00  0.00     0.190 C 
HETATM   14  C   UNL     1       2.465  28.571  -6.097  1.00  0.00     0.190 C 
HETATM   15  C   UNL     1       3.339  29.863  -2.727  1.00  0.00     0.227 C 
HETATM   16  C   UNL     1       2.810  34.996  -6.325  1.00  0.00     0.190 C 
HETATM   17  C   UNL     1       2.282  31.802  -8.119  1.00  0.00     0.227 C 
HETATM   18  C   UNL     1       5.424  34.120  -5.191  1.00  0.00     0.227 C 
HETATM   19  C   UNL     1       3.048  31.367  -2.788  1.00  0.00     0.250 C 
HETATM   20  C   UNL     1       3.354  29.183  -5.022  1.00  0.00     0.283 C 
HETATM   21  C   UNL     1       1.834  30.661  -7.215  1.00  0.00     0.250 C 
HETATM   22  C   UNL     1       4.415  34.415  -2.998  1.00  0.00     0.283 C 
HETATM   23  C   UNL     1       5.211  35.572  -5.675  1.00  0.00     0.250 C 
HETATM   24  C   UNL     1       2.941  34.041  -7.500  1.00  0.00     0.283 C 
HETATM   25  C   UNL     1       5.023  31.793  -1.248  1.00  0.00     0.153 C 
HETATM   26  C   UNL     1       3.551  29.160  -8.308  1.00  0.00     0.153 C 
HETATM   27  C   UNL     1       3.875  37.186  -6.954  1.00  0.00     0.153 C 
ENDROOT
BRANCH  15  28
HETATM   28  C   UNL     1       2.755  29.266  -1.453  1.00  0.00     0.016 C 
HETATM   29  C   UNL     1       1.366  28.688  -1.716  1.00  0.00     0.012 C 
HETATM   30  C   UNL     1       3.683  28.194  -0.885  1.00  0.00     0.012 C 
ENDBRANCH  15  28
BRANCH  14  31
HETATM   31  C   UNL     1       2.858  27.117  -6.323  1.00  0.00     0.014 C 
HETATM   32  C   UNL     1       3.184  26.455  -4.982  1.00  0.00     0.012 C 
BRANCH  31  33
HETATM   33  C   UNL     1       1.757  26.320  -7.045  1.00  0.00     0.002 C 
HETATM   34  C   UNL     1       2.251  25.583  -8.282  1.00  0.00     0.005 C 
ENDBRANCH  31  33
ENDBRANCH  14  31
BRANCH  13  35
HETATM   35  C   UNL     1       3.628  34.295  -0.600  1.00  0.00     0.014 C 
HETATM   36  C   UNL     1       2.443  35.237  -0.376  1.00  0.00     0.012 C 
BRANCH  35  37
HETATM   37  C   UNL     1       3.670  33.236   0.516  1.00  0.00     0.002 C 
HETATM   38  C   UNL     1       4.093  33.793   1.868  1.00  0.00     0.005 C 
ENDBRANCH  35  37
ENDBRANCH  13  35
BRANCH  17  39
HETATM   39  C   UNL     1       1.345  31.949  -9.304  1.00  0.00     0.016 C 
HETATM   40  C   UNL     1       0.317  30.821  -9.318  1.00  0.00     0.012 C 
HETATM   41  C   UNL     1       2.132  31.974 -10.612  1.00  0.00     0.012 C 
ENDBRANCH  17  39
BRANCH  18  42
HETATM   42  C   UNL     1       6.890  33.857  -4.841  1.00  0.00     0.016 C 
HETATM   43  C   UNL     1       7.079  32.421  -4.352  1.00  0.00     0.012 C 
HETATM   44  C   UNL     1       7.790  34.135  -6.043  1.00  0.00     0.012 C 
ENDBRANCH  18  42
BRANCH  16  45
HETATM   45  C   UNL     1       1.462  35.712  -6.380  1.00  0.00     0.010 C 
HETATM   46  C   UNL     1       0.565  35.264  -5.227  1.00  0.00     0.012 C 
HETATM   47  C   UNL     1       0.772  35.464  -7.721  1.00  0.00     0.012 C 
ENDBRANCH  16  45
TORSDOF 8
ENDMDL
MODEL 16
REMARK VINA RESULT:    -4.048      9.158     14.212
REMARK INTER + INTRA:          -5.196
REMARK INTER:                  -5.997
REMARK INTRA:                   0.801
REMARK UNBOUND:                 0.745
REMARK  8 active torsions:
REMARK  status: ('A' for Active; 'I' for Inactive)
REMARK    1  A    between atoms: C_13  and  C_15 
REMARK    2  A    between atoms: C_14  and  C_16 
REMARK    3  A    between atoms: C_15  and  C_22 
REMARK    4  A    between atoms: C_16  and  C_23 
REMARK    5  A    between atoms: C_17  and  C_21 
REMARK    6  A    between atoms: C_18  and  C_24 
REMARK    7  A    between atoms: C_19  and  C_27 
REMARK    8  A    between atoms: C_20  and  C_30 
ROOT
HETATM    1  O   UNL     1      20.459  31.174 -11.530  1.00  0.00    -0.304 OA
HETATM    2  O   UNL     1      17.553  35.028 -11.136  1.00  0.00    -0.304 OA
HETATM    3  O   UNL     1      15.403  31.622 -11.606  1.00  0.00    -0.304 OA
HETATM    4  O   UNL     1      18.830  32.406  -9.866  1.00  0.00    -0.270 OA
HETATM    5  O   UNL     1      19.559  32.125 -13.431  1.00  0.00    -0.263 OA
HETATM    6  O   UNL     1      17.211  29.822 -11.154  1.00  0.00    -0.270 OA
HETATM    7  O   UNL     1      17.104  36.746  -9.671  1.00  0.00    -0.263 OA
HETATM    8  O   UNL     1      14.899  37.112 -11.844  1.00  0.00    -0.270 OA
HETATM    9  O   UNL     1      13.901  32.903 -12.801  1.00  0.00    -0.263 OA
HETATM   10  N   UNL     1      19.869  34.477  -9.969  1.00  0.00    -0.340 N 
HETATM   11  N   UNL     1      17.867  29.885 -13.378  1.00  0.00    -0.340 N 
HETATM   12  N   UNL     1      14.355  35.007 -11.038  1.00  0.00    -0.340 N 
HETATM   13  C   UNL     1      18.824  35.112  -9.131  1.00  0.00     0.190 C 
HETATM   14  C   UNL     1      19.286  29.743 -12.999  1.00  0.00     0.190 C 
HETATM   15  C   UNL     1      20.907  32.459 -11.055  1.00  0.00     0.227 C 
HETATM   16  C   UNL     1      14.743  33.641 -10.628  1.00  0.00     0.190 C 
HETATM   17  C   UNL     1      15.602  30.689 -12.690  1.00  0.00     0.227 C 
HETATM   18  C   UNL     1      16.598  35.433 -12.122  1.00  0.00     0.227 C 
HETATM   19  C   UNL     1      19.774  33.106 -10.249  1.00  0.00     0.250 C 
HETATM   20  C   UNL     1      19.771  31.158 -12.711  1.00  0.00     0.283 C 
HETATM   21  C   UNL     1      16.947  30.069 -12.336  1.00  0.00     0.250 C 
HETATM   22  C   UNL     1      17.756  35.766 -10.009  1.00  0.00     0.283 C 
HETATM   23  C   UNL     1      15.218  35.935 -11.642  1.00  0.00     0.250 C 
HETATM   24  C   UNL     1      14.603  32.707 -11.820  1.00  0.00     0.283 C 
HETATM   25  C   UNL     1      20.902  35.367 -10.510  1.00  0.00     0.153 C 
HETATM   26  C   UNL     1      17.517  29.973 -14.798  1.00  0.00     0.153 C 
HETATM   27  C   UNL     1      12.973  35.420 -10.794  1.00  0.00     0.153 C 
ENDROOT
BRANCH  15  28
HETATM   28  C   UNL     1      22.111  32.207 -10.157  1.00  0.00     0.016 C 
HETATM   29  C   UNL     1      21.700  31.424  -8.911  1.00  0.00     0.012 C 
HETATM   30  C   UNL     1      23.206  31.464 -10.919  1.00  0.00     0.012 C 
ENDBRANCH  15  28
BRANCH  14  31
HETATM   31  C   UNL     1      20.201  29.084 -14.022  1.00  0.00     0.014 C 
HETATM   32  C   UNL     1      21.657  29.454 -13.728  1.00  0.00     0.012 C 
BRANCH  31  33
HETATM   33  C   UNL     1      20.046  27.553 -14.044  1.00  0.00     0.002 C 
HETATM   34  C   UNL     1      21.118  26.820 -13.250  1.00  0.00     0.005 C 
ENDBRANCH  31  33
ENDBRANCH  14  31
BRANCH  13  35
HETATM   35  C   UNL     1      19.384  36.096  -8.105  1.00  0.00     0.014 C 
HETATM   36  C   UNL     1      20.313  35.361  -7.135  1.00  0.00     0.012 C 
BRANCH  35  37
HETATM   37  C   UNL     1      20.138  37.265  -8.762  1.00  0.00     0.002 C 
HETATM   38  C   UNL     1      19.740  38.630  -8.218  1.00  0.00     0.005 C 
ENDBRANCH  35  37
ENDBRANCH  13  35
BRANCH  17  39
HETATM   39  C   UNL     1      14.507  29.639 -12.685  1.00  0.00     0.016 C 
HETATM   40  C   UNL     1      15.100  28.246 -12.486  1.00  0.00     0.012 C 
HETATM   41  C   UNL     1      13.701  29.698 -13.981  1.00  0.00     0.012 C 
ENDBRANCH  17  39
BRANCH  18  42
HETATM   42  C   UNL     1      17.281  36.456 -13.030  1.00  0.00     0.016 C 
HETATM   43  C   UNL     1      18.758  36.113 -13.217  1.00  0.00     0.012 C 
HETATM   44  C   UNL     1      16.575  36.533 -14.383  1.00  0.00     0.012 C 
ENDBRANCH  18  42
BRANCH  16  45
HETATM   45  C   UNL     1      13.975  33.082  -9.432  1.00  0.00     0.010 C 
HETATM   46  C   UNL     1      14.938  32.583  -8.356  1.00  0.00     0.012 C 
HETATM   47  C   UNL     1      13.036  31.958  -9.869  1.00  0.00     0.012 C 
ENDBRANCH  16  45
TORSDOF 8
ENDMDL
MODEL 17
REMARK VINA RESULT:    -4.044     10.804     14.624
REMARK INTER + INTRA:          -5.191
REMARK INTER:                  -5.830
REMARK INTRA:                   0.639
REMARK UNBOUND:                 0.745
REMARK  8 active torsions:
REMARK  status: ('A' for Active; 'I' for Inactive)
REMARK    1  A    between atoms: C_13  and  C_15 
REMARK    2  A    between atoms: C_14  and  C_16 
REMARK    3  A    between atoms: C_15  and  C_22 
REMARK    4  A    between atoms: C_16  and  C_23 
REMARK    5  A    between atoms: C_17  and  C_21 
REMARK    6  A    between atoms: C_18  and  C_24 
REMARK    7  A    between atoms: C_19  and  C_27 
REMARK    8  A    between atoms: C_20  and  C_30 
ROOT
HETATM    1  O   UNL     1      14.792  34.781  -9.614  1.00  0.00    -0.304 OA
HETATM    2  O   UNL     1      12.637  32.931 -13.535  1.00  0.00    -0.304 OA
HETATM    3  O   UNL     1      15.671  30.553 -12.280  1.00  0.00    -0.304 OA
HETATM    4  O   UNL     1      13.141  32.883 -10.395  1.00  0.00    -0.270 OA
HETATM    5  O   UNL     1      15.751  35.081 -11.692  1.00  0.00    -0.263 OA
HETATM    6  O   UNL     1      16.117  31.515  -9.916  1.00  0.00    -0.270 OA
HETATM    7  O   UNL     1      10.554  32.246 -14.236  1.00  0.00    -0.263 OA
HETATM    8  O   UNL     1      12.379  31.417 -16.622  1.00  0.00    -0.270 OA
HETATM    9  O   UNL     1      16.036  30.080 -14.509  1.00  0.00    -0.263 OA
HETATM   10  N   UNL     1      11.637  34.275 -11.481  1.00  0.00    -0.340 N 
HETATM   11  N   UNL     1      17.546  33.111 -10.807  1.00  0.00    -0.340 N 
HETATM   12  N   UNL     1      13.285  30.123 -14.925  1.00  0.00    -0.340 N 
HETATM   13  C   UNL     1      10.846  33.129 -11.988  1.00  0.00     0.190 C 
HETATM   14  C   UNL     1      17.050  34.131  -9.863  1.00  0.00     0.190 C 
HETATM   15  C   UNL     1      13.511  35.230 -10.100  1.00  0.00     0.227 C 
HETATM   16  C   UNL     1      13.792  29.974 -13.545  1.00  0.00     0.190 C 
HETATM   17  C   UNL     1      17.022  31.017 -12.069  1.00  0.00     0.227 C 
HETATM   18  C   UNL     1      13.299  32.645 -14.771  1.00  0.00     0.227 C 
HETATM   19  C   UNL     1      12.755  34.024 -10.672  1.00  0.00     0.250 C 
HETATM   20  C   UNL     1      15.812  34.725 -10.522  1.00  0.00     0.283 C 
HETATM   21  C   UNL     1      16.872  31.881 -10.823  1.00  0.00     0.250 C 
HETATM   22  C   UNL     1      11.293  32.750 -13.400  1.00  0.00     0.283 C 
HETATM   23  C   UNL     1      12.928  31.345 -15.518  1.00  0.00     0.250 C 
HETATM   24  C   UNL     1      15.296  30.195 -13.543  1.00  0.00     0.283 C 
HETATM   25  C   UNL     1      11.223  35.607 -11.936  1.00  0.00     0.153 C 
HETATM   26  C   UNL     1      18.596  33.477 -11.760  1.00  0.00     0.153 C 
HETATM   27  C   UNL     1      13.144  28.909 -15.729  1.00  0.00     0.153 C 
ENDROOT
BRANCH  15  28
HETATM   28  C   UNL     1      12.758  35.803  -8.907  1.00  0.00     0.016 C 
HETATM   29  C   UNL     1      12.348  34.691  -7.943  1.00  0.00     0.012 C 
HETATM   30  C   UNL     1      13.605  36.850  -8.186  1.00  0.00     0.012 C 
ENDBRANCH  15  28
BRANCH  14  31
HETATM   31  C   UNL     1      18.020  35.245  -9.493  1.00  0.00     0.014 C 
HETATM   32  C   UNL     1      17.245  36.538  -9.228  1.00  0.00     0.012 C 
BRANCH  31  33
HETATM   33  C   UNL     1      18.877  34.889  -8.265  1.00  0.00     0.002 C 
HETATM   34  C   UNL     1      20.287  34.435  -8.618  1.00  0.00     0.005 C 
ENDBRANCH  31  33
ENDBRANCH  14  31
BRANCH  13  35
HETATM   35  C   UNL     1       9.337  33.356 -11.920  1.00  0.00     0.014 C 
HETATM   36  C   UNL     1       8.602  32.035 -12.162  1.00  0.00     0.012 C 
BRANCH  35  37
HETATM   37  C   UNL     1       8.893  33.959 -10.575  1.00  0.00     0.002 C 
HETATM   38  C   UNL     1       7.426  33.715 -10.253  1.00  0.00     0.005 C 
ENDBRANCH  35  37
ENDBRANCH  13  35
BRANCH  17  39
HETATM   39  C   UNL     1      17.945  29.842 -11.801  1.00  0.00     0.016 C 
HETATM   40  C   UNL     1      18.805  30.106 -10.567  1.00  0.00     0.012 C 
HETATM   41  C   UNL     1      18.824  29.562 -13.018  1.00  0.00     0.012 C 
ENDBRANCH  17  39
BRANCH  18  42
HETATM   42  C   UNL     1      13.141  33.871 -15.672  1.00  0.00     0.016 C 
HETATM   43  C   UNL     1      13.194  35.158 -14.848  1.00  0.00     0.012 C 
HETATM   44  C   UNL     1      14.217  33.887 -16.756  1.00  0.00     0.012 C 
ENDBRANCH  18  42
BRANCH  16  45
HETATM   45  C   UNL     1      13.458  28.643 -12.873  1.00  0.00     0.010 C 
HETATM   46  C   UNL     1      12.450  28.847 -11.743  1.00  0.00     0.012 C 
HETATM   47  C   UNL     1      14.724  27.971 -12.345  1.00  0.00     0.012 C 
ENDBRANCH  16  45
TORSDOF 8
ENDMDL
MODEL 18
REMARK VINA RESULT:    -4.024     11.931     16.064
REMARK INTER + INTRA:          -5.161
REMARK INTER:                  -5.521
REMARK INTRA:                   0.360
REMARK UNBOUND:                 0.745
REMARK  8 active torsions:
REMARK  status: ('A' for Active; 'I' for Inactive)
REMARK    1  A    between atoms: C_13  and  C_15 
REMARK    2  A    between atoms: C_14  and  C_16 
REMARK    3  A    between atoms: C_15  and  C_22 
REMARK    4  A    between atoms: C_16  and  C_23 
REMARK    5  A    between atoms: C_17  and  C_21 
REMARK    6  A    between atoms: C_18  and  C_24 
REMARK    7  A    between atoms: C_19  and  C_27 
REMARK    8  A    between atoms: C_20  and  C_30 
ROOT
HETATM    1  O   UNL     1      17.789  27.938 -14.343  1.00  0.00    -0.304 OA
HETATM    2  O   UNL     1      17.094  32.706 -13.859  1.00  0.00    -0.304 OA
HETATM    3  O   UNL     1      14.123  30.609 -12.064  1.00  0.00    -0.304 OA
HETATM    4  O   UNL     1      17.945  29.910 -12.603  1.00  0.00    -0.270 OA
HETATM    5  O   UNL     1      16.312  29.024 -15.745  1.00  0.00    -0.263 OA
HETATM    6  O   UNL     1      15.156  28.234 -11.998  1.00  0.00    -0.270 OA
HETATM    7  O   UNL     1      18.168  34.561 -13.020  1.00  0.00    -0.263 OA
HETATM    8  O   UNL     1      15.373  35.693 -13.808  1.00  0.00    -0.270 OA
HETATM    9  O   UNL     1      12.717  32.321 -12.709  1.00  0.00    -0.263 OA
HETATM   10  N   UNL     1      19.324  31.273 -13.876  1.00  0.00    -0.340 N 
HETATM   11  N   UNL     1      14.363  27.803 -14.136  1.00  0.00    -0.340 N 
HETATM   12  N   UNL     1      14.763  34.138 -12.200  1.00  0.00    -0.340 N 
HETATM   13  C   UNL     1      19.240  32.380 -12.895  1.00  0.00     0.190 C 
HETATM   14  C   UNL     1      15.596  27.069 -14.482  1.00  0.00     0.190 C 
HETATM   15  C   UNL     1      18.814  28.918 -14.601  1.00  0.00     0.227 C 
HETATM   16  C   UNL     1      14.852  32.785 -11.612  1.00  0.00     0.190 C 
HETATM   17  C   UNL     1      13.337  29.598 -12.730  1.00  0.00     0.227 C 
HETATM   18  C   UNL     1      15.936  33.411 -14.317  1.00  0.00     0.227 C 
HETATM   19  C   UNL     1      18.648  30.073 -13.606  1.00  0.00     0.250 C 
HETATM   20  C   UNL     1      16.580  28.132 -14.952  1.00  0.00     0.283 C 
HETATM   21  C   UNL     1      14.347  28.470 -12.903  1.00  0.00     0.250 C 
HETATM   22  C   UNL     1      18.141  33.367 -13.291  1.00  0.00     0.283 C 
HETATM   23  C   UNL     1      15.351  34.521 -13.416  1.00  0.00     0.250 C 
HETATM   24  C   UNL     1      13.751  31.916 -12.198  1.00  0.00     0.283 C 
HETATM   25  C   UNL     1      20.063  31.550 -15.113  1.00  0.00     0.153 C 
HETATM   26  C   UNL     1      13.300  27.916 -15.138  1.00  0.00     0.153 C 
HETATM   27  C   UNL     1      14.009  35.149 -11.459  1.00  0.00     0.153 C 
ENDROOT
BRANCH  15  28
HETATM   28  C   UNL     1      20.154  28.229 -14.387  1.00  0.00     0.016 C 
HETATM   29  C   UNL     1      20.484  28.143 -12.897  1.00  0.00     0.012 C 
HETATM   30  C   UNL     1      20.151  26.836 -15.015  1.00  0.00     0.012 C 
ENDBRANCH  15  28
BRANCH  14  31
HETATM   31  C   UNL     1      15.467  25.982 -15.541  1.00  0.00     0.014 C 
HETATM   32  C   UNL     1      16.823  25.751 -16.212  1.00  0.00     0.012 C 
BRANCH  31  33
HETATM   33  C   UNL     1      14.940  24.659 -14.959  1.00  0.00     0.002 C 
HETATM   34  C   UNL     1      14.861  24.650 -13.438  1.00  0.00     0.005 C 
ENDBRANCH  31  33
ENDBRANCH  14  31
BRANCH  13  35
HETATM   35  C   UNL     1      20.573  33.090 -12.665  1.00  0.00     0.014 C 
HETATM   36  C   UNL     1      20.491  33.952 -11.402  1.00  0.00     0.012 C 
BRANCH  35  37
HETATM   37  C   UNL     1      21.750  32.105 -12.546  1.00  0.00     0.002 C 
HETATM   38  C   UNL     1      21.766  31.331 -11.236  1.00  0.00     0.005 C 
ENDBRANCH  35  37
ENDBRANCH  13  35
BRANCH  17  39
HETATM   39  C   UNL     1      12.187  29.158 -11.843  1.00  0.00     0.016 C 
HETATM   40  C   UNL     1      12.254  27.656 -11.581  1.00  0.00     0.012 C 
HETATM   41  C   UNL     1      10.848  29.533 -12.476  1.00  0.00     0.012 C 
ENDBRANCH  17  39
BRANCH  18  42
HETATM   42  C   UNL     1      16.242  33.935 -15.721  1.00  0.00     0.016 C 
HETATM   43  C   UNL     1      17.107  32.938 -16.493  1.00  0.00     0.012 C 
HETATM   44  C   UNL     1      14.950  34.223 -16.483  1.00  0.00     0.012 C 
ENDBRANCH  18  42
BRANCH  16  45
HETATM   45  C   UNL     1      14.800  32.737 -10.086  1.00  0.00     0.010 C 
HETATM   46  C   UNL     1      15.987  31.953  -9.529  1.00  0.00     0.012 C 
HETATM   47  C   UNL     1      13.484  32.125  -9.609  1.00  0.00     0.012 C 
ENDBRANCH  16  45
TORSDOF 8
ENDMDL
MODEL 19
REMARK VINA RESULT:    -3.848     15.372     18.983
REMARK INTER + INTRA:          -4.902
REMARK INTER:                  -5.550
REMARK INTRA:                   0.648
REMARK UNBOUND:                 0.745
REMARK  8 active torsions:
REMARK  status: ('A' for Active; 'I' for Inactive)
REMARK    1  A    between atoms: C_13  and  C_15 
REMARK    2  A    between atoms: C_14  and  C_16 
REMARK    3  A    between atoms: C_15  and  C_22 
REMARK    4  A    between atoms: C_16  and  C_23 
REMARK    5  A    between atoms: C_17  and  C_21 
REMARK    6  A    between atoms: C_18  and  C_24 
REMARK    7  A    between atoms: C_19  and  C_27 
REMARK    8  A    between atoms: C_20  and  C_30 
ROOT
HETATM    1  O   UNL     1       2.238  31.635  -9.095  1.00  0.00    -0.304 OA
HETATM    2  O   UNL     1       3.604  28.813  -5.404  1.00  0.00    -0.304 OA
HETATM    3  O   UNL     1       3.642  32.725  -4.340  1.00  0.00    -0.304 OA
HETATM    4  O   UNL     1       1.408  30.642  -6.800  1.00  0.00    -0.270 OA
HETATM    5  O   UNL     1       4.483  31.380  -8.623  1.00  0.00    -0.263 OA
HETATM    6  O   UNL     1       2.302  33.787  -6.287  1.00  0.00    -0.270 OA
HETATM    7  O   UNL     1       2.808  27.055  -4.150  1.00  0.00    -0.263 OA
HETATM    8  O   UNL     1       5.461  27.785  -2.687  1.00  0.00    -0.270 OA
HETATM    9  O   UNL     1       5.461  32.203  -3.021  1.00  0.00    -0.263 OA
HETATM   10  N   UNL     1       1.812  28.417  -7.317  1.00  0.00    -0.340 N 
HETATM   11  N   UNL     1       4.237  33.965  -7.555  1.00  0.00    -0.340 N 
HETATM   12  N   UNL     1       4.274  29.759  -2.422  1.00  0.00    -0.340 N 
HETATM   13  C   UNL     1       1.452  27.970  -5.951  1.00  0.00     0.190 C 
HETATM   14  C   UNL     1       3.505  33.605  -8.785  1.00  0.00     0.190 C 
HETATM   15  C   UNL     1       2.033  30.208  -9.070  1.00  0.00     0.227 C 
HETATM   16  C   UNL     1       3.431  30.842  -2.969  1.00  0.00     0.190 C 
HETATM   17  C   UNL     1       4.354  33.749  -5.067  1.00  0.00     0.227 C 
HETATM   18  C   UNL     1       4.861  28.907  -4.728  1.00  0.00     0.227 C 
HETATM   19  C   UNL     1       1.728  29.782  -7.629  1.00  0.00     0.250 C 
HETATM   20  C   UNL     1       3.501  32.083  -8.822  1.00  0.00     0.283 C 
HETATM   21  C   UNL     1       3.534  33.864  -6.346  1.00  0.00     0.250 C 
HETATM   22  C   UNL     1       2.702  27.844  -5.080  1.00  0.00     0.283 C 
HETATM   23  C   UNL     1       4.880  28.752  -3.191  1.00  0.00     0.250 C 
HETATM   24  C   UNL     1       4.325  31.988  -3.416  1.00  0.00     0.283 C 
HETATM   25  C   UNL     1       2.308  27.385  -8.233  1.00  0.00     0.153 C 
HETATM   26  C   UNL     1       5.669  34.262  -7.643  1.00  0.00     0.153 C 
HETATM   27  C   UNL     1       4.489  29.734  -0.975  1.00  0.00     0.153 C 
ENDROOT
BRANCH  15  28
HETATM   28  C   UNL     1       0.839  29.914  -9.968  1.00  0.00     0.016 C 
HETATM   29  C   UNL     1      -0.004  31.172 -10.174  1.00  0.00     0.012 C 
HETATM   30  C   UNL     1       1.300  29.353 -11.313  1.00  0.00     0.012 C 
ENDBRANCH  15  28
BRANCH  14  31
HETATM   31  C   UNL     1       4.062  34.150 -10.093  1.00  0.00     0.014 C 
HETATM   32  C   UNL     1       3.550  33.308 -11.264  1.00  0.00     0.012 C 
BRANCH  31  33
HETATM   33  C   UNL     1       3.697  35.628 -10.314  1.00  0.00     0.002 C 
HETATM   34  C   UNL     1       4.279  36.216 -11.592  1.00  0.00     0.005 C 
ENDBRANCH  31  33
ENDBRANCH  14  31
BRANCH  13  35
HETATM   35  C   UNL     1       0.625  26.685  -5.931  1.00  0.00     0.014 C 
HETATM   36  C   UNL     1       1.544  25.479  -5.716  1.00  0.00     0.012 C 
BRANCH  35  37
HETATM   37  C   UNL     1      -0.467  26.707  -4.847  1.00  0.00     0.002 C 
HETATM   38  C   UNL     1      -0.367  25.553  -3.859  1.00  0.00     0.005 C 
ENDBRANCH  35  37
ENDBRANCH  13  35
BRANCH  17  39
HETATM   39  C   UNL     1       4.330  35.055  -4.294  1.00  0.00     0.016 C 
HETATM   40  C   UNL     1       3.654  36.151  -5.114  1.00  0.00     0.012 C 
HETATM   41  C   UNL     1       5.746  35.473  -3.902  1.00  0.00     0.012 C 
ENDBRANCH  17  39
BRANCH  18  42
HETATM   42  C   UNL     1       5.821  27.924  -5.401  1.00  0.00     0.016 C 
HETATM   43  C   UNL     1       5.512  27.802  -6.893  1.00  0.00     0.012 C 
HETATM   44  C   UNL     1       7.271  28.354  -5.189  1.00  0.00     0.012 C 
ENDBRANCH  18  42
BRANCH  16  45
HETATM   45  C   UNL     1       2.349  31.361  -2.024  1.00  0.00     0.010 C 
HETATM   46  C   UNL     1       0.968  31.246  -2.668  1.00  0.00     0.012 C 
HETATM   47  C   UNL     1       2.631  32.807  -1.620  1.00  0.00     0.012 C 
ENDBRANCH  16  45
TORSDOF 8
ENDMDL
MODEL 20
REMARK VINA RESULT:    -3.651      9.789     14.336
REMARK INTER + INTRA:          -4.613
REMARK INTER:                  -5.260
REMARK INTRA:                   0.647
REMARK UNBOUND:                 0.745
REMARK  8 active torsions:
REMARK  status: ('A' for Active; 'I' for Inactive)
REMARK    1  A    between atoms: C_13  and  C_15 
REMARK    2  A    between atoms: C_14  and  C_16 
REMARK    3  A    between atoms: C_15  and  C_22 
REMARK    4  A    between atoms: C_16  and  C_23 
REMARK    5  A    between atoms: C_17  and  C_21 
REMARK    6  A    between atoms: C_18  and  C_24 
REMARK    7  A    between atoms: C_19  and  C_27 
REMARK    8  A    between atoms: C_20  and  C_30 
ROOT
HETATM    1  O   UNL     1      18.641  30.198 -13.479  1.00  0.00    -0.304 OA
HETATM    2  O   UNL     1      18.307  34.507 -11.295  1.00  0.00    -0.304 OA
HETATM    3  O   UNL     1      14.687  32.692 -11.502  1.00  0.00    -0.304 OA
HETATM    4  O   UNL     1      18.346  31.331 -11.119  1.00  0.00    -0.270 OA
HETATM    5  O   UNL     1      17.904  32.029 -14.675  1.00  0.00    -0.263 OA
HETATM    6  O   UNL     1      15.374  30.272 -12.122  1.00  0.00    -0.270 OA
HETATM    7  O   UNL     1      19.180  35.631  -9.486  1.00  0.00    -0.263 OA
HETATM    8  O   UNL     1      17.003  37.605 -10.526  1.00  0.00    -0.270 OA
HETATM    9  O   UNL     1      13.800  34.805 -11.765  1.00  0.00    -0.263 OA
HETATM   10  N   UNL     1      20.228  32.681 -11.241  1.00  0.00    -0.340 N 
HETATM   11  N   UNL     1      15.385  30.825 -14.375  1.00  0.00    -0.340 N 
HETATM   12  N   UNL     1      15.688  35.778  -9.968  1.00  0.00    -0.340 N 
HETATM   13  C   UNL     1      19.902  33.358  -9.963  1.00  0.00     0.190 C 
HETATM   14  C   UNL     1      16.577  29.987 -14.610  1.00  0.00     0.190 C 
HETATM   15  C   UNL     1      19.783  30.929 -12.991  1.00  0.00     0.227 C 
HETATM   16  C   UNL     1      15.416  34.326  -9.996  1.00  0.00     0.190 C 
HETATM   17  C   UNL     1      14.103  32.201 -12.727  1.00  0.00     0.227 C 
HETATM   18  C   UNL     1      17.478  35.585 -11.742  1.00  0.00     0.227 C 
HETATM   19  C   UNL     1      19.382  31.663 -11.706  1.00  0.00     0.250 C 
HETATM   20  C   UNL     1      17.768  30.878 -14.282  1.00  0.00     0.283 C 
HETATM   21  C   UNL     1      14.984  30.999 -13.042  1.00  0.00     0.250 C 
HETATM   22  C   UNL     1      19.133  34.654 -10.222  1.00  0.00     0.283 C 
HETATM   23  C   UNL     1      16.719  36.412 -10.681  1.00  0.00     0.250 C 
HETATM   24  C   UNL     1      14.526  34.011 -11.187  1.00  0.00     0.283 C 
HETATM   25  C   UNL     1      21.394  33.190 -11.970  1.00  0.00     0.153 C 
HETATM   26  C   UNL     1      14.784  31.536 -15.506  1.00  0.00     0.153 C 
HETATM   27  C   UNL     1      14.821  36.613  -9.136  1.00  0.00     0.153 C 
ENDROOT
BRANCH  15  28
HETATM   28  C   UNL     1      20.873  29.908 -12.693  1.00  0.00     0.016 C 
HETATM   29  C   UNL     1      20.313  28.488 -12.759  1.00  0.00     0.012 C 
HETATM   30  C   UNL     1      22.042  30.067 -13.664  1.00  0.00     0.012 C 
ENDBRANCH  15  28
BRANCH  14  31
HETATM   31  C   UNL     1      16.737  29.408 -16.009  1.00  0.00     0.014 C 
HETATM   32  C   UNL     1      18.216  29.127 -16.286  1.00  0.00     0.012 C 
BRANCH  31  33
HETATM   33  C   UNL     1      15.915  28.122 -16.207  1.00  0.00     0.002 C 
HETATM   34  C   UNL     1      16.561  26.886 -15.596  1.00  0.00     0.005 C 
ENDBRANCH  31  33
ENDBRANCH  14  31
BRANCH  13  35
HETATM   35  C   UNL     1      21.122  33.598  -9.075  1.00  0.00     0.014 C 
HETATM   36  C   UNL     1      20.670  34.065  -7.689  1.00  0.00     0.012 C 
BRANCH  35  37
HETATM   37  C   UNL     1      22.006  32.345  -8.939  1.00  0.00     0.002 C 
HETATM   38  C   UNL     1      22.392  32.025  -7.502  1.00  0.00     0.005 C 
ENDBRANCH  35  37
ENDBRANCH  13  35
BRANCH  17  39
HETATM   39  C   UNL     1      12.668  31.767 -12.488  1.00  0.00     0.016 C 
HETATM   40  C   UNL     1      11.696  32.845 -12.961  1.00  0.00     0.012 C 
HETATM   41  C   UNL     1      12.442  31.451 -11.011  1.00  0.00     0.012 C 
ENDBRANCH  17  39
BRANCH  18  42
HETATM   42  C   UNL     1      18.331  36.479 -12.643  1.00  0.00     0.016 C 
HETATM   43  C   UNL     1      19.313  35.642 -13.462  1.00  0.00     0.012 C 
HETATM   44  C   UNL     1      17.447  37.319 -13.563  1.00  0.00     0.012 C 
ENDBRANCH  18  42
BRANCH  16  45
HETATM   45  C   UNL     1      14.801  33.758  -8.718  1.00  0.00     0.010 C 
HETATM   46  C   UNL     1      15.184  32.289  -8.540  1.00  0.00     0.012 C 
HETATM   47  C   UNL     1      13.281  33.915  -8.733  1.00  0.00     0.012 C 
ENDBRANCH  16  45
TORSDOF 8
ENDMDL
