MODEL 1
REMARK VINA RESULT:    -5.196      0.000      0.000
REMARK INTER + INTRA:          -7.064
REMARK INTER:                  -7.626
REMARK INTRA:                   0.562
REMARK UNBOUND:                 0.562
REMARK  8 active torsions:
REMARK  status: ('A' for Active; 'I' for Inactive)
REMARK    1  A    between atoms: C_13  and  C_15 
REMARK    2  A    between atoms: C_14  and  C_16 
REMARK    3  A    between atoms: C_15  and  C_22 
REMARK    4  A    between atoms: C_16  and  C_23 
REMARK    5  A    between atoms: C_17  and  C_21 
REMARK    6  A    between atoms: C_18  and  C_24 
REMARK    7  A    between atoms: C_19  and  C_27 
REMARK    8  A    between atoms: C_20  and  C_30 
ROOT
HETATM    1  O   UNL     1      20.750  20.031  46.472  1.00  0.00    -0.304 OA
HETATM    2  O   UNL     1      22.669  18.469  42.309  1.00  0.00    -0.304 OA
HETATM    3  O   UNL     1      20.192  15.686  43.908  1.00  0.00    -0.304 OA
HETATM    4  O   UNL     1      20.183  19.608  43.935  1.00  0.00    -0.270 OA
HETATM    5  O   UNL     1      22.557  18.595  46.516  1.00  0.00    -0.263 OA
HETATM    6  O   UNL     1      18.942  17.092  45.691  1.00  0.00    -0.270 OA
HETATM    7  O   UNL     1      22.798  19.085  40.095  1.00  0.00    -0.263 OA
HETATM    8  O   UNL     1      24.138  16.271  40.097  1.00  0.00    -0.270 OA
HETATM    9  O   UNL     1      21.638  14.108  43.046  1.00  0.00    -0.263 OA
HETATM   10  N   UNL     1      21.907  20.893  43.064  1.00  0.00    -0.340 N 
HETATM   11  N   UNL     1      20.629  16.683  47.231  1.00  0.00    -0.340 N 
HETATM   12  N   UNL     1      22.001  15.724  40.809  1.00  0.00    -0.340 N 
HETATM   13  C   UNL     1      21.591  20.488  41.674  1.00  0.00     0.190 C 
HETATM   14  C   UNL     1      20.530  18.060  47.755  1.00  0.00     0.190 C 
HETATM   15  C   UNL     1      21.415  20.898  45.532  1.00  0.00     0.227 C 
HETATM   16  C   UNL     1      20.827  15.963  41.675  1.00  0.00     0.190 C 
HETATM   17  C   UNL     1      20.311  15.183  45.257  1.00  0.00     0.227 C 
HETATM   18  C   UNL     1      23.454  17.282  42.169  1.00  0.00     0.227 C 
HETATM   19  C   UNL     1      21.113  20.403  44.112  1.00  0.00     0.250 C 
HETATM   20  C   UNL     1      21.421  18.902  46.852  1.00  0.00     0.283 C 
HETATM   21  C   UNL     1      19.877  16.385  46.086  1.00  0.00     0.250 C 
HETATM   22  C   UNL     1      22.456  19.301  41.251  1.00  0.00     0.283 C 
HETATM   23  C   UNL     1      23.228  16.397  40.923  1.00  0.00     0.250 C 
HETATM   24  C   UNL     1      20.957  15.117  42.932  1.00  0.00     0.283 C 
HETATM   25  C   UNL     1      23.094  21.735  43.245  1.00  0.00     0.153 C 
HETATM   26  C   UNL     1      21.598  15.763  47.832  1.00  0.00     0.153 C 
HETATM   27  C   UNL     1      21.873  14.713  39.759  1.00  0.00     0.153 C 
ENDROOT
BRANCH  15  28
HETATM   28  C   UNL     1      20.843  22.295  45.733  1.00  0.00     0.016 C 
HETATM   29  C   UNL     1      19.503  22.230  46.462  1.00  0.00     0.012 C 
HETATM   30  C   UNL     1      21.828  23.175  46.501  1.00  0.00     0.012 C 
ENDBRANCH  15  28
BRANCH  14  31
HETATM   31  C   UNL     1      20.931  18.264  49.210  1.00  0.00     0.014 C 
HETATM   32  C   UNL     1      21.269  19.738  49.450  1.00  0.00     0.012 C 
BRANCH  31  33
HETATM   33  C   UNL     1      19.832  17.814  50.189  1.00  0.00     0.002 C 
HETATM   34  C   UNL     1      18.423  18.142  49.715  1.00  0.00     0.005 C 
ENDBRANCH  31  33
ENDBRANCH  14  31
BRANCH  13  35
HETATM   35  C   UNL     1      21.686  21.636  40.671  1.00  0.00     0.014 C 
HETATM   36  C   UNL     1      22.854  21.392  39.712  1.00  0.00     0.012 C 
BRANCH  35  37
HETATM   37  C   UNL     1      20.386  21.824  39.868  1.00  0.00     0.002 C 
HETATM   38  C   UNL     1      19.143  21.336  40.599  1.00  0.00     0.005 C 
ENDBRANCH  35  37
ENDBRANCH  13  35
BRANCH  17  39
HETATM   39  C   UNL     1      19.365  14.015  45.467  1.00  0.00     0.016 C 
HETATM   40  C   UNL     1      18.342  14.341  46.552  1.00  0.00     0.012 C 
HETATM   41  C   UNL     1      20.144  12.751  45.826  1.00  0.00     0.012 C 
ENDBRANCH  17  39
BRANCH  18  42
HETATM   42  C   UNL     1      24.924  17.681  42.312  1.00  0.00     0.016 C 
HETATM   43  C   UNL     1      25.080  18.815  43.325  1.00  0.00     0.012 C 
HETATM   44  C   UNL     1      25.773  16.479  42.719  1.00  0.00     0.012 C 
ENDBRANCH  18  42
BRANCH  16  45
HETATM   45  C   UNL     1      19.474  15.712  41.013  1.00  0.00     0.010 C 
HETATM   46  C   UNL     1      18.564  16.930  41.166  1.00  0.00     0.012 C 
HETATM   47  C   UNL     1      18.806  14.470  41.601  1.00  0.00     0.012 C 
ENDBRANCH  16  45
TORSDOF 8
ENDMDL
MODEL 2
REMARK VINA RESULT:    -4.911     19.680     24.365
REMARK INTER + INTRA:          -6.646
REMARK INTER:                  -7.104
REMARK INTRA:                   0.457
REMARK UNBOUND:                 0.562
REMARK  8 active torsions:
REMARK  status: ('A' for Active; 'I' for Inactive)
REMARK    1  A    between atoms: C_13  and  C_15 
REMARK    2  A    between atoms: C_14  and  C_16 
REMARK    3  A    between atoms: C_15  and  C_22 
REMARK    4  A    between atoms: C_16  and  C_23 
REMARK    5  A    between atoms: C_17  and  C_21 
REMARK    6  A    between atoms: C_18  and  C_24 
REMARK    7  A    between atoms: C_19  and  C_27 
REMARK    8  A    between atoms: C_20  and  C_30 
ROOT
HETATM    1  O   UNL     1      45.792  13.716  38.522  1.00  0.00    -0.304 OA
HETATM    2  O   UNL     1      43.561  10.197  40.989  1.00  0.00    -0.304 OA
HETATM    3  O   UNL     1      41.974  13.824  41.865  1.00  0.00    -0.304 OA
HETATM    4  O   UNL     1      43.565  12.313  38.614  1.00  0.00    -0.270 OA
HETATM    5  O   UNL     1      46.367  13.324  40.723  1.00  0.00    -0.263 OA
HETATM    6  O   UNL     1      42.960  15.276  39.958  1.00  0.00    -0.270 OA
HETATM    7  O   UNL     1      42.403   8.246  40.605  1.00  0.00    -0.263 OA
HETATM    8  O   UNL     1      42.104   8.617  43.685  1.00  0.00    -0.270 OA
HETATM    9  O   UNL     1      41.658  13.013  44.001  1.00  0.00    -0.263 OA
HETATM   10  N   UNL     1      44.570  10.223  38.538  1.00  0.00    -0.340 N 
HETATM   11  N   UNL     1      44.879  15.655  41.206  1.00  0.00    -0.340 N 
HETATM   12  N   UNL     1      41.033  10.526  42.922  1.00  0.00    -0.340 N 
HETATM   13  C   UNL     1      43.277   9.525  38.729  1.00  0.00     0.190 C 
HETATM   14  C   UNL     1      45.723  15.559  39.999  1.00  0.00     0.190 C 
HETATM   15  C   UNL     1      45.923  12.317  38.200  1.00  0.00     0.227 C 
HETATM   16  C   UNL     1      40.980  11.715  42.045  1.00  0.00     0.190 C 
HETATM   17  C   UNL     1      42.751  14.954  42.315  1.00  0.00     0.227 C 
HETATM   18  C   UNL     1      43.477  10.129  42.416  1.00  0.00     0.227 C 
HETATM   19  C   UNL     1      44.583  11.625  38.474  1.00  0.00     0.250 C 
HETATM   20  C   UNL     1      46.010  14.074  39.824  1.00  0.00     0.283 C 
HETATM   21  C   UNL     1      43.521  15.335  41.058  1.00  0.00     0.250 C 
HETATM   22  C   UNL     1      43.053   9.204  40.207  1.00  0.00     0.283 C 
HETATM   23  C   UNL     1      42.143   9.676  43.050  1.00  0.00     0.250 C 
HETATM   24  C   UNL     1      41.565  12.905  42.788  1.00  0.00     0.283 C 
HETATM   25  C   UNL     1      45.769   9.379  38.504  1.00  0.00     0.153 C 
HETATM   26  C   UNL     1      45.514  15.932  42.497  1.00  0.00     0.153 C 
HETATM   27  C   UNL     1      39.841  10.214  43.710  1.00  0.00     0.153 C 
ENDROOT
BRANCH  15  28
HETATM   28  C   UNL     1      46.266  12.231  36.719  1.00  0.00     0.016 C 
HETATM   29  C   UNL     1      45.335  13.122  35.898  1.00  0.00     0.012 C 
HETATM   30  C   UNL     1      47.724  12.617  36.479  1.00  0.00     0.012 C 
ENDBRANCH  15  28
BRANCH  14  31
HETATM   31  C   UNL     1      47.032  16.337  40.021  1.00  0.00     0.014 C 
HETATM   32  C   UNL     1      47.999  15.750  38.989  1.00  0.00     0.012 C 
BRANCH  31  33
HETATM   33  C   UNL     1      46.825  17.837  39.749  1.00  0.00     0.002 C 
HETATM   34  C   UNL     1      47.427  18.739  40.818  1.00  0.00     0.005 C 
ENDBRANCH  31  33
ENDBRANCH  14  31
BRANCH  13  35
HETATM   35  C   UNL     1      43.124   8.281  37.857  1.00  0.00     0.014 C 
HETATM   36  C   UNL     1      41.657   7.844  37.828  1.00  0.00     0.012 C 
BRANCH  35  37
HETATM   37  C   UNL     1      43.628   8.506  36.419  1.00  0.00     0.002 C 
HETATM   38  C   UNL     1      43.855   7.216  35.645  1.00  0.00     0.005 C 
ENDBRANCH  35  37
ENDBRANCH  13  35
BRANCH  17  39
HETATM   39  C   UNL     1      41.833  16.084  42.746  1.00  0.00     0.016 C 
HETATM   40  C   UNL     1      41.603  17.057  41.593  1.00  0.00     0.012 C 
HETATM   41  C   UNL     1      42.411  16.813  43.957  1.00  0.00     0.012 C 
ENDBRANCH  17  39
BRANCH  18  42
HETATM   42  C   UNL     1      44.648   9.276  42.907  1.00  0.00     0.016 C 
HETATM   43  C   UNL     1      45.898   9.540  42.068  1.00  0.00     0.012 C 
HETATM   44  C   UNL     1      44.928   9.542  44.384  1.00  0.00     0.012 C 
ENDBRANCH  18  42
BRANCH  16  45
HETATM   45  C   UNL     1      39.593  12.062  41.508  1.00  0.00     0.010 C 
HETATM   46  C   UNL     1      39.600  12.105  39.980  1.00  0.00     0.012 C 
HETATM   47  C   UNL     1      39.111  13.396  42.078  1.00  0.00     0.012 C 
ENDBRANCH  16  45
TORSDOF 8
ENDMDL
MODEL 3
REMARK VINA RESULT:    -4.654      5.028      9.586
REMARK INTER + INTRA:          -6.269
REMARK INTER:                  -6.759
REMARK INTRA:                   0.490
REMARK UNBOUND:                 0.562
REMARK  8 active torsions:
REMARK  status: ('A' for Active; 'I' for Inactive)
REMARK    1  A    between atoms: C_13  and  C_15 
REMARK    2  A    between atoms: C_14  and  C_16 
REMARK    3  A    between atoms: C_15  and  C_22 
REMARK    4  A    between atoms: C_16  and  C_23 
REMARK    5  A    between atoms: C_17  and  C_21 
REMARK    6  A    between atoms: C_18  and  C_24 
REMARK    7  A    between atoms: C_19  and  C_27 
REMARK    8  A    between atoms: C_20  and  C_30 
ROOT
HETATM    1  O   UNL     1      22.446   9.687  39.022  1.00  0.00    -0.304 OA
HETATM    2  O   UNL     1      23.570  14.236  40.244  1.00  0.00    -0.304 OA
HETATM    3  O   UNL     1      24.960  11.601  42.995  1.00  0.00    -0.304 OA
HETATM    4  O   UNL     1      24.448  11.396  39.111  1.00  0.00    -0.270 OA
HETATM    5  O   UNL     1      21.163  10.798  40.587  1.00  0.00    -0.263 OA
HETATM    6  O   UNL     1      24.725   9.363  41.709  1.00  0.00    -0.270 OA
HETATM    7  O   UNL     1      24.693  16.056  39.394  1.00  0.00    -0.263 OA
HETATM    8  O   UNL     1      23.984  16.985  42.284  1.00  0.00    -0.270 OA
HETATM    9  O   UNL     1      24.518  13.227  44.570  1.00  0.00    -0.263 OA
HETATM   10  N   UNL     1      23.422  13.065  37.870  1.00  0.00    -0.340 N 
HETATM   11  N   UNL     1      22.524   9.159  42.415  1.00  0.00    -0.340 N 
HETATM   12  N   UNL     1      25.339  15.160  42.744  1.00  0.00    -0.340 N 
HETATM   13  C   UNL     1      24.545  14.006  38.091  1.00  0.00     0.190 C 
HETATM   14  C   UNL     1      22.118   8.618  41.104  1.00  0.00     0.190 C 
HETATM   15  C   UNL     1      22.359  10.797  38.108  1.00  0.00     0.227 C 
HETATM   16  C   UNL     1      25.734  13.754  42.516  1.00  0.00     0.190 C 
HETATM   17  C   UNL     1      24.135  10.616  43.654  1.00  0.00     0.227 C 
HETATM   18  C   UNL     1      23.178  14.872  41.465  1.00  0.00     0.227 C 
HETATM   19  C   UNL     1      23.500  11.774  38.414  1.00  0.00     0.250 C 
HETATM   20  C   UNL     1      21.832   9.835  40.235  1.00  0.00     0.283 C 
HETATM   21  C   UNL     1      23.838   9.639  42.524  1.00  0.00     0.250 C 
HETATM   22  C   UNL     1      24.256  14.917  39.285  1.00  0.00     0.283 C 
HETATM   23  C   UNL     1      24.207  15.773  42.183  1.00  0.00     0.250 C 
HETATM   24  C   UNL     1      24.998  12.866  43.506  1.00  0.00     0.283 C 
HETATM   25  C   UNL     1      22.260  13.593  37.147  1.00  0.00     0.153 C 
HETATM   26  C   UNL     1      21.516   9.300  43.468  1.00  0.00     0.153 C 
HETATM   27  C   UNL     1      26.190  15.969  43.617  1.00  0.00     0.153 C 
ENDROOT
BRANCH  15  28
HETATM   28  C   UNL     1      22.517  10.231  36.703  1.00  0.00     0.016 C 
HETATM   29  C   UNL     1      23.803   9.413  36.592  1.00  0.00     0.012 C 
HETATM   30  C   UNL     1      21.307   9.378  36.326  1.00  0.00     0.012 C 
ENDBRANCH  15  28
BRANCH  14  31
HETATM   31  C   UNL     1      20.914   7.685  41.096  1.00  0.00     0.014 C 
HETATM   32  C   UNL     1      20.261   7.696  39.712  1.00  0.00     0.012 C 
BRANCH  31  33
HETATM   33  C   UNL     1      21.288   6.244  41.485  1.00  0.00     0.002 C 
HETATM   34  C   UNL     1      20.319   5.198  40.952  1.00  0.00     0.005 C 
ENDBRANCH  31  33
ENDBRANCH  14  31
BRANCH  13  35
HETATM   35  C   UNL     1      24.914  14.814  36.848  1.00  0.00     0.014 C 
HETATM   36  C   UNL     1      26.344  15.344  36.979  1.00  0.00     0.012 C 
BRANCH  35  37
HETATM   37  C   UNL     1      24.780  13.992  35.553  1.00  0.00     0.002 C 
HETATM   38  C   UNL     1      25.910  12.994  35.346  1.00  0.00     0.005 C 
ENDBRANCH  35  37
ENDBRANCH  13  35
BRANCH  17  39
HETATM   39  C   UNL     1      24.915   9.935  44.763  1.00  0.00     0.016 C 
HETATM   40  C   UNL     1      26.334   9.612  44.301  1.00  0.00     0.012 C 
HETATM   41  C   UNL     1      24.199   8.667  45.223  1.00  0.00     0.012 C 
ENDBRANCH  17  39
BRANCH  18  42
HETATM   42  C   UNL     1      21.871  15.619  41.197  1.00  0.00     0.016 C 
HETATM   43  C   UNL     1      20.963  14.805  40.275  1.00  0.00     0.012 C 
HETATM   44  C   UNL     1      21.155  15.941  42.506  1.00  0.00     0.012 C 
ENDBRANCH  18  42
BRANCH  16  45
HETATM   45  C   UNL     1      27.236  13.485  42.587  1.00  0.00     0.010 C 
HETATM   46  C   UNL     1      27.667  12.530  41.474  1.00  0.00     0.012 C 
HETATM   47  C   UNL     1      27.621  12.920  43.954  1.00  0.00     0.012 C 
ENDBRANCH  16  45
TORSDOF 8
ENDMDL
MODEL 4
REMARK VINA RESULT:    -4.637     20.534     24.958
REMARK INTER + INTRA:          -6.244
REMARK INTER:                  -6.998
REMARK INTRA:                   0.754
REMARK UNBOUND:                 0.562
REMARK  8 active torsions:
REMARK  status: ('A' for Active; 'I' for Inactive)
REMARK    1  A    between atoms: C_13  and  C_15 
REMARK    2  A    between atoms: C_14  and  C_16 
REMARK    3  A    between atoms: C_15  and  C_22 
REMARK    4  A    between atoms: C_16  and  C_23 
REMARK    5  A    between atoms: C_17  and  C_21 
REMARK    6  A    between atoms: C_18  and  C_24 
REMARK    7  A    between atoms: C_19  and  C_27 
REMARK    8  A    between atoms: C_20  and  C_30 
ROOT
HETATM    1  O   UNL     1      45.045  11.794  37.867  1.00  0.00    -0.304 OA
HETATM    2  O   UNL     1      43.933  15.453  40.838  1.00  0.00    -0.304 OA
HETATM    3  O   UNL     1      45.130  12.191  42.927  1.00  0.00    -0.304 OA
HETATM    4  O   UNL     1      46.121  13.633  39.417  1.00  0.00    -0.270 OA
HETATM    5  O   UNL     1      42.986  11.832  38.911  1.00  0.00    -0.263 OA
HETATM    6  O   UNL     1      46.191  10.755  41.049  1.00  0.00    -0.270 OA
HETATM    7  O   UNL     1      44.538  17.638  41.236  1.00  0.00    -0.263 OA
HETATM    8  O   UNL     1      42.578  17.038  43.584  1.00  0.00    -0.270 OA
HETATM    9  O   UNL     1      43.606  12.835  44.535  1.00  0.00    -0.263 OA
HETATM   10  N   UNL     1      45.061  15.450  38.439  1.00  0.00    -0.340 N 
HETATM   11  N   UNL     1      44.118   9.845  40.539  1.00  0.00    -0.340 N 
HETATM   12  N   UNL     1      44.250  15.493  44.022  1.00  0.00    -0.340 N 
HETATM   13  C   UNL     1      45.611  16.391  39.444  1.00  0.00     0.190 C 
HETATM   14  C   UNL     1      44.423   9.874  39.095  1.00  0.00     0.190 C 
HETATM   15  C   UNL     1      44.885  13.156  37.422  1.00  0.00     0.227 C 
HETATM   16  C   UNL     1      45.183  14.437  43.574  1.00  0.00     0.190 C 
HETATM   17  C   UNL     1      44.545  10.879  42.775  1.00  0.00     0.227 C 
HETATM   18  C   UNL     1      42.937  15.396  41.864  1.00  0.00     0.227 C 
HETATM   19  C   UNL     1      45.408  14.093  38.517  1.00  0.00     0.250 C 
HETATM   20  C   UNL     1      44.037  11.271  38.629  1.00  0.00     0.283 C 
HETATM   21  C   UNL     1      45.040  10.466  41.395  1.00  0.00     0.250 C 
HETATM   22  C   UNL     1      44.613  16.605  40.582  1.00  0.00     0.283 C 
HETATM   23  C   UNL     1      43.246  16.064  43.222  1.00  0.00     0.250 C 
HETATM   24  C   UNL     1      44.524  13.080  43.767  1.00  0.00     0.283 C 
HETATM   25  C   UNL     1      44.119  16.012  37.466  1.00  0.00     0.153 C 
HETATM   26  C   UNL     1      42.828   9.311  40.982  1.00  0.00     0.153 C 
HETATM   27  C   UNL     1      44.386  15.978  45.395  1.00  0.00     0.153 C 
ENDROOT
BRANCH  15  28
HETATM   28  C   UNL     1      45.719  13.311  36.157  1.00  0.00     0.016 C 
HETATM   29  C   UNL     1      46.931  12.382  36.192  1.00  0.00     0.012 C 
HETATM   30  C   UNL     1      44.872  13.038  34.916  1.00  0.00     0.012 C 
ENDBRANCH  15  28
BRANCH  14  31
HETATM   31  C   UNL     1      43.725   8.832  38.232  1.00  0.00     0.014 C 
HETATM   32  C   UNL     1      42.484   9.446  37.582  1.00  0.00     0.012 C 
BRANCH  31  33
HETATM   33  C   UNL     1      44.652   8.256  37.146  1.00  0.00     0.002 C 
HETATM   34  C   UNL     1      43.906   7.643  35.970  1.00  0.00     0.005 C 
ENDBRANCH  31  33
ENDBRANCH  14  31
BRANCH  13  35
HETATM   35  C   UNL     1      46.070  17.719  38.844  1.00  0.00     0.014 C 
HETATM   36  C   UNL     1      47.062  18.400  39.791  1.00  0.00     0.012 C 
BRANCH  35  37
HETATM   37  C   UNL     1      46.712  17.546  37.456  1.00  0.00     0.002 C 
HETATM   38  C   UNL     1      46.503  18.739  36.535  1.00  0.00     0.005 C 
ENDBRANCH  35  37
ENDBRANCH  13  35
BRANCH  17  39
HETATM   39  C   UNL     1      45.079   9.940  43.841  1.00  0.00     0.016 C 
HETATM   40  C   UNL     1      45.974   8.872  43.216  1.00  0.00     0.012 C 
HETATM   41  C   UNL     1      43.930   9.293  44.611  1.00  0.00     0.012 C 
ENDBRANCH  17  39
BRANCH  18  42
HETATM   42  C   UNL     1      41.631  15.922  41.267  1.00  0.00     0.016 C 
HETATM   43  C   UNL     1      41.496  15.499  39.805  1.00  0.00     0.012 C 
HETATM   44  C   UNL     1      40.432  15.432  42.078  1.00  0.00     0.012 C 
ENDBRANCH  18  42
BRANCH  16  45
HETATM   45  C   UNL     1      46.552  14.455  44.249  1.00  0.00     0.010 C 
HETATM   46  C   UNL     1      47.667  14.542  43.208  1.00  0.00     0.012 C 
HETATM   47  C   UNL     1      46.739  13.219  45.128  1.00  0.00     0.012 C 
ENDBRANCH  16  45
TORSDOF 8
ENDMDL
MODEL 5
REMARK VINA RESULT:    -4.535     19.394     24.004
REMARK INTER + INTRA:          -6.094
REMARK INTER:                  -6.487
REMARK INTRA:                   0.393
REMARK UNBOUND:                 0.562
REMARK  8 active torsions:
REMARK  status: ('A' for Active; 'I' for Inactive)
REMARK    1  A    between atoms: C_13  and  C_15 
REMARK    2  A    between atoms: C_14  and  C_16 
REMARK    3  A    between atoms: C_15  and  C_22 
REMARK    4  A    between atoms: C_16  and  C_23 
REMARK    5  A    between atoms: C_17  and  C_21 
REMARK    6  A    between atoms: C_18  and  C_24 
REMARK    7  A    between atoms: C_19  and  C_27 
REMARK    8  A    between atoms: C_20  and  C_30 
ROOT
HETATM    1  O   UNL     1      45.453  15.884  40.528  1.00  0.00    -0.304 OA
HETATM    2  O   UNL     1      41.780  13.509  42.605  1.00  0.00    -0.304 OA
HETATM    3  O   UNL     1      44.152  10.978  40.506  1.00  0.00    -0.304 OA
HETATM    4  O   UNL     1      44.869  14.265  42.522  1.00  0.00    -0.270 OA
HETATM    5  O   UNL     1      43.592  15.340  39.275  1.00  0.00    -0.263 OA
HETATM    6  O   UNL     1      46.241  12.460  40.111  1.00  0.00    -0.270 OA
HETATM    7  O   UNL     1      40.885  13.140  44.693  1.00  0.00    -0.263 OA
HETATM    8  O   UNL     1      39.181  11.261  42.882  1.00  0.00    -0.270 OA
HETATM    9  O   UNL     1      42.227   9.807  40.012  1.00  0.00    -0.263 OA
HETATM   10  N   UNL     1      43.199  15.584  43.447  1.00  0.00    -0.340 N 
HETATM   11  N   UNL     1      45.271  13.361  38.205  1.00  0.00    -0.340 N 
HETATM   12  N   UNL     1      41.290  10.348  42.576  1.00  0.00    -0.340 N 
HETATM   13  C   UNL     1      42.853  14.550  44.450  1.00  0.00     0.190 C 
HETATM   14  C   UNL     1      45.816  14.696  38.518  1.00  0.00     0.190 C 
HETATM   15  C   UNL     1      44.633  16.449  41.569  1.00  0.00     0.227 C 
HETATM   16  C   UNL     1      42.734  10.496  42.302  1.00  0.00     0.190 C 
HETATM   17  C   UNL     1      44.498  11.165  39.117  1.00  0.00     0.227 C 
HETATM   18  C   UNL     1      40.807  12.734  41.898  1.00  0.00     0.227 C 
HETATM   19  C   UNL     1      44.246  15.333  42.547  1.00  0.00     0.250 C 
HETATM   20  C   UNL     1      44.803  15.336  39.457  1.00  0.00     0.283 C 
HETATM   21  C   UNL     1      45.434  12.365  39.179  1.00  0.00     0.250 C 
HETATM   22  C   UNL     1      41.694  13.685  43.953  1.00  0.00     0.283 C 
HETATM   23  C   UNL     1      40.353  11.392  42.513  1.00  0.00     0.250 C 
HETATM   24  C   UNL     1      42.972  10.362  40.806  1.00  0.00     0.283 C 
HETATM   25  C   UNL     1      42.354  16.783  43.426  1.00  0.00     0.153 C 
HETATM   26  C   UNL     1      44.479  13.186  36.985  1.00  0.00     0.153 C 
HETATM   27  C   UNL     1      40.804   9.017  42.940  1.00  0.00     0.153 C 
ENDROOT
BRANCH  15  28
HETATM   28  C   UNL     1      45.475  17.500  42.280  1.00  0.00     0.016 C 
HETATM   29  C   UNL     1      46.441  16.842  43.264  1.00  0.00     0.012 C 
HETATM   30  C   UNL     1      46.241  18.352  41.268  1.00  0.00     0.012 C 
ENDBRANCH  15  28
BRANCH  14  31
HETATM   31  C   UNL     1      46.076  15.620  37.335  1.00  0.00     0.014 C 
HETATM   32  C   UNL     1      45.972  17.079  37.786  1.00  0.00     0.012 C 
BRANCH  31  33
HETATM   33  C   UNL     1      47.450  15.370  36.689  1.00  0.00     0.002 C 
HETATM   34  C   UNL     1      47.730  16.263  35.488  1.00  0.00     0.005 C 
ENDBRANCH  31  33
ENDBRANCH  14  31
BRANCH  13  35
HETATM   35  C   UNL     1      42.568  15.122  45.838  1.00  0.00     0.014 C 
HETATM   36  C   UNL     1      42.805  14.046  46.902  1.00  0.00     0.012 C 
BRANCH  35  37
HETATM   37  C   UNL     1      43.429  16.360  46.151  1.00  0.00     0.002 C 
HETATM   38  C   UNL     1      44.840  16.021  46.607  1.00  0.00     0.005 C 
ENDBRANCH  35  37
ENDBRANCH  13  35
BRANCH  17  39
HETATM   39  C   UNL     1      45.224   9.943  38.587  1.00  0.00     0.016 C 
HETATM   40  C   UNL     1      46.655  10.299  38.189  1.00  0.00     0.012 C 
HETATM   41  C   UNL     1      44.471   9.343  37.401  1.00  0.00     0.012 C 
ENDBRANCH  17  39
BRANCH  18  42
HETATM   42  C   UNL     1      39.615  13.647  41.606  1.00  0.00     0.016 C 
HETATM   43  C   UNL     1      40.077  15.089  41.397  1.00  0.00     0.012 C 
HETATM   44  C   UNL     1      38.842  13.151  40.385  1.00  0.00     0.012 C 
ENDBRANCH  18  42
BRANCH  16  45
HETATM   45  C   UNL     1      43.640   9.531  43.064  1.00  0.00     0.010 C 
HETATM   46  C   UNL     1      44.645  10.298  43.924  1.00  0.00     0.012 C 
HETATM   47  C   UNL     1      44.367   8.595  42.099  1.00  0.00     0.012 C 
ENDBRANCH  16  45
TORSDOF 8
ENDMDL
MODEL 6
REMARK VINA RESULT:    -4.450     18.724     23.542
REMARK INTER + INTRA:          -5.970
REMARK INTER:                  -6.598
REMARK INTRA:                   0.629
REMARK UNBOUND:                 0.562
REMARK  8 active torsions:
REMARK  status: ('A' for Active; 'I' for Inactive)
REMARK    1  A    between atoms: C_13  and  C_15 
REMARK    2  A    between atoms: C_14  and  C_16 
REMARK    3  A    between atoms: C_15  and  C_22 
REMARK    4  A    between atoms: C_16  and  C_23 
REMARK    5  A    between atoms: C_17  and  C_21 
REMARK    6  A    between atoms: C_18  and  C_24 
REMARK    7  A    between atoms: C_19  and  C_27 
REMARK    8  A    between atoms: C_20  and  C_30 
ROOT
HETATM    1  O   UNL     1      45.402  13.334  38.867  1.00  0.00    -0.304 OA
HETATM    2  O   UNL     1      42.315   9.876  40.270  1.00  0.00    -0.304 OA
HETATM    3  O   UNL     1      40.558  13.528  40.373  1.00  0.00    -0.304 OA
HETATM    4  O   UNL     1      43.310  11.946  38.068  1.00  0.00    -0.270 OA
HETATM    5  O   UNL     1      45.030  12.980  41.117  1.00  0.00    -0.263 OA
HETATM    6  O   UNL     1      42.251  14.938  39.008  1.00  0.00    -0.270 OA
HETATM    7  O   UNL     1      41.386   7.925  39.477  1.00  0.00    -0.263 OA
HETATM    8  O   UNL     1      39.870   8.356  42.166  1.00  0.00    -0.270 OA
HETATM    9  O   UNL     1      39.393  12.761  42.210  1.00  0.00    -0.263 OA
HETATM   10  N   UNL     1      44.231   9.849  38.438  1.00  0.00    -0.340 N 
HETATM   11  N   UNL     1      43.505  15.329  40.921  1.00  0.00    -0.340 N 
HETATM   12  N   UNL     1      39.225  10.258  41.006  1.00  0.00    -0.340 N 
HETATM   13  C   UNL     1      42.962   9.163  38.099  1.00  0.00     0.190 C 
HETATM   14  C   UNL     1      44.765  15.204  40.162  1.00  0.00     0.190 C 
HETATM   15  C   UNL     1      45.633  11.928  38.646  1.00  0.00     0.227 C 
HETATM   16  C   UNL     1      39.549  11.430  40.166  1.00  0.00     0.190 C 
HETATM   17  C   UNL     1      41.101  14.662  41.083  1.00  0.00     0.227 C 
HETATM   18  C   UNL     1      41.659   9.836  41.541  1.00  0.00     0.227 C 
HETATM   19  C   UNL     1      44.288  11.249  38.363  1.00  0.00     0.250 C 
HETATM   20  C   UNL     1      45.078  13.714  40.139  1.00  0.00     0.283 C 
HETATM   21  C   UNL     1      42.320  15.014  40.240  1.00  0.00     0.250 C 
HETATM   22  C   UNL     1      42.154   8.872  39.364  1.00  0.00     0.283 C 
HETATM   23  C   UNL     1      40.177   9.403  41.586  1.00  0.00     0.250 C 
HETATM   24  C   UNL     1      39.798  12.630  41.064  1.00  0.00     0.283 C 
HETATM   25  C   UNL     1      45.330   8.997  38.905  1.00  0.00     0.153 C 
HETATM   26  C   UNL     1      43.567  15.626  42.354  1.00  0.00     0.153 C 
HETATM   27  C   UNL     1      37.812   9.968  41.248  1.00  0.00     0.153 C 
ENDROOT
BRANCH  15  28
HETATM   28  C   UNL     1      46.545  11.812  37.432  1.00  0.00     0.016 C 
HETATM   29  C   UNL     1      46.419  13.047  36.543  1.00  0.00     0.012 C 
HETATM   30  C   UNL     1      47.996  11.610  37.865  1.00  0.00     0.012 C 
ENDBRANCH  15  28
BRANCH  14  31
HETATM   31  C   UNL     1      45.963  15.974  40.700  1.00  0.00     0.014 C 
HETATM   32  C   UNL     1      47.256  15.372  40.145  1.00  0.00     0.012 C 
BRANCH  31  33
HETATM   33  C   UNL     1      45.896  17.473  40.359  1.00  0.00     0.002 C 
HETATM   34  C   UNL     1      46.711  18.349  41.301  1.00  0.00     0.005 C 
ENDBRANCH  31  33
ENDBRANCH  14  31
BRANCH  13  35
HETATM   35  C   UNL     1      43.159   7.903  37.257  1.00  0.00     0.014 C 
HETATM   36  C   UNL     1      41.798   7.315  36.876  1.00  0.00     0.012 C 
BRANCH  35  37
HETATM   37  C   UNL     1      43.985   8.169  35.986  1.00  0.00     0.002 C 
HETATM   38  C   UNL     1      43.612   7.268  34.818  1.00  0.00     0.005 C 
ENDBRANCH  35  37
ENDBRANCH  13  35
BRANCH  17  39
HETATM   39  C   UNL     1      40.103  15.806  41.088  1.00  0.00     0.016 C 
HETATM   40  C   UNL     1      39.294  15.818  39.793  1.00  0.00     0.012 C 
HETATM   41  C   UNL     1      40.817  17.141  41.286  1.00  0.00     0.012 C 
ENDBRANCH  17  39
BRANCH  18  42
HETATM   42  C   UNL     1      42.519   8.984  42.476  1.00  0.00     0.016 C 
HETATM   43  C   UNL     1      44.005   9.193  42.184  1.00  0.00     0.012 C 
HETATM   44  C   UNL     1      42.211   9.308  43.937  1.00  0.00     0.012 C 
ENDBRANCH  18  42
BRANCH  16  45
HETATM   45  C   UNL     1      38.503  11.775  39.108  1.00  0.00     0.010 C 
HETATM   46  C   UNL     1      39.174  12.245  37.817  1.00  0.00     0.012 C 
HETATM   47  C   UNL     1      37.540  12.842  39.627  1.00  0.00     0.012 C 
ENDBRANCH  16  45
TORSDOF 8
ENDMDL
MODEL 7
REMARK VINA RESULT:    -4.437      7.739     12.867
REMARK INTER + INTRA:          -5.951
REMARK INTER:                  -6.422
REMARK INTRA:                   0.472
REMARK UNBOUND:                 0.562
REMARK  8 active torsions:
REMARK  status: ('A' for Active; 'I' for Inactive)
REMARK    1  A    between atoms: C_13  and  C_15 
REMARK    2  A    between atoms: C_14  and  C_16 
REMARK    3  A    between atoms: C_15  and  C_22 
REMARK    4  A    between atoms: C_16  and  C_23 
REMARK    5  A    between atoms: C_17  and  C_21 
REMARK    6  A    between atoms: C_18  and  C_24 
REMARK    7  A    between atoms: C_19  and  C_27 
REMARK    8  A    between atoms: C_20  and  C_30 
ROOT
HETATM    1  O   UNL     1      24.544   9.180  34.941  1.00  0.00    -0.304 OA
HETATM    2  O   UNL     1      27.631  12.860  35.558  1.00  0.00    -0.304 OA
HETATM    3  O   UNL     1      24.760  12.870  38.420  1.00  0.00    -0.304 OA
HETATM    4  O   UNL     1      26.552   9.999  36.437  1.00  0.00    -0.270 OA
HETATM    5  O   UNL     1      23.964  11.291  34.210  1.00  0.00    -0.263 OA
HETATM    6  O   UNL     1      23.750  10.502  38.126  1.00  0.00    -0.270 OA
HETATM    7  O   UNL     1      29.882  13.230  35.867  1.00  0.00    -0.263 OA
HETATM    8  O   UNL     1      28.670  16.080  36.219  1.00  0.00    -0.270 OA
HETATM    9  O   UNL     1      24.891  15.172  38.345  1.00  0.00    -0.263 OA
HETATM   10  N   UNL     1      28.034  10.386  34.695  1.00  0.00    -0.340 N 
HETATM   11  N   UNL     1      22.315  11.291  36.482  1.00  0.00    -0.340 N 
HETATM   12  N   UNL     1      27.640  14.962  37.969  1.00  0.00    -0.340 N 
HETATM   13  C   UNL     1      29.053  10.958  35.607  1.00  0.00     0.190 C 
HETATM   14  C   UNL     1      22.482  10.054  35.694  1.00  0.00     0.190 C 
HETATM   15  C   UNL     1      25.822   9.262  34.279  1.00  0.00     0.227 C 
HETATM   16  C   UNL     1      26.905  13.796  38.503  1.00  0.00     0.190 C 
HETATM   17  C   UNL     1      23.344  12.855  38.139  1.00  0.00     0.227 C 
HETATM   18  C   UNL     1      27.259  14.241  35.577  1.00  0.00     0.227 C 
HETATM   19  C   UNL     1      26.827   9.917  35.235  1.00  0.00     0.250 C 
HETATM   20  C   UNL     1      23.731  10.276  34.852  1.00  0.00     0.283 C 
HETATM   21  C   UNL     1      23.138  11.443  37.608  1.00  0.00     0.250 C 
HETATM   22  C   UNL     1      28.937  12.482  35.653  1.00  0.00     0.283 C 
HETATM   23  C   UNL     1      27.936  15.167  36.612  1.00  0.00     0.250 C 
HETATM   24  C   UNL     1      25.412  14.069  38.416  1.00  0.00     0.283 C 
HETATM   25  C   UNL     1      28.345  10.422  33.262  1.00  0.00     0.153 C 
HETATM   26  C   UNL     1      21.425  12.339  35.977  1.00  0.00     0.153 C 
HETATM   27  C   UNL     1      28.092  15.973  38.926  1.00  0.00     0.153 C 
ENDROOT
BRANCH  15  28
HETATM   28  C   UNL     1      26.252   7.835  33.964  1.00  0.00     0.016 C 
HETATM   29  C   UNL     1      26.398   7.020  35.247  1.00  0.00     0.012 C 
HETATM   30  C   UNL     1      25.255   7.168  33.017  1.00  0.00     0.012 C 
ENDBRANCH  15  28
BRANCH  14  31
HETATM   31  C   UNL     1      21.319   9.658  34.795  1.00  0.00     0.014 C 
HETATM   32  C   UNL     1      21.833   8.808  33.630  1.00  0.00     0.012 C 
BRANCH  31  33
HETATM   33  C   UNL     1      20.225   8.891  35.558  1.00  0.00     0.002 C 
HETATM   34  C   UNL     1      20.524   8.716  37.041  1.00  0.00     0.005 C 
ENDBRANCH  31  33
ENDBRANCH  14  31
BRANCH  13  35
HETATM   35  C   UNL     1      30.478  10.515  35.278  1.00  0.00     0.014 C 
HETATM   36  C   UNL     1      31.417  10.895  36.427  1.00  0.00     0.012 C 
BRANCH  35  37
HETATM   37  C   UNL     1      30.575   9.003  35.006  1.00  0.00     0.002 C 
HETATM   38  C   UNL     1      31.580   8.643  33.921  1.00  0.00     0.005 C 
ENDBRANCH  35  37
ENDBRANCH  13  35
BRANCH  17  39
HETATM   39  C   UNL     1      22.553  13.070  39.416  1.00  0.00     0.016 C 
HETATM   40  C   UNL     1      21.786  11.804  39.792  1.00  0.00     0.012 C 
HETATM   41  C   UNL     1      21.596  14.251  39.263  1.00  0.00     0.012 C 
ENDBRANCH  17  39
BRANCH  18  42
HETATM   42  C   UNL     1      27.419  14.781  34.155  1.00  0.00     0.016 C 
HETATM   43  C   UNL     1      27.022  13.721  33.127  1.00  0.00     0.012 C 
HETATM   44  C   UNL     1      26.591  16.049  33.963  1.00  0.00     0.012 C 
ENDBRANCH  18  42
BRANCH  16  45
HETATM   45  C   UNL     1      27.281  13.391  39.927  1.00  0.00     0.010 C 
HETATM   46  C   UNL     1      27.730  11.931  39.973  1.00  0.00     0.012 C 
HETATM   47  C   UNL     1      26.110  13.620  40.882  1.00  0.00     0.012 C 
ENDBRANCH  16  45
TORSDOF 8
ENDMDL
MODEL 8
REMARK VINA RESULT:    -4.428     19.522     23.480
REMARK INTER + INTRA:          -5.938
REMARK INTER:                  -6.393
REMARK INTRA:                   0.455
REMARK UNBOUND:                 0.562
REMARK  8 active torsions:
REMARK  status: ('A' for Active; 'I' for Inactive)
REMARK    1  A    between atoms: C_13  and  C_15 
REMARK    2  A    between atoms: C_14  and  C_16 
REMARK    3  A    between atoms: C_15  and  C_22 
REMARK    4  A    between atoms: C_16  and  C_23 
REMARK    5  A    between atoms: C_17  and  C_21 
REMARK    6  A    between atoms: C_18  and  C_24 
REMARK    7  A    between atoms: C_19  and  C_27 
REMARK    8  A    between atoms: C_20  and  C_30 
ROOT
HETATM    1  O   UNL     1      44.421  15.831  43.196  1.00  0.00    -0.304 OA
HETATM    2  O   UNL     1      45.424  11.647  40.973  1.00  0.00    -0.304 OA
HETATM    3  O   UNL     1      41.494  11.877  41.943  1.00  0.00    -0.304 OA
HETATM    4  O   UNL     1      44.156  14.563  40.901  1.00  0.00    -0.270 OA
HETATM    5  O   UNL     1      44.722  13.916  44.449  1.00  0.00    -0.263 OA
HETATM    6  O   UNL     1      41.262  14.397  42.499  1.00  0.00    -0.270 OA
HETATM    7  O   UNL     1      46.308  10.880  38.991  1.00  0.00    -0.263 OA
HETATM    8  O   UNL     1      45.345   8.254  40.366  1.00  0.00    -0.270 OA
HETATM    9  O   UNL     1      41.594   9.601  42.301  1.00  0.00    -0.263 OA
HETATM   10  N   UNL     1      46.406  14.082  40.608  1.00  0.00    -0.340 N 
HETATM   11  N   UNL     1      41.926  14.001  44.687  1.00  0.00    -0.340 N 
HETATM   12  N   UNL     1      43.330   9.377  40.138  1.00  0.00    -0.340 N 
HETATM   13  C   UNL     1      46.138  13.273  39.396  1.00  0.00     0.190 C 
HETATM   14  C   UNL     1      42.705  15.254  44.714  1.00  0.00     0.190 C 
HETATM   15  C   UNL     1      45.643  15.592  42.470  1.00  0.00     0.227 C 
HETATM   16  C   UNL     1      42.511  10.601  40.268  1.00  0.00     0.190 C 
HETATM   17  C   UNL     1      41.009  12.153  43.274  1.00  0.00     0.227 C 
HETATM   18  C   UNL     1      45.198  10.351  41.535  1.00  0.00     0.227 C 
HETATM   19  C   UNL     1      45.330  14.700  41.263  1.00  0.00     0.250 C 
HETATM   20  C   UNL     1      44.065  14.898  44.130  1.00  0.00     0.283 C 
HETATM   21  C   UNL     1      41.379  13.620  43.453  1.00  0.00     0.250 C 
HETATM   22  C   UNL     1      46.017  11.792  39.755  1.00  0.00     0.283 C 
HETATM   23  C   UNL     1      44.644   9.241  40.614  1.00  0.00     0.250 C 
HETATM   24  C   UNL     1      41.816  10.591  41.620  1.00  0.00     0.283 C 
HETATM   25  C   UNL     1      47.795  14.115  41.078  1.00  0.00     0.153 C 
HETATM   26  C   UNL     1      41.888  13.164  45.888  1.00  0.00     0.153 C 
HETATM   27  C   UNL     1      42.727   8.228  39.463  1.00  0.00     0.153 C 
ENDROOT
BRANCH  15  28
HETATM   28  C   UNL     1      46.154  16.948  42.001  1.00  0.00     0.016 C 
HETATM   29  C   UNL     1      44.996  17.925  41.811  1.00  0.00     0.012 C 
HETATM   30  C   UNL     1      47.173  17.512  42.990  1.00  0.00     0.012 C 
ENDBRANCH  15  28
BRANCH  14  31
HETATM   31  C   UNL     1      42.885  15.915  46.074  1.00  0.00     0.014 C 
HETATM   32  C   UNL     1      44.373  16.158  46.337  1.00  0.00     0.012 C 
BRANCH  31  33
HETATM   33  C   UNL     1      42.111  17.239  46.189  1.00  0.00     0.002 C 
HETATM   34  C   UNL     1      42.015  17.768  47.613  1.00  0.00     0.005 C 
ENDBRANCH  31  33
ENDBRANCH  14  31
BRANCH  13  35
HETATM   35  C   UNL     1      47.157  13.496  38.279  1.00  0.00     0.014 C 
HETATM   36  C   UNL     1      46.648  12.869  36.979  1.00  0.00     0.012 C 
BRANCH  35  37
HETATM   37  C   UNL     1      47.462  14.988  38.052  1.00  0.00     0.002 C 
HETATM   38  C   UNL     1      46.277  15.777  37.513  1.00  0.00     0.005 C 
ENDBRANCH  35  37
ENDBRANCH  13  35
BRANCH  17  39
HETATM   39  C   UNL     1      39.504  11.967  43.334  1.00  0.00     0.016 C 
HETATM   40  C   UNL     1      38.816  13.278  43.707  1.00  0.00     0.012 C 
HETATM   41  C   UNL     1      39.138  10.867  44.329  1.00  0.00     0.012 C 
ENDBRANCH  17  39
BRANCH  18  42
HETATM   42  C   UNL     1      46.493   9.914  42.221  1.00  0.00     0.016 C 
HETATM   43  C   UNL     1      47.276  11.128  42.720  1.00  0.00     0.012 C 
HETATM   44  C   UNL     1      46.196   8.957  43.374  1.00  0.00     0.012 C 
ENDBRANCH  18  42
BRANCH  16  45
HETATM   45  C   UNL     1      41.487  10.816  39.155  1.00  0.00     0.010 C 
HETATM   46  C   UNL     1      41.692  12.175  38.487  1.00  0.00     0.012 C 
HETATM   47  C   UNL     1      40.064  10.697  39.699  1.00  0.00     0.012 C 
ENDBRANCH  16  45
TORSDOF 8
ENDMDL
MODEL 9
REMARK VINA RESULT:    -4.388     18.229     22.720
REMARK INTER + INTRA:          -5.879
REMARK INTER:                  -6.269
REMARK INTRA:                   0.391
REMARK UNBOUND:                 0.562
REMARK  8 active torsions:
REMARK  status: ('A' for Active; 'I' for Inactive)
REMARK    1  A    between atoms: C_13  and  C_15 
REMARK    2  A    between atoms: C_14  and  C_16 
REMARK    3  A    between atoms: C_15  and  C_22 
REMARK    4  A    between atoms: C_16  and  C_23 
REMARK    5  A    between atoms: C_17  and  C_21 
REMARK    6  A    between atoms: C_18  and  C_24 
REMARK    7  A    between atoms: C_19  and  C_27 
REMARK    8  A    between atoms: C_20  and  C_30 
ROOT
HETATM    1  O   UNL     1      43.981   9.956  39.504  1.00  0.00    -0.304 OA
HETATM    2  O   UNL     1      40.312   8.018  37.007  1.00  0.00    -0.304 OA
HETATM    3  O   UNL     1      38.949  10.461  39.942  1.00  0.00    -0.304 OA
HETATM    4  O   UNL     1      42.158  10.518  37.687  1.00  0.00    -0.270 OA
HETATM    5  O   UNL     1      42.855   8.132  40.360  1.00  0.00    -0.263 OA
HETATM    6  O   UNL     1      41.116  11.728  40.586  1.00  0.00    -0.270 OA
HETATM    7  O   UNL     1      39.530   7.897  34.846  1.00  0.00    -0.263 OA
HETATM    8  O   UNL     1      37.253   6.522  36.470  1.00  0.00    -0.270 OA
HETATM    9  O   UNL     1      37.178   8.997  40.145  1.00  0.00    -0.263 OA
HETATM   10  N   UNL     1      42.717   8.810  36.220  1.00  0.00    -0.340 N 
HETATM   11  N   UNL     1      41.694  10.036  42.066  1.00  0.00    -0.340 N 
HETATM   12  N   UNL     1      37.199   8.653  37.383  1.00  0.00    -0.340 N 
HETATM   13  C   UNL     1      41.577   9.121  35.326  1.00  0.00     0.190 C 
HETATM   14  C   UNL     1      43.118  10.152  41.695  1.00  0.00     0.190 C 
HETATM   15  C   UNL     1      44.148   9.302  38.231  1.00  0.00     0.227 C 
HETATM   16  C   UNL     1      37.885   9.830  37.958  1.00  0.00     0.190 C 
HETATM   17  C   UNL     1      39.323  10.336  41.330  1.00  0.00     0.227 C 
HETATM   18  C   UNL     1      39.271   7.218  37.576  1.00  0.00     0.227 C 
HETATM   19  C   UNL     1      42.918   9.598  37.364  1.00  0.00     0.250 C 
HETATM   20  C   UNL     1      43.288   9.272  40.464  1.00  0.00     0.283 C 
HETATM   21  C   UNL     1      40.779  10.785  41.312  1.00  0.00     0.250 C 
HETATM   22  C   UNL     1      40.373   8.241  35.664  1.00  0.00     0.283 C 
HETATM   23  C   UNL     1      37.826   7.434  37.076  1.00  0.00     0.250 C 
HETATM   24  C   UNL     1      37.927   9.689  39.471  1.00  0.00     0.283 C 
HETATM   25  C   UNL     1      43.519   7.633  35.871  1.00  0.00     0.153 C 
HETATM   26  C   UNL     1      41.303   9.057  43.082  1.00  0.00     0.153 C 
HETATM   27  C   UNL     1      35.766   8.769  37.115  1.00  0.00     0.153 C 
ENDROOT
BRANCH  15  28
HETATM   28  C   UNL     1      45.397   9.890  37.588  1.00  0.00     0.016 C 
HETATM   29  C   UNL     1      45.075  11.215  36.899  1.00  0.00     0.012 C 
HETATM   30  C   UNL     1      46.499  10.082  38.628  1.00  0.00     0.012 C 
ENDBRANCH  15  28
BRANCH  14  31
HETATM   31  C   UNL     1      44.133   9.754  42.758  1.00  0.00     0.014 C 
HETATM   32  C   UNL     1      45.459   9.380  42.092  1.00  0.00     0.012 C 
BRANCH  31  33
HETATM   33  C   UNL     1      44.364  10.868  43.793  1.00  0.00     0.002 C 
HETATM   34  C   UNL     1      44.143  10.420  45.231  1.00  0.00     0.005 C 
ENDBRANCH  31  33
ENDBRANCH  14  31
BRANCH  13  35
HETATM   35  C   UNL     1      41.930   9.040  33.842  1.00  0.00     0.014 C 
HETATM   36  C   UNL     1      40.806   9.658  33.006  1.00  0.00     0.012 C 
BRANCH  35  37
HETATM   37  C   UNL     1      43.264   9.737  33.517  1.00  0.00     0.002 C 
HETATM   38  C   UNL     1      43.198  11.254  33.618  1.00  0.00     0.005 C 
ENDBRANCH  35  37
ENDBRANCH  13  35
BRANCH  17  39
HETATM   39  C   UNL     1      38.485  11.268  42.186  1.00  0.00     0.016 C 
HETATM   40  C   UNL     1      39.371  12.289  42.895  1.00  0.00     0.012 C 
HETATM   41  C   UNL     1      37.665  10.473  43.200  1.00  0.00     0.012 C 
ENDBRANCH  17  39
BRANCH  18  42
HETATM   42  C   UNL     1      39.694   5.754  37.450  1.00  0.00     0.016 C 
HETATM   43  C   UNL     1      41.216   5.636  37.366  1.00  0.00     0.012 C 
HETATM   44  C   UNL     1      39.158   4.934  38.622  1.00  0.00     0.012 C 
ENDBRANCH  18  42
BRANCH  16  45
HETATM   45  C   UNL     1      37.283  11.180  37.574  1.00  0.00     0.010 C 
HETATM   46  C   UNL     1      38.347  12.091  36.962  1.00  0.00     0.012 C 
HETATM   47  C   UNL     1      36.639  11.850  38.787  1.00  0.00     0.012 C 
ENDBRANCH  16  45
TORSDOF 8
ENDMDL
MODEL 10
REMARK VINA RESULT:    -4.365     19.603     23.746
REMARK INTER + INTRA:          -5.845
REMARK INTER:                  -6.184
REMARK INTRA:                   0.339
REMARK UNBOUND:                 0.562
REMARK  8 active torsions:
REMARK  status: ('A' for Active; 'I' for Inactive)
REMARK    1  A    between atoms: C_13  and  C_15 
REMARK    2  A    between atoms: C_14  and  C_16 
REMARK    3  A    between atoms: C_15  and  C_22 
REMARK    4  A    between atoms: C_16  and  C_23 
REMARK    5  A    between atoms: C_17  and  C_21 
REMARK    6  A    between atoms: C_18  and  C_24 
REMARK    7  A    between atoms: C_19  and  C_27 
REMARK    8  A    between atoms: C_20  and  C_30 
ROOT
HETATM    1  O   UNL     1      45.012  16.240  40.541  1.00  0.00    -0.304 OA
HETATM    2  O   UNL     1      45.074  12.302  37.724  1.00  0.00    -0.304 OA
HETATM    3  O   UNL     1      41.328  13.073  39.071  1.00  0.00    -0.304 OA
HETATM    4  O   UNL     1      44.364  15.375  38.139  1.00  0.00    -0.270 OA
HETATM    5  O   UNL     1      45.038  14.145  41.509  1.00  0.00    -0.263 OA
HETATM    6  O   UNL     1      41.603  15.491  39.961  1.00  0.00    -0.270 OA
HETATM    7  O   UNL     1      45.666  11.680  35.588  1.00  0.00    -0.263 OA
HETATM    8  O   UNL     1      44.328   9.094  36.703  1.00  0.00    -0.270 OA
HETATM    9  O   UNL     1      41.029  10.787  39.128  1.00  0.00    -0.263 OA
HETATM   10  N   UNL     1      46.462  14.556  37.582  1.00  0.00    -0.340 N 
HETATM   11  N   UNL     1      42.328  14.681  42.011  1.00  0.00    -0.340 N 
HETATM   12  N   UNL     1      42.545  10.572  36.804  1.00  0.00    -0.340 N 
HETATM   13  C   UNL     1      45.968  13.985  36.307  1.00  0.00     0.190 C 
HETATM   14  C   UNL     1      43.325  15.763  42.125  1.00  0.00     0.190 C 
HETATM   15  C   UNL     1      46.118  15.898  39.682  1.00  0.00     0.227 C 
HETATM   16  C   UNL     1      41.977  11.889  37.162  1.00  0.00     0.190 C 
HETATM   17  C   UNL     1      40.993  13.238  40.465  1.00  0.00     0.227 C 
HETATM   18  C   UNL     1      44.650  10.999  38.135  1.00  0.00     0.227 C 
HETATM   19  C   UNL     1      45.565  15.253  38.406  1.00  0.00     0.250 C 
HETATM   20  C   UNL     1      44.554  15.261  41.378  1.00  0.00     0.283 C 
HETATM   21  C   UNL     1      41.639  14.578  40.794  1.00  0.00     0.250 C 
HETATM   22  C   UNL     1      45.600  12.512  36.485  1.00  0.00     0.283 C 
HETATM   23  C   UNL     1      43.840  10.143  37.137  1.00  0.00     0.250 C 
HETATM   24  C   UNL     1      41.384  11.809  38.560  1.00  0.00     0.283 C 
HETATM   25  C   UNL     1      47.861  14.280  37.923  1.00  0.00     0.153 C 
HETATM   26  C   UNL     1      42.217  13.702  43.095  1.00  0.00     0.153 C 
HETATM   27  C   UNL     1      41.696   9.652  36.046  1.00  0.00     0.153 C 
ENDROOT
BRANCH  15  28
HETATM   28  C   UNL     1      46.838  17.196  39.344  1.00  0.00     0.016 C 
HETATM   29  C   UNL     1      46.131  17.924  38.202  1.00  0.00     0.012 C 
HETATM   30  C   UNL     1      46.933  18.097  40.574  1.00  0.00     0.012 C 
ENDBRANCH  15  28
BRANCH  14  31
HETATM   31  C   UNL     1      43.715  16.183  43.535  1.00  0.00     0.014 C 
HETATM   32  C   UNL     1      45.080  16.875  43.509  1.00  0.00     0.012 C 
BRANCH  31  33
HETATM   33  C   UNL     1      42.671  17.112  44.179  1.00  0.00     0.002 C 
HETATM   34  C   UNL     1      42.363  16.770  45.630  1.00  0.00     0.005 C 
ENDBRANCH  31  33
ENDBRANCH  14  31
BRANCH  13  35
HETATM   35  C   UNL     1      46.934  14.183  35.139  1.00  0.00     0.014 C 
HETATM   36  C   UNL     1      46.212  13.911  33.817  1.00  0.00     0.012 C 
BRANCH  35  37
HETATM   37  C   UNL     1      47.546  15.595  35.116  1.00  0.00     0.002 C 
HETATM   38  C   UNL     1      46.569  16.675  34.672  1.00  0.00     0.005 C 
ENDBRANCH  35  37
ENDBRANCH  13  35
BRANCH  17  39
HETATM   39  C   UNL     1      39.487  13.311  40.639  1.00  0.00     0.016 C 
HETATM   40  C   UNL     1      39.078  14.663  41.217  1.00  0.00     0.012 C 
HETATM   41  C   UNL     1      38.994  12.174  41.532  1.00  0.00     0.012 C 
ENDBRANCH  17  39
BRANCH  18  42
HETATM   42  C   UNL     1      45.885  10.251  38.639  1.00  0.00     0.016 C 
HETATM   43  C   UNL     1      46.832  11.202  39.370  1.00  0.00     0.012 C 
HETATM   44  C   UNL     1      45.481   9.094  39.551  1.00  0.00     0.012 C 
ENDBRANCH  18  42
BRANCH  16  45
HETATM   45  C   UNL     1      40.938  12.433  36.184  1.00  0.00     0.010 C 
HETATM   46  C   UNL     1      41.341  13.820  35.683  1.00  0.00     0.012 C 
HETATM   47  C   UNL     1      39.556  12.482  36.833  1.00  0.00     0.012 C 
ENDBRANCH  16  45
TORSDOF 8
ENDMDL
MODEL 11
REMARK VINA RESULT:    -4.312     16.898     22.024
REMARK INTER + INTRA:          -5.767
REMARK INTER:                  -6.543
REMARK INTRA:                   0.775
REMARK UNBOUND:                 0.562
REMARK  8 active torsions:
REMARK  status: ('A' for Active; 'I' for Inactive)
REMARK    1  A    between atoms: C_13  and  C_15 
REMARK    2  A    between atoms: C_14  and  C_16 
REMARK    3  A    between atoms: C_15  and  C_22 
REMARK    4  A    between atoms: C_16  and  C_23 
REMARK    5  A    between atoms: C_17  and  C_21 
REMARK    6  A    between atoms: C_18  and  C_24 
REMARK    7  A    between atoms: C_19  and  C_27 
REMARK    8  A    between atoms: C_20  and  C_30 
ROOT
HETATM    1  O   UNL     1      38.935   7.066  37.394  1.00  0.00    -0.304 OA
HETATM    2  O   UNL     1      41.524  11.137  37.808  1.00  0.00    -0.304 OA
HETATM    3  O   UNL     1      37.641  11.772  38.787  1.00  0.00    -0.304 OA
HETATM    4  O   UNL     1      40.026   8.681  39.166  1.00  0.00    -0.270 OA
HETATM    5  O   UNL     1      38.871   8.636  35.704  1.00  0.00    -0.263 OA
HETATM    6  O   UNL     1      36.785   9.340  39.044  1.00  0.00    -0.270 OA
HETATM    7  O   UNL     1      43.372  11.937  38.924  1.00  0.00    -0.263 OA
HETATM    8  O   UNL     1      42.271  14.490  37.514  1.00  0.00    -0.270 OA
HETATM    9  O   UNL     1      37.898  13.871  37.864  1.00  0.00    -0.263 OA
HETATM   10  N   UNL     1      42.174   8.613  38.293  1.00  0.00    -0.340 N 
HETATM   11  N   UNL     1      36.342   9.230  36.769  1.00  0.00    -0.340 N 
HETATM   12  N   UNL     1      40.483  13.961  38.892  1.00  0.00    -0.340 N 
HETATM   13  C   UNL     1      42.662   9.633  39.251  1.00  0.00     0.190 C 
HETATM   14  C   UNL     1      36.805   7.830  36.712  1.00  0.00     0.190 C 
HETATM   15  C   UNL     1      40.376   7.090  37.412  1.00  0.00     0.227 C 
HETATM   16  C   UNL     1      39.530  12.980  39.452  1.00  0.00     0.190 C 
HETATM   17  C   UNL     1      36.530  11.437  37.929  1.00  0.00     0.227 C 
HETATM   18  C   UNL     1      41.252  12.351  37.102  1.00  0.00     0.227 C 
HETATM   19  C   UNL     1      40.835   8.200  38.365  1.00  0.00     0.250 C 
HETATM   20  C   UNL     1      38.314   7.911  36.517  1.00  0.00     0.283 C 
HETATM   21  C   UNL     1      36.536   9.914  37.978  1.00  0.00     0.250 C 
HETATM   22  C   UNL     1      42.608  11.027  38.626  1.00  0.00     0.283 C 
HETATM   23  C   UNL     1      41.397  13.688  37.862  1.00  0.00     0.250 C 
HETATM   24  C   UNL     1      38.272  12.968  38.598  1.00  0.00     0.283 C 
HETATM   25  C   UNL     1      43.130   8.160  37.277  1.00  0.00     0.153 C 
HETATM   26  C   UNL     1      35.848   9.864  35.544  1.00  0.00     0.153 C 
HETATM   27  C   UNL     1      40.472  15.312  39.453  1.00  0.00     0.153 C 
ENDROOT
BRANCH  15  28
HETATM   28  C   UNL     1      40.838   5.733  37.927  1.00  0.00     0.016 C 
HETATM   29  C   UNL     1      39.694   5.006  38.632  1.00  0.00     0.012 C 
HETATM   30  C   UNL     1      41.388   4.882  36.784  1.00  0.00     0.012 C 
ENDBRANCH  15  28
BRANCH  14  31
HETATM   31  C   UNL     1      36.193   6.953  35.629  1.00  0.00     0.014 C 
HETATM   32  C   UNL     1      37.214   5.909  35.170  1.00  0.00     0.012 C 
BRANCH  31  33
HETATM   33  C   UNL     1      34.906   6.253  36.101  1.00  0.00     0.002 C 
HETATM   34  C   UNL     1      34.169   5.519  34.989  1.00  0.00     0.005 C 
ENDBRANCH  31  33
ENDBRANCH  14  31
BRANCH  13  35
HETATM   35  C   UNL     1      44.050   9.324  39.811  1.00  0.00     0.014 C 
HETATM   36  C   UNL     1      43.967   8.141  40.780  1.00  0.00     0.012 C 
BRANCH  35  37
HETATM   37  C   UNL     1      45.076   9.019  38.705  1.00  0.00     0.002 C 
HETATM   38  C   UNL     1      46.257   9.978  38.688  1.00  0.00     0.005 C 
ENDBRANCH  35  37
ENDBRANCH  13  35
BRANCH  17  39
HETATM   39  C   UNL     1      35.238  11.988  38.503  1.00  0.00     0.016 C 
HETATM   40  C   UNL     1      34.274  10.853  38.840  1.00  0.00     0.012 C 
HETATM   41  C   UNL     1      34.592  12.969  37.526  1.00  0.00     0.012 C 
ENDBRANCH  17  39
BRANCH  18  42
HETATM   42  C   UNL     1      42.093  12.340  35.825  1.00  0.00     0.016 C 
HETATM   43  C   UNL     1      42.215  10.920  35.271  1.00  0.00     0.012 C 
HETATM   44  C   UNL     1      41.494  13.274  34.775  1.00  0.00     0.012 C 
ENDBRANCH  18  42
BRANCH  16  45
HETATM   45  C   UNL     1      39.165  13.198  40.919  1.00  0.00     0.010 C 
HETATM   46  C   UNL     1      39.447  11.940  41.739  1.00  0.00     0.012 C 
HETATM   47  C   UNL     1      37.699  13.607  41.057  1.00  0.00     0.012 C 
ENDBRANCH  16  45
TORSDOF 8
ENDMDL
MODEL 12
REMARK VINA RESULT:    -4.298      6.249      9.580
REMARK INTER + INTRA:          -5.746
REMARK INTER:                  -6.042
REMARK INTRA:                   0.296
REMARK UNBOUND:                 0.562
REMARK  8 active torsions:
REMARK  status: ('A' for Active; 'I' for Inactive)
REMARK    1  A    between atoms: C_13  and  C_15 
REMARK    2  A    between atoms: C_14  and  C_16 
REMARK    3  A    between atoms: C_15  and  C_22 
REMARK    4  A    between atoms: C_16  and  C_23 
REMARK    5  A    between atoms: C_17  and  C_21 
REMARK    6  A    between atoms: C_18  and  C_24 
REMARK    7  A    between atoms: C_19  and  C_27 
REMARK    8  A    between atoms: C_20  and  C_30 
ROOT
HETATM    1  O   UNL     1      22.160   9.579  41.552  1.00  0.00    -0.304 OA
HETATM    2  O   UNL     1      23.750  13.390  39.023  1.00  0.00    -0.304 OA
HETATM    3  O   UNL     1      26.811  11.502  40.894  1.00  0.00    -0.304 OA
HETATM    4  O   UNL     1      23.436  10.241  39.345  1.00  0.00    -0.270 OA
HETATM    5  O   UNL     1      22.591  11.570  42.638  1.00  0.00    -0.263 OA
HETATM    6  O   UNL     1      25.685   9.269  41.570  1.00  0.00    -0.270 OA
HETATM    7  O   UNL     1      23.742  14.193  36.866  1.00  0.00    -0.263 OA
HETATM    8  O   UNL     1      25.574  16.236  38.344  1.00  0.00    -0.270 OA
HETATM    9  O   UNL     1      27.759  13.590  41.147  1.00  0.00    -0.263 OA
HETATM   10  N   UNL     1      21.802  11.664  38.517  1.00  0.00    -0.340 N 
HETATM   11  N   UNL     1      24.893  10.232  43.528  1.00  0.00    -0.340 N 
HETATM   12  N   UNL     1      26.796  14.287  38.631  1.00  0.00    -0.340 N 
HETATM   13  C   UNL     1      22.653  12.078  37.376  1.00  0.00     0.190 C 
HETATM   14  C   UNL     1      23.617   9.500  43.411  1.00  0.00     0.190 C 
HETATM   15  C   UNL     1      21.369  10.252  40.553  1.00  0.00     0.227 C 
HETATM   16  C   UNL     1      26.879  12.855  38.988  1.00  0.00     0.190 C 
HETATM   17  C   UNL     1      26.839  11.224  42.311  1.00  0.00     0.227 C 
HETATM   18  C   UNL     1      24.463  14.498  39.581  1.00  0.00     0.227 C 
HETATM   19  C   UNL     1      22.298  10.718  39.426  1.00  0.00     0.250 C 
HETATM   20  C   UNL     1      22.738  10.361  42.514  1.00  0.00     0.283 C 
HETATM   21  C   UNL     1      25.780  10.138  42.444  1.00  0.00     0.250 C 
HETATM   22  C   UNL     1      23.405  13.368  37.706  1.00  0.00     0.283 C 
HETATM   23  C   UNL     1      25.649  15.083  38.781  1.00  0.00     0.250 C 
HETATM   24  C   UNL     1      27.220  12.732  40.465  1.00  0.00     0.283 C 
HETATM   25  C   UNL     1      20.511  12.346  38.649  1.00  0.00     0.153 C 
HETATM   26  C   UNL     1      25.103  11.115  44.677  1.00  0.00     0.153 C 
HETATM   27  C   UNL     1      27.995  14.917  38.079  1.00  0.00     0.153 C 
ENDROOT
BRANCH  15  28
HETATM   28  C   UNL     1      20.366   9.237  40.021  1.00  0.00     0.016 C 
HETATM   29  C   UNL     1      20.824   7.813  40.330  1.00  0.00     0.012 C 
HETATM   30  C   UNL     1      18.979   9.492  40.608  1.00  0.00     0.012 C 
ENDBRANCH  15  28
BRANCH  14  31
HETATM   31  C   UNL     1      22.885   9.198  44.712  1.00  0.00     0.014 C 
HETATM   32  C   UNL     1      21.427   8.841  44.413  1.00  0.00     0.012 C 
BRANCH  31  33
HETATM   33  C   UNL     1      23.549   8.060  45.506  1.00  0.00     0.002 C 
HETATM   34  C   UNL     1      23.805   8.405  46.967  1.00  0.00     0.005 C 
ENDBRANCH  31  33
ENDBRANCH  14  31
BRANCH  13  35
HETATM   35  C   UNL     1      21.887  12.198  36.059  1.00  0.00     0.014 C 
HETATM   36  C   UNL     1      22.872  12.327  34.895  1.00  0.00     0.012 C 
BRANCH  35  37
HETATM   37  C   UNL     1      20.948  11.003  35.816  1.00  0.00     0.002 C 
HETATM   38  C   UNL     1      20.792  10.640  34.346  1.00  0.00     0.005 C 
ENDBRANCH  35  37
ENDBRANCH  13  35
BRANCH  17  39
HETATM   39  C   UNL     1      28.204  10.696  42.716  1.00  0.00     0.016 C 
HETATM   40  C   UNL     1      28.089   9.277  43.267  1.00  0.00     0.012 C 
HETATM   41  C   UNL     1      28.853  11.621  43.744  1.00  0.00     0.012 C 
ENDBRANCH  17  39
BRANCH  18  42
HETATM   42  C   UNL     1      23.438  15.578  39.930  1.00  0.00     0.016 C 
HETATM   43  C   UNL     1      22.130  14.947  40.407  1.00  0.00     0.012 C 
HETATM   44  C   UNL     1      23.992  16.526  40.992  1.00  0.00     0.012 C 
ENDBRANCH  18  42
BRANCH  16  45
HETATM   45  C   UNL     1      27.861  12.035  38.154  1.00  0.00     0.010 C 
HETATM   46  C   UNL     1      27.161  10.831  37.523  1.00  0.00     0.012 C 
HETATM   47  C   UNL     1      29.045  11.579  39.005  1.00  0.00     0.012 C 
ENDBRANCH  16  45
TORSDOF 8
ENDMDL
MODEL 13
REMARK VINA RESULT:    -4.236     19.691     23.525
REMARK INTER + INTRA:          -5.656
REMARK INTER:                  -6.057
REMARK INTRA:                   0.402
REMARK UNBOUND:                 0.562
REMARK  8 active torsions:
REMARK  status: ('A' for Active; 'I' for Inactive)
REMARK    1  A    between atoms: C_13  and  C_15 
REMARK    2  A    between atoms: C_14  and  C_16 
REMARK    3  A    between atoms: C_15  and  C_22 
REMARK    4  A    between atoms: C_16  and  C_23 
REMARK    5  A    between atoms: C_17  and  C_21 
REMARK    6  A    between atoms: C_18  and  C_24 
REMARK    7  A    between atoms: C_19  and  C_27 
REMARK    8  A    between atoms: C_20  and  C_30 
ROOT
HETATM    1  O   UNL     1      44.126  15.277  42.733  1.00  0.00    -0.304 OA
HETATM    2  O   UNL     1      41.013  11.879  41.246  1.00  0.00    -0.304 OA
HETATM    3  O   UNL     1      44.666  11.345  39.569  1.00  0.00    -0.304 OA
HETATM    4  O   UNL     1      43.494  12.739  43.043  1.00  0.00    -0.270 OA
HETATM    5  O   UNL     1      43.101  15.490  40.676  1.00  0.00    -0.263 OA
HETATM    6  O   UNL     1      46.126  12.898  41.043  1.00  0.00    -0.270 OA
HETATM    7  O   UNL     1      39.650  10.244  42.121  1.00  0.00    -0.263 OA
HETATM    8  O   UNL     1      39.406   9.762  39.051  1.00  0.00    -0.270 OA
HETATM    9  O   UNL     1      43.542  10.595  37.699  1.00  0.00    -0.263 OA
HETATM   10  N   UNL     1      41.267  13.090  43.591  1.00  0.00    -0.340 N 
HETATM   11  N   UNL     1      45.610  14.710  39.688  1.00  0.00    -0.340 N 
HETATM   12  N   UNL     1      41.671   9.379  39.362  1.00  0.00    -0.340 N 
HETATM   13  C   UNL     1      40.978  11.637  43.608  1.00  0.00     0.190 C 
HETATM   14  C   UNL     1      45.527  15.605  40.859  1.00  0.00     0.190 C 
HETATM   15  C   UNL     1      42.863  15.024  43.378  1.00  0.00     0.227 C 
HETATM   16  C   UNL     1      42.981   9.764  39.929  1.00  0.00     0.190 C 
HETATM   17  C   UNL     1      45.373  12.370  38.839  1.00  0.00     0.227 C 
HETATM   18  C   UNL     1      40.662  11.637  39.881  1.00  0.00     0.227 C 
HETATM   19  C   UNL     1      42.575  13.519  43.316  1.00  0.00     0.250 C 
HETATM   20  C   UNL     1      44.103  15.459  41.378  1.00  0.00     0.283 C 
HETATM   21  C   UNL     1      45.765  13.340  39.946  1.00  0.00     0.250 C 
HETATM   22  C   UNL     1      40.424  11.183  42.258  1.00  0.00     0.283 C 
HETATM   23  C   UNL     1      40.514  10.173  39.411  1.00  0.00     0.250 C 
HETATM   24  C   UNL     1      43.739  10.595  38.905  1.00  0.00     0.283 C 
HETATM   25  C   UNL     1      40.124  13.986  43.794  1.00  0.00     0.153 C 
HETATM   26  C   UNL     1      45.386  15.267  38.352  1.00  0.00     0.153 C 
HETATM   27  C   UNL     1      41.576   8.075  38.705  1.00  0.00     0.153 C 
ENDROOT
BRANCH  15  28
HETATM   28  C   UNL     1      43.004  15.472  44.827  1.00  0.00     0.016 C 
HETATM   29  C   UNL     1      44.466  15.418  45.267  1.00  0.00     0.012 C 
HETATM   30  C   UNL     1      42.441  16.880  45.014  1.00  0.00     0.012 C 
ENDBRANCH  15  28
BRANCH  14  31
HETATM   31  C   UNL     1      45.839  17.075  40.615  1.00  0.00     0.014 C 
HETATM   32  C   UNL     1      45.178  17.930  41.699  1.00  0.00     0.012 C 
BRANCH  31  33
HETATM   33  C   UNL     1      47.352  17.354  40.579  1.00  0.00     0.002 C 
HETATM   34  C   UNL     1      47.701  18.833  40.675  1.00  0.00     0.005 C 
ENDBRANCH  31  33
ENDBRANCH  14  31
BRANCH  13  35
HETATM   35  C   UNL     1      40.066  11.214  44.759  1.00  0.00     0.014 C 
HETATM   36  C   UNL     1      40.155   9.699  44.962  1.00  0.00     0.012 C 
BRANCH  35  37
HETATM   37  C   UNL     1      40.407  11.935  46.075  1.00  0.00     0.002 C 
HETATM   38  C   UNL     1      40.279  11.050  47.306  1.00  0.00     0.005 C 
ENDBRANCH  35  37
ENDBRANCH  13  35
BRANCH  17  39
HETATM   39  C   UNL     1      46.606  11.786  38.175  1.00  0.00     0.016 C 
HETATM   40  C   UNL     1      47.872  12.445  38.718  1.00  0.00     0.012 C 
HETATM   41  C   UNL     1      46.526  11.946  36.658  1.00  0.00     0.012 C 
ENDBRANCH  17  39
BRANCH  18  42
HETATM   42  C   UNL     1      39.403  12.451  39.578  1.00  0.00     0.016 C 
HETATM   43  C   UNL     1      39.406  13.763  40.363  1.00  0.00     0.012 C 
HETATM   44  C   UNL     1      39.285  12.725  38.080  1.00  0.00     0.012 C 
ENDBRANCH  18  42
BRANCH  16  45
HETATM   45  C   UNL     1      43.848   8.601  40.404  1.00  0.00     0.010 C 
HETATM   46  C   UNL     1      44.016   8.636  41.923  1.00  0.00     0.012 C 
HETATM   47  C   UNL     1      45.212   8.626  39.716  1.00  0.00     0.012 C 
ENDBRANCH  16  45
TORSDOF 8
ENDMDL
MODEL 14
REMARK VINA RESULT:    -4.179     14.768     18.992
REMARK INTER + INTRA:          -5.572
REMARK INTER:                  -5.852
REMARK INTRA:                   0.281
REMARK UNBOUND:                 0.562
REMARK  8 active torsions:
REMARK  status: ('A' for Active; 'I' for Inactive)
REMARK    1  A    between atoms: C_13  and  C_15 
REMARK    2  A    between atoms: C_14  and  C_16 
REMARK    3  A    between atoms: C_15  and  C_22 
REMARK    4  A    between atoms: C_16  and  C_23 
REMARK    5  A    between atoms: C_17  and  C_21 
REMARK    6  A    between atoms: C_18  and  C_24 
REMARK    7  A    between atoms: C_19  and  C_27 
REMARK    8  A    between atoms: C_20  and  C_30 
ROOT
HETATM    1  O   UNL     1      34.644   6.563  47.262  1.00  0.00    -0.304 OA
HETATM    2  O   UNL     1      38.479   8.229  44.821  1.00  0.00    -0.304 OA
HETATM    3  O   UNL     1      35.518  10.996  44.950  1.00  0.00    -0.304 OA
HETATM    4  O   UNL     1      36.690   8.211  47.451  1.00  0.00    -0.270 OA
HETATM    5  O   UNL     1      34.637   6.515  44.954  1.00  0.00    -0.263 OA
HETATM    6  O   UNL     1      33.989  10.008  46.795  1.00  0.00    -0.270 OA
HETATM    7  O   UNL     1      40.729   8.608  45.130  1.00  0.00    -0.263 OA
HETATM    8  O   UNL     1      40.218   9.825  42.307  1.00  0.00    -0.270 OA
HETATM    9  O   UNL     1      36.203  11.623  42.838  1.00  0.00    -0.263 OA
HETATM   10  N   UNL     1      38.330   6.650  46.945  1.00  0.00    -0.340 N 
HETATM   11  N   UNL     1      32.894   8.701  45.221  1.00  0.00    -0.340 N 
HETATM   12  N   UNL     1      38.840  11.166  43.603  1.00  0.00    -0.340 N 
HETATM   13  C   UNL     1      39.396   7.679  46.941  1.00  0.00     0.190 C 
HETATM   14  C   UNL     1      32.809   7.572  46.169  1.00  0.00     0.190 C 
HETATM   15  C   UNL     1      35.943   5.941  47.308  1.00  0.00     0.227 C 
HETATM   16  C   UNL     1      37.814  11.329  44.654  1.00  0.00     0.190 C 
HETATM   17  C   UNL     1      34.161  10.742  44.529  1.00  0.00     0.227 C 
HETATM   18  C   UNL     1      38.450   8.672  43.461  1.00  0.00     0.227 C 
HETATM   19  C   UNL     1      37.013   7.037  47.238  1.00  0.00     0.250 C 
HETATM   20  C   UNL     1      34.126   6.822  46.024  1.00  0.00     0.283 C 
HETATM   21  C   UNL     1      33.656   9.809  45.621  1.00  0.00     0.250 C 
HETATM   22  C   UNL     1      39.647   8.189  45.522  1.00  0.00     0.283 C 
HETATM   23  C   UNL     1      39.262   9.931  43.083  1.00  0.00     0.250 C 
HETATM   24  C   UNL     1      36.439  11.348  44.006  1.00  0.00     0.283 C 
HETATM   25  C   UNL     1      38.731   5.292  46.562  1.00  0.00     0.153 C 
HETATM   26  C   UNL     1      32.316   8.550  43.884  1.00  0.00     0.153 C 
HETATM   27  C   UNL     1      39.459  12.378  43.068  1.00  0.00     0.153 C 
ENDROOT
BRANCH  15  28
HETATM   28  C   UNL     1      36.037   5.201  48.636  1.00  0.00     0.016 C 
HETATM   29  C   UNL     1      35.888   6.172  49.806  1.00  0.00     0.012 C 
HETATM   30  C   UNL     1      34.979   4.101  48.716  1.00  0.00     0.012 C 
ENDBRANCH  15  28
BRANCH  14  31
HETATM   31  C   UNL     1      31.644   6.610  45.977  1.00  0.00     0.014 C 
HETATM   32  C   UNL     1      31.961   5.274  46.654  1.00  0.00     0.012 C 
BRANCH  31  33
HETATM   33  C   UNL     1      30.323   7.174  46.529  1.00  0.00     0.002 C 
HETATM   34  C   UNL     1      29.233   7.315  45.475  1.00  0.00     0.005 C 
ENDBRANCH  31  33
ENDBRANCH  14  31
BRANCH  13  35
HETATM   35  C   UNL     1      40.691   7.214  47.606  1.00  0.00     0.014 C 
HETATM   36  C   UNL     1      41.617   8.411  47.833  1.00  0.00     0.012 C 
BRANCH  35  37
HETATM   37  C   UNL     1      40.438   6.491  48.942  1.00  0.00     0.002 C 
HETATM   38  C   UNL     1      39.903   7.403  50.036  1.00  0.00     0.005 C 
ENDBRANCH  35  37
ENDBRANCH  13  35
BRANCH  17  39
HETATM   39  C   UNL     1      33.365  12.034  44.514  1.00  0.00     0.016 C 
HETATM   40  C   UNL     1      32.205  11.961  45.504  1.00  0.00     0.012 C 
HETATM   41  C   UNL     1      32.851  12.332  43.107  1.00  0.00     0.012 C 
ENDBRANCH  17  39
BRANCH  18  42
HETATM   42  C   UNL     1      38.825   7.480  42.580  1.00  0.00     0.016 C 
HETATM   43  C   UNL     1      38.146   6.205  43.079  1.00  0.00     0.012 C 
HETATM   44  C   UNL     1      38.455   7.748  41.122  1.00  0.00     0.012 C 
ENDBRANCH  18  42
BRANCH  16  45
HETATM   45  C   UNL     1      37.990  12.557  45.544  1.00  0.00     0.010 C 
HETATM   46  C   UNL     1      38.218  12.143  46.998  1.00  0.00     0.012 C 
HETATM   47  C   UNL     1      36.777  13.482  45.437  1.00  0.00     0.012 C 
ENDBRANCH  16  45
TORSDOF 8
ENDMDL
MODEL 15
REMARK VINA RESULT:    -4.167     18.094     22.539
REMARK INTER + INTRA:          -5.554
REMARK INTER:                  -5.810
REMARK INTRA:                   0.256
REMARK UNBOUND:                 0.562
REMARK  8 active torsions:
REMARK  status: ('A' for Active; 'I' for Inactive)
REMARK    1  A    between atoms: C_13  and  C_15 
REMARK    2  A    between atoms: C_14  and  C_16 
REMARK    3  A    between atoms: C_15  and  C_22 
REMARK    4  A    between atoms: C_16  and  C_23 
REMARK    5  A    between atoms: C_17  and  C_21 
REMARK    6  A    between atoms: C_18  and  C_24 
REMARK    7  A    between atoms: C_19  and  C_27 
REMARK    8  A    between atoms: C_20  and  C_30 
ROOT
HETATM    1  O   UNL     1      38.248  11.944  37.038  1.00  0.00    -0.304 OA
HETATM    2  O   UNL     1      42.359   9.417  37.441  1.00  0.00    -0.304 OA
HETATM    3  O   UNL     1      41.705  11.673  40.746  1.00  0.00    -0.304 OA
HETATM    4  O   UNL     1      39.309   9.849  38.232  1.00  0.00    -0.270 OA
HETATM    5  O   UNL     1      40.269  12.975  36.611  1.00  0.00    -0.263 OA
HETATM    6  O   UNL     1      39.220  12.333  40.418  1.00  0.00    -0.270 OA
HETATM    7  O   UNL     1      43.092   7.235  37.389  1.00  0.00    -0.263 OA
HETATM    8  O   UNL     1      45.665   8.796  38.200  1.00  0.00    -0.270 OA
HETATM    9  O   UNL     1      43.995  11.923  40.857  1.00  0.00    -0.263 OA
HETATM   10  N   UNL     1      40.048   8.795  36.302  1.00  0.00    -0.340 N 
HETATM   11  N   UNL     1      39.849  14.154  39.125  1.00  0.00    -0.340 N 
HETATM   12  N   UNL     1      44.284   9.294  39.994  1.00  0.00    -0.340 N 
HETATM   13  C   UNL     1      40.731   7.728  37.072  1.00  0.00     0.190 C 
HETATM   14  C   UNL     1      38.708  13.942  38.212  1.00  0.00     0.190 C 
HETATM   15  C   UNL     1      38.587  10.840  36.176  1.00  0.00     0.227 C 
HETATM   16  C   UNL     1      42.979   9.723  40.540  1.00  0.00     0.190 C 
HETATM   17  C   UNL     1      41.464  13.096  40.713  1.00  0.00     0.227 C 
HETATM   18  C   UNL     1      43.653   9.992  37.648  1.00  0.00     0.227 C 
HETATM   19  C   UNL     1      39.347   9.792  36.998  1.00  0.00     0.250 C 
HETATM   20  C   UNL     1      39.192  12.922  37.190  1.00  0.00     0.283 C 
HETATM   21  C   UNL     1      40.071  13.171  40.101  1.00  0.00     0.250 C 
HETATM   22  C   UNL     1      42.206   8.073  37.275  1.00  0.00     0.283 C 
HETATM   23  C   UNL     1      44.618   9.291  38.630  1.00  0.00     0.250 C 
HETATM   24  C   UNL     1      42.996  11.230  40.737  1.00  0.00     0.283 C 
HETATM   25  C   UNL     1      40.223   8.765  34.847  1.00  0.00     0.153 C 
HETATM   26  C   UNL     1      40.757  15.277  38.878  1.00  0.00     0.153 C 
HETATM   27  C   UNL     1      45.298   8.838  40.945  1.00  0.00     0.153 C 
ENDROOT
BRANCH  15  28
HETATM   28  C   UNL     1      37.277  10.256  35.664  1.00  0.00     0.016 C 
HETATM   29  C   UNL     1      36.159  10.465  36.683  1.00  0.00     0.012 C 
HETATM   30  C   UNL     1      36.899  10.876  34.320  1.00  0.00     0.012 C 
ENDBRANCH  15  28
BRANCH  14  31
HETATM   31  C   UNL     1      38.173  15.174  37.496  1.00  0.00     0.014 C 
HETATM   32  C   UNL     1      37.389  14.749  36.252  1.00  0.00     0.012 C 
BRANCH  31  33
HETATM   33  C   UNL     1      37.281  16.038  38.405  1.00  0.00     0.002 C 
HETATM   34  C   UNL     1      37.477  17.535  38.205  1.00  0.00     0.005 C 
ENDBRANCH  31  33
ENDBRANCH  14  31
BRANCH  13  35
HETATM   35  C   UNL     1      40.560   6.337  36.464  1.00  0.00     0.014 C 
HETATM   36  C   UNL     1      41.030   5.274  37.460  1.00  0.00     0.012 C 
BRANCH  35  37
HETATM   37  C   UNL     1      39.105   6.053  36.048  1.00  0.00     0.002 C 
HETATM   38  C   UNL     1      38.147   5.938  37.224  1.00  0.00     0.005 C 
ENDBRANCH  35  37
ENDBRANCH  13  35
BRANCH  17  39
HETATM   39  C   UNL     1      41.462  13.660  42.122  1.00  0.00     0.016 C 
HETATM   40  C   UNL     1      40.100  14.262  42.458  1.00  0.00     0.012 C 
HETATM   41  C   UNL     1      42.565  14.705  42.283  1.00  0.00     0.012 C 
ENDBRANCH  17  39
BRANCH  18  42
HETATM   42  C   UNL     1      44.296  10.186  36.275  1.00  0.00     0.016 C 
HETATM   43  C   UNL     1      43.238  10.524  35.225  1.00  0.00     0.012 C 
HETATM   44  C   UNL     1      45.364  11.277  36.328  1.00  0.00     0.012 C 
ENDBRANCH  18  42
BRANCH  16  45
HETATM   45  C   UNL     1      42.560   9.030  41.835  1.00  0.00     0.010 C 
HETATM   46  C   UNL     1      41.078   8.658  41.793  1.00  0.00     0.012 C 
HETATM   47  C   UNL     1      42.853   9.919  43.043  1.00  0.00     0.012 C 
ENDBRANCH  16  45
TORSDOF 8
ENDMDL
MODEL 16
REMARK VINA RESULT:    -4.131      2.314      6.060
REMARK INTER + INTRA:          -5.501
REMARK INTER:                  -5.885
REMARK INTRA:                   0.385
REMARK UNBOUND:                 0.562
REMARK  8 active torsions:
REMARK  status: ('A' for Active; 'I' for Inactive)
REMARK    1  A    between atoms: C_13  and  C_15 
REMARK    2  A    between atoms: C_14  and  C_16 
REMARK    3  A    between atoms: C_15  and  C_22 
REMARK    4  A    between atoms: C_16  and  C_23 
REMARK    5  A    between atoms: C_17  and  C_21 
REMARK    6  A    between atoms: C_18  and  C_24 
REMARK    7  A    between atoms: C_19  and  C_27 
REMARK    8  A    between atoms: C_20  and  C_30 
ROOT
HETATM    1  O   UNL     1      24.759  14.746  44.423  1.00  0.00    -0.304 OA
HETATM    2  O   UNL     1      21.902  18.010  42.270  1.00  0.00    -0.304 OA
HETATM    3  O   UNL     1      21.416  18.076  46.295  1.00  0.00    -0.304 OA
HETATM    4  O   UNL     1      24.495  17.330  43.983  1.00  0.00    -0.270 OA
HETATM    5  O   UNL     1      22.533  14.253  44.062  1.00  0.00    -0.263 OA
HETATM    6  O   UNL     1      23.479  16.713  47.072  1.00  0.00    -0.270 OA
HETATM    7  O   UNL     1      22.061  19.833  40.875  1.00  0.00    -0.263 OA
HETATM    8  O   UNL     1      19.037  19.819  41.632  1.00  0.00    -0.270 OA
HETATM    9  O   UNL     1      19.201  18.567  45.879  1.00  0.00    -0.263 OA
HETATM   10  N   UNL     1      24.350  17.187  41.672  1.00  0.00    -0.340 N 
HETATM   11  N   UNL     1      22.296  14.732  46.818  1.00  0.00    -0.340 N 
HETATM   12  N   UNL     1      19.996  20.132  43.720  1.00  0.00    -0.340 N 
HETATM   13  C   UNL     1      24.072  18.636  41.537  1.00  0.00     0.190 C 
HETATM   14  C   UNL     1      23.492  14.046  46.291  1.00  0.00     0.190 C 
HETATM   15  C   UNL     1      24.927  15.165  43.055  1.00  0.00     0.227 C 
HETATM   16  C   UNL     1      20.998  19.778  44.747  1.00  0.00     0.190 C 
HETATM   17  C   UNL     1      21.099  16.911  47.086  1.00  0.00     0.227 C 
HETATM   18  C   UNL     1      20.476  18.043  42.380  1.00  0.00     0.227 C 
HETATM   19  C   UNL     1      24.568  16.652  42.951  1.00  0.00     0.250 C 
HETATM   20  C   UNL     1      23.506  14.347  44.798  1.00  0.00     0.283 C 
HETATM   21  C   UNL     1      22.397  16.116  47.022  1.00  0.00     0.250 C 
HETATM   22  C   UNL     1      22.566  18.891  41.472  1.00  0.00     0.283 C 
HETATM   23  C   UNL     1      19.785  19.416  42.530  1.00  0.00     0.250 C 
HETATM   24  C   UNL     1      20.395  18.754  45.696  1.00  0.00     0.283 C 
HETATM   25  C   UNL     1      24.301  16.395  40.438  1.00  0.00     0.153 C 
HETATM   26  C   UNL     1      21.049  13.977  46.959  1.00  0.00     0.153 C 
HETATM   27  C   UNL     1      19.168  21.314  43.961  1.00  0.00     0.153 C 
ENDROOT
BRANCH  15  28
HETATM   28  C   UNL     1      26.393  14.954  42.700  1.00  0.00     0.016 C 
HETATM   29  C   UNL     1      27.282  15.190  43.920  1.00  0.00     0.012 C 
HETATM   30  C   UNL     1      26.615  13.550  42.141  1.00  0.00     0.012 C 
ENDBRANCH  15  28
BRANCH  14  31
HETATM   31  C   UNL     1      23.567  12.542  46.514  1.00  0.00     0.014 C 
HETATM   32  C   UNL     1      24.539  11.918  45.510  1.00  0.00     0.012 C 
BRANCH  31  33
HETATM   33  C   UNL     1      23.997  12.184  47.948  1.00  0.00     0.002 C 
HETATM   34  C   UNL     1      23.039  11.232  48.651  1.00  0.00     0.005 C 
ENDBRANCH  31  33
ENDBRANCH  14  31
BRANCH  13  35
HETATM   35  C   UNL     1      24.802  19.287  40.363  1.00  0.00     0.014 C 
HETATM   36  C   UNL     1      25.089  20.757  40.682  1.00  0.00     0.012 C 
BRANCH  35  37
HETATM   37  C   UNL     1      26.116  18.565  40.015  1.00  0.00     0.002 C 
HETATM   38  C   UNL     1      26.635  18.885  38.621  1.00  0.00     0.005 C 
ENDBRANCH  35  37
ENDBRANCH  13  35
BRANCH  17  39
HETATM   39  C   UNL     1      20.787  17.315  48.516  1.00  0.00     0.016 C 
HETATM   40  C   UNL     1      21.669  16.546  49.496  1.00  0.00     0.012 C 
HETATM   41  C   UNL     1      19.310  17.086  48.828  1.00  0.00     0.012 C 
ENDBRANCH  17  39
BRANCH  18  42
HETATM   42  C   UNL     1      19.904  17.255  41.200  1.00  0.00     0.016 C 
HETATM   43  C   UNL     1      20.728  15.993  40.944  1.00  0.00     0.012 C 
HETATM   44  C   UNL     1      18.440  16.898  41.448  1.00  0.00     0.012 C 
ENDBRANCH  18  42
BRANCH  16  45
HETATM   45  C   UNL     1      21.558  20.958  45.539  1.00  0.00     0.010 C 
HETATM   46  C   UNL     1      23.083  20.995  45.449  1.00  0.00     0.012 C 
HETATM   47  C   UNL     1      21.111  20.891  46.999  1.00  0.00     0.012 C 
ENDBRANCH  16  45
TORSDOF 8
ENDMDL
MODEL 17
REMARK VINA RESULT:    -4.129     18.648     23.280
REMARK INTER + INTRA:          -5.498
REMARK INTER:                  -5.827
REMARK INTRA:                   0.328
REMARK UNBOUND:                 0.562
REMARK  8 active torsions:
REMARK  status: ('A' for Active; 'I' for Inactive)
REMARK    1  A    between atoms: C_13  and  C_15 
REMARK    2  A    between atoms: C_14  and  C_16 
REMARK    3  A    between atoms: C_15  and  C_22 
REMARK    4  A    between atoms: C_16  and  C_23 
REMARK    5  A    between atoms: C_17  and  C_21 
REMARK    6  A    between atoms: C_18  and  C_24 
REMARK    7  A    between atoms: C_19  and  C_27 
REMARK    8  A    between atoms: C_20  and  C_30 
ROOT
HETATM    1  O   UNL     1      44.155   8.709  45.355  1.00  0.00    -0.304 OA
HETATM    2  O   UNL     1      40.466  11.541  44.004  1.00  0.00    -0.304 OA
HETATM    3  O   UNL     1      42.523  10.189  40.782  1.00  0.00    -0.304 OA
HETATM    4  O   UNL     1      41.742   8.642  44.300  1.00  0.00    -0.270 OA
HETATM    5  O   UNL     1      44.551  10.916  44.809  1.00  0.00    -0.263 OA
HETATM    6  O   UNL     1      43.937   8.297  41.848  1.00  0.00    -0.270 OA
HETATM    7  O   UNL     1      38.178  11.666  44.220  1.00  0.00    -0.263 OA
HETATM    8  O   UNL     1      38.801  13.992  42.241  1.00  0.00    -0.270 OA
HETATM    9  O   UNL     1      42.051  12.224  39.803  1.00  0.00    -0.263 OA
HETATM   10  N   UNL     1      40.681   9.810  46.001  1.00  0.00    -0.340 N 
HETATM   11  N   UNL     1      45.582   9.824  42.437  1.00  0.00    -0.340 N 
HETATM   12  N   UNL     1      39.543  12.175  41.007  1.00  0.00    -0.340 N 
HETATM   13  C   UNL     1      39.395   9.837  45.265  1.00  0.00     0.190 C 
HETATM   14  C   UNL     1      45.808   9.136  43.723  1.00  0.00     0.190 C 
HETATM   15  C   UNL     1      43.078   9.082  46.238  1.00  0.00     0.227 C 
HETATM   16  C   UNL     1      40.303  10.912  40.897  1.00  0.00     0.190 C 
HETATM   17  C   UNL     1      43.949  10.343  40.616  1.00  0.00     0.227 C 
HETATM   18  C   UNL     1      40.598  12.739  43.233  1.00  0.00     0.227 C 
HETATM   19  C   UNL     1      41.781   9.159  45.422  1.00  0.00     0.250 C 
HETATM   20  C   UNL     1      44.780   9.721  44.681  1.00  0.00     0.283 C 
HETATM   21  C   UNL     1      44.499   9.383  41.663  1.00  0.00     0.250 C 
HETATM   22  C   UNL     1      39.253  11.140  44.478  1.00  0.00     0.283 C 
HETATM   23  C   UNL     1      39.554  13.019  42.130  1.00  0.00     0.250 C 
HETATM   24  C   UNL     1      41.710  11.221  40.411  1.00  0.00     0.283 C 
HETATM   25  C   UNL     1      40.723  10.545  47.270  1.00  0.00     0.153 C 
HETATM   26  C   UNL     1      46.390  11.002  42.111  1.00  0.00     0.153 C 
HETATM   27  C   UNL     1      38.719  12.571  39.865  1.00  0.00     0.153 C 
ENDROOT
BRANCH  15  28
HETATM   28  C   UNL     1      42.969   7.990  47.294  1.00  0.00     0.016 C 
HETATM   29  C   UNL     1      43.666   6.715  46.825  1.00  0.00     0.012 C 
HETATM   30  C   UNL     1      43.556   8.464  48.622  1.00  0.00     0.012 C 
ENDBRANCH  15  28
BRANCH  14  31
HETATM   31  C   UNL     1      47.202   9.259  44.325  1.00  0.00     0.014 C 
HETATM   32  C   UNL     1      47.125  10.009  45.656  1.00  0.00     0.012 C 
BRANCH  31  33
HETATM   33  C   UNL     1      47.871   7.889  44.535  1.00  0.00     0.002 C 
HETATM   34  C   UNL     1      47.291   7.100  45.702  1.00  0.00     0.005 C 
ENDBRANCH  31  33
ENDBRANCH  14  31
BRANCH  13  35
HETATM   35  C   UNL     1      38.180   9.587  46.157  1.00  0.00     0.014 C 
HETATM   36  C   UNL     1      36.951   9.299  45.291  1.00  0.00     0.012 C 
BRANCH  35  37
HETATM   37  C   UNL     1      38.404   8.426  47.143  1.00  0.00     0.002 C 
HETATM   38  C   UNL     1      38.416   7.057  46.479  1.00  0.00     0.005 C 
ENDBRANCH  35  37
ENDBRANCH  13  35
BRANCH  17  39
HETATM   39  C   UNL     1      44.365   9.913  39.221  1.00  0.00     0.016 C 
HETATM   40  C   UNL     1      45.366   8.763  39.290  1.00  0.00     0.012 C 
HETATM   41  C   UNL     1      44.955  11.092  38.450  1.00  0.00     0.012 C 
ENDBRANCH  17  39
BRANCH  18  42
HETATM   42  C   UNL     1      40.703  13.908  44.214  1.00  0.00     0.016 C 
HETATM   43  C   UNL     1      41.486  13.499  45.461  1.00  0.00     0.012 C 
HETATM   44  C   UNL     1      41.355  15.117  43.545  1.00  0.00     0.012 C 
ENDBRANCH  18  42
BRANCH  16  45
HETATM   45  C   UNL     1      39.664   9.848  40.006  1.00  0.00     0.010 C 
HETATM   46  C   UNL     1      39.458   8.547  40.780  1.00  0.00     0.012 C 
HETATM   47  C   UNL     1      40.516   9.600  38.762  1.00  0.00     0.012 C 
ENDBRANCH  16  45
TORSDOF 8
ENDMDL
MODEL 18
REMARK VINA RESULT:    -4.113     10.390     13.528
REMARK INTER + INTRA:          -5.475
REMARK INTER:                  -5.965
REMARK INTRA:                   0.490
REMARK UNBOUND:                 0.562
REMARK  8 active torsions:
REMARK  status: ('A' for Active; 'I' for Inactive)
REMARK    1  A    between atoms: C_13  and  C_15 
REMARK    2  A    between atoms: C_14  and  C_16 
REMARK    3  A    between atoms: C_15  and  C_22 
REMARK    4  A    between atoms: C_16  and  C_23 
REMARK    5  A    between atoms: C_17  and  C_21 
REMARK    6  A    between atoms: C_18  and  C_24 
REMARK    7  A    between atoms: C_19  and  C_27 
REMARK    8  A    between atoms: C_20  and  C_30 
ROOT
HETATM    1  O   UNL     1      26.240  13.458  34.799  1.00  0.00    -0.304 OA
HETATM    2  O   UNL     1      29.971  12.275  37.650  1.00  0.00    -0.304 OA
HETATM    3  O   UNL     1      28.795   9.114  35.399  1.00  0.00    -0.304 OA
HETATM    4  O   UNL     1      28.831  12.984  34.766  1.00  0.00    -0.270 OA
HETATM    5  O   UNL     1      25.854  12.326  36.773  1.00  0.00    -0.263 OA
HETATM    6  O   UNL     1      27.285  10.280  33.647  1.00  0.00    -0.270 OA
HETATM    7  O   UNL     1      32.136  12.933  38.071  1.00  0.00    -0.263 OA
HETATM    8  O   UNL     1      31.855  10.366  39.817  1.00  0.00    -0.270 OA
HETATM    9  O   UNL     1      29.363   7.796  37.206  1.00  0.00    -0.263 OA
HETATM   10  N   UNL     1      29.401  14.538  36.392  1.00  0.00    -0.340 N 
HETATM   11  N   UNL     1      25.463  10.124  35.076  1.00  0.00    -0.340 N 
HETATM   12  N   UNL     1      31.524   9.478  37.701  1.00  0.00    -0.340 N 
HETATM   13  C   UNL     1      30.818  14.106  36.396  1.00  0.00     0.190 C 
HETATM   14  C   UNL     1      24.986  11.460  34.669  1.00  0.00     0.190 C 
HETATM   15  C   UNL     1      27.060  14.432  35.475  1.00  0.00     0.227 C 
HETATM   16  C   UNL     1      30.884   9.517  36.369  1.00  0.00     0.190 C 
HETATM   17  C   UNL     1      27.440   8.618  35.355  1.00  0.00     0.227 C 
HETATM   18  C   UNL     1      29.952  11.228  38.625  1.00  0.00     0.227 C 
HETATM   19  C   UNL     1      28.503  13.914  35.512  1.00  0.00     0.250 C 
HETATM   20  C   UNL     1      25.730  12.444  35.562  1.00  0.00     0.283 C 
HETATM   21  C   UNL     1      26.719   9.725  34.596  1.00  0.00     0.250 C 
HETATM   22  C   UNL     1      31.063  13.076  37.500  1.00  0.00     0.283 C 
HETATM   23  C   UNL     1      31.205  10.336  38.766  1.00  0.00     0.250 C 
HETATM   24  C   UNL     1      29.612   8.686  36.406  1.00  0.00     0.283 C 
HETATM   25  C   UNL     1      29.025  15.554  37.380  1.00  0.00     0.153 C 
HETATM   26  C   UNL     1      24.686   9.360  36.055  1.00  0.00     0.153 C 
HETATM   27  C   UNL     1      32.565   8.474  37.923  1.00  0.00     0.153 C 
ENDROOT
BRANCH  15  28
HETATM   28  C   UNL     1      26.985  15.718  34.663  1.00  0.00     0.016 C 
HETATM   29  C   UNL     1      26.364  15.455  33.293  1.00  0.00     0.012 C 
HETATM   30  C   UNL     1      26.190  16.785  35.415  1.00  0.00     0.012 C 
ENDBRANCH  15  28
BRANCH  14  31
HETATM   31  C   UNL     1      23.487  11.706  34.768  1.00  0.00     0.014 C 
HETATM   32  C   UNL     1      23.218  13.206  34.909  1.00  0.00     0.012 C 
BRANCH  31  33
HETATM   33  C   UNL     1      22.721  11.150  33.554  1.00  0.00     0.002 C 
HETATM   34  C   UNL     1      21.735  10.046  33.909  1.00  0.00     0.005 C 
ENDBRANCH  31  33
ENDBRANCH  14  31
BRANCH  13  35
HETATM   35  C   UNL     1      31.807  15.268  36.486  1.00  0.00     0.014 C 
HETATM   36  C   UNL     1      33.221  14.770  36.177  1.00  0.00     0.012 C 
BRANCH  35  37
HETATM   37  C   UNL     1      31.443  16.422  35.535  1.00  0.00     0.002 C 
HETATM   38  C   UNL     1      31.773  17.799  36.095  1.00  0.00     0.005 C 
ENDBRANCH  35  37
ENDBRANCH  13  35
BRANCH  17  39
HETATM   39  C   UNL     1      27.384   7.313  34.583  1.00  0.00     0.016 C 
HETATM   40  C   UNL     1      28.386   7.326  33.432  1.00  0.00     0.012 C 
HETATM   41  C   UNL     1      25.971   7.058  34.061  1.00  0.00     0.012 C 
ENDBRANCH  17  39
BRANCH  18  42
HETATM   42  C   UNL     1      29.557  11.853  39.964  1.00  0.00     0.016 C 
HETATM   43  C   UNL     1      28.524  12.961  39.759  1.00  0.00     0.012 C 
HETATM   44  C   UNL     1      29.019  10.790  40.919  1.00  0.00     0.012 C 
ENDBRANCH  18  42
BRANCH  16  45
HETATM   45  C   UNL     1      31.772   9.064  35.212  1.00  0.00     0.010 C 
HETATM   46  C   UNL     1      31.535   9.933  33.977  1.00  0.00     0.012 C 
HETATM   47  C   UNL     1      31.525   7.592  34.884  1.00  0.00     0.012 C 
ENDBRANCH  16  45
TORSDOF 8
ENDMDL
MODEL 19
REMARK VINA RESULT:    -4.110     18.865     23.849
REMARK INTER + INTRA:          -5.471
REMARK INTER:                  -5.722
REMARK INTRA:                   0.251
REMARK UNBOUND:                 0.562
REMARK  8 active torsions:
REMARK  status: ('A' for Active; 'I' for Inactive)
REMARK    1  A    between atoms: C_13  and  C_15 
REMARK    2  A    between atoms: C_14  and  C_16 
REMARK    3  A    between atoms: C_15  and  C_22 
REMARK    4  A    between atoms: C_16  and  C_23 
REMARK    5  A    between atoms: C_17  and  C_21 
REMARK    6  A    between atoms: C_18  and  C_24 
REMARK    7  A    between atoms: C_19  and  C_27 
REMARK    8  A    between atoms: C_20  and  C_30 
ROOT
HETATM    1  O   UNL     1      40.613   8.491  39.823  1.00  0.00    -0.304 OA
HETATM    2  O   UNL     1      43.130  11.480  42.683  1.00  0.00    -0.304 OA
HETATM    3  O   UNL     1      43.802  12.297  38.769  1.00  0.00    -0.304 OA
HETATM    4  O   UNL     1      40.675  10.964  40.726  1.00  0.00    -0.270 OA
HETATM    5  O   UNL     1      42.848   8.074  40.224  1.00  0.00    -0.263 OA
HETATM    6  O   UNL     1      41.879  10.974  37.643  1.00  0.00    -0.270 OA
HETATM    7  O   UNL     1      42.778  13.010  44.366  1.00  0.00    -0.263 OA
HETATM    8  O   UNL     1      45.828  13.313  43.799  1.00  0.00    -0.270 OA
HETATM    9  O   UNL     1      45.955  12.836  39.396  1.00  0.00    -0.263 OA
HETATM   10  N   UNL     1      40.720  10.417  42.980  1.00  0.00    -0.340 N 
HETATM   11  N   UNL     1      43.183   9.055  37.614  1.00  0.00    -0.340 N 
HETATM   12  N   UNL     1      44.951  13.938  41.746  1.00  0.00    -0.340 N 
HETATM   13  C   UNL     1      40.889  11.833  43.384  1.00  0.00     0.190 C 
HETATM   14  C   UNL     1      42.014   8.215  37.940  1.00  0.00     0.190 C 
HETATM   15  C   UNL     1      40.351   8.647  41.232  1.00  0.00     0.227 C 
HETATM   16  C   UNL     1      44.027  13.715  40.614  1.00  0.00     0.190 C 
HETATM   17  C   UNL     1      44.237  11.313  37.805  1.00  0.00     0.227 C 
HETATM   18  C   UNL     1      44.554  11.617  42.666  1.00  0.00     0.227 C 
HETATM   19  C   UNL     1      40.601  10.110  41.617  1.00  0.00     0.250 C 
HETATM   20  C   UNL     1      41.907   8.241  39.459  1.00  0.00     0.283 C 
HETATM   21  C   UNL     1      42.996  10.444  37.652  1.00  0.00     0.250 C 
HETATM   22  C   UNL     1      42.369  12.162  43.583  1.00  0.00     0.283 C 
HETATM   23  C   UNL     1      45.154  13.034  42.801  1.00  0.00     0.250 C 
HETATM   24  C   UNL     1      44.744  12.916  39.538  1.00  0.00     0.283 C 
HETATM   25  C   UNL     1      40.764   9.421  44.056  1.00  0.00     0.153 C 
HETATM   26  C   UNL     1      44.485   8.413  37.417  1.00  0.00     0.153 C 
HETATM   27  C   UNL     1      45.705  15.191  41.766  1.00  0.00     0.153 C 
ENDROOT
BRANCH  15  28
HETATM   28  C   UNL     1      38.888   8.287  41.455  1.00  0.00     0.016 C 
HETATM   29  C   UNL     1      38.038   8.719  40.262  1.00  0.00     0.012 C 
HETATM   30  C   UNL     1      38.733   6.788  41.707  1.00  0.00     0.012 C 
ENDBRANCH  15  28
BRANCH  14  31
HETATM   31  C   UNL     1      42.054   6.773  37.451  1.00  0.00     0.014 C 
HETATM   32  C   UNL     1      41.079   5.923  38.269  1.00  0.00     0.012 C 
BRANCH  31  33
HETATM   33  C   UNL     1      41.723   6.653  35.953  1.00  0.00     0.002 C 
HETATM   34  C   UNL     1      40.975   5.376  35.595  1.00  0.00     0.005 C 
ENDBRANCH  31  33
ENDBRANCH  14  31
BRANCH  13  35
HETATM   35  C   UNL     1      40.060  12.218  44.609  1.00  0.00     0.014 C 
HETATM   36  C   UNL     1      39.938  13.742  44.695  1.00  0.00     0.012 C 
BRANCH  35  37
HETATM   37  C   UNL     1      38.657  11.585  44.592  1.00  0.00     0.002 C 
HETATM   38  C   UNL     1      37.711  12.229  43.589  1.00  0.00     0.005 C 
ENDBRANCH  35  37
ENDBRANCH  13  35
BRANCH  17  39
HETATM   39  C   UNL     1      44.588  11.986  36.491  1.00  0.00     0.016 C 
HETATM   40  C   UNL     1      43.767  11.394  35.348  1.00  0.00     0.012 C 
HETATM   41  C   UNL     1      46.082  11.853  36.202  1.00  0.00     0.012 C 
ENDBRANCH  17  39
BRANCH  18  42
HETATM   42  C   UNL     1      45.121  10.666  43.721  1.00  0.00     0.016 C 
HETATM   43  C   UNL     1      44.291   9.385  43.796  1.00  0.00     0.012 C 
HETATM   44  C   UNL     1      46.583  10.340  43.422  1.00  0.00     0.012 C 
ENDBRANCH  18  42
BRANCH  16  45
HETATM   45  C   UNL     1      43.425  14.982  40.011  1.00  0.00     0.010 C 
HETATM   46  C   UNL     1      41.899  14.895  39.981  1.00  0.00     0.012 C 
HETATM   47  C   UNL     1      43.973  15.226  38.605  1.00  0.00     0.012 C 
ENDBRANCH  16  45
TORSDOF 8
ENDMDL
MODEL 20
REMARK VINA RESULT:    -4.042      6.946     12.713
REMARK INTER + INTRA:          -5.370
REMARK INTER:                  -5.576
REMARK INTRA:                   0.206
REMARK UNBOUND:                 0.562
REMARK  8 active torsions:
REMARK  status: ('A' for Active; 'I' for Inactive)
REMARK    1  A    between atoms: C_13  and  C_15 
REMARK    2  A    between atoms: C_14  and  C_16 
REMARK    3  A    between atoms: C_15  and  C_22 
REMARK    4  A    between atoms: C_16  and  C_23 
REMARK    5  A    between atoms: C_17  and  C_21 
REMARK    6  A    between atoms: C_18  and  C_24 
REMARK    7  A    between atoms: C_19  and  C_27 
REMARK    8  A    between atoms: C_20  and  C_30 
ROOT
HETATM    1  O   UNL     1      28.498  10.081  36.103  1.00  0.00    -0.304 OA
HETATM    2  O   UNL     1      25.245  12.540  38.713  1.00  0.00    -0.304 OA
HETATM    3  O   UNL     1      28.792  14.500  38.583  1.00  0.00    -0.304 OA
HETATM    4  O   UNL     1      26.917  12.187  36.030  1.00  0.00    -0.270 OA
HETATM    5  O   UNL     1      28.544   9.943  38.406  1.00  0.00    -0.263 OA
HETATM    6  O   UNL     1      29.991  13.240  36.662  1.00  0.00    -0.270 OA
HETATM    7  O   UNL     1      23.152  13.470  38.485  1.00  0.00    -0.263 OA
HETATM    8  O   UNL     1      24.007  14.414  41.330  1.00  0.00    -0.270 OA
HETATM    9  O   UNL     1      28.328  15.192  40.734  1.00  0.00    -0.263 OA
HETATM   10  N   UNL     1      24.955  11.057  36.535  1.00  0.00    -0.340 N 
HETATM   11  N   UNL     1      30.764  11.644  38.158  1.00  0.00    -0.340 N 
HETATM   12  N   UNL     1      25.644  15.426  40.036  1.00  0.00    -0.340 N 
HETATM   13  C   UNL     1      24.175  12.315  36.605  1.00  0.00     0.190 C 
HETATM   14  C   UNL     1      30.549  10.566  37.172  1.00  0.00     0.190 C 
HETATM   15  C   UNL     1      27.085   9.799  36.077  1.00  0.00     0.227 C 
HETATM   16  C   UNL     1      26.656  15.373  38.960  1.00  0.00     0.190 C 
HETATM   17  C   UNL     1      30.054  13.904  38.955  1.00  0.00     0.227 C 
HETATM   18  C   UNL     1      25.412  12.909  40.085  1.00  0.00     0.227 C 
HETATM   19  C   UNL     1      26.320  11.120  36.215  1.00  0.00     0.250 C 
HETATM   20  C   UNL     1      29.091  10.157  37.333  1.00  0.00     0.283 C 
HETATM   21  C   UNL     1      30.290  12.919  37.817  1.00  0.00     0.250 C 
HETATM   22  C   UNL     1      24.088  12.815  38.047  1.00  0.00     0.283 C 
HETATM   23  C   UNL     1      24.943  14.313  40.528  1.00  0.00     0.250 C 
HETATM   24  C   UNL     1      28.007  15.030  39.566  1.00  0.00     0.283 C 
HETATM   25  C   UNL     1      24.240   9.825  36.886  1.00  0.00     0.153 C 
HETATM   26  C   UNL     1      31.316  11.303  39.471  1.00  0.00     0.153 C 
HETATM   27  C   UNL     1      25.354  16.731  40.629  1.00  0.00     0.153 C 
ENDROOT
BRANCH  15  28
HETATM   28  C   UNL     1      26.784   9.157  34.729  1.00  0.00     0.016 C 
HETATM   29  C   UNL     1      27.899   9.455  33.728  1.00  0.00     0.012 C 
HETATM   30  C   UNL     1      26.591   7.649  34.881  1.00  0.00     0.012 C 
ENDBRANCH  15  28
BRANCH  14  31
HETATM   31  C   UNL     1      31.445   9.341  37.296  1.00  0.00     0.014 C 
HETATM   32  C   UNL     1      30.866   8.192  36.467  1.00  0.00     0.012 C 
BRANCH  31  33
HETATM   33  C   UNL     1      32.891   9.627  36.854  1.00  0.00     0.002 C 
HETATM   34  C   UNL     1      32.986  10.457  35.581  1.00  0.00     0.005 C 
ENDBRANCH  31  33
ENDBRANCH  14  31
BRANCH  13  35
HETATM   35  C   UNL     1      22.792  12.207  35.965  1.00  0.00     0.014 C 
HETATM   36  C   UNL     1      22.213  13.607  35.741  1.00  0.00     0.012 C 
BRANCH  35  37
HETATM   37  C   UNL     1      22.819  11.436  34.633  1.00  0.00     0.002 C 
HETATM   38  C   UNL     1      23.620  12.132  33.543  1.00  0.00     0.005 C 
ENDBRANCH  35  37
ENDBRANCH  13  35
BRANCH  17  39
HETATM   39  C   UNL     1      31.144  14.960  38.986  1.00  0.00     0.016 C 
HETATM   40  C   UNL     1      32.111  14.769  37.821  1.00  0.00     0.012 C 
HETATM   41  C   UNL     1      31.892  14.919  40.317  1.00  0.00     0.012 C 
ENDBRANCH  17  39
BRANCH  18  42
HETATM   42  C   UNL     1      24.774  11.812  40.938  1.00  0.00     0.016 C 
HETATM   43  C   UNL     1      24.987  10.439  40.300  1.00  0.00     0.012 C 
HETATM   44  C   UNL     1      25.337  11.835  42.358  1.00  0.00     0.012 C 
ENDBRANCH  18  42
BRANCH  16  45
HETATM   45  C   UNL     1      26.769  16.641  38.116  1.00  0.00     0.010 C 
HETATM   46  C   UNL     1      26.712  16.305  36.626  1.00  0.00     0.012 C 
HETATM   47  C   UNL     1      28.055  17.397  38.444  1.00  0.00     0.012 C 
ENDBRANCH  16  45
TORSDOF 8
ENDMDL
