MODEL 1
REMARK VINA RESULT:    -6.065      0.000      0.000
REMARK INTER + INTRA:          -8.554
REMARK INTER:                  -8.902
REMARK INTRA:                   0.347
REMARK UNBOUND:                 0.347
REMARK  8 active torsions:
REMARK  status: ('A' for Active; 'I' for Inactive)
REMARK    1  A    between atoms: C_13  and  C_15 
REMARK    2  A    between atoms: C_14  and  C_16 
REMARK    3  A    between atoms: C_15  and  C_22 
REMARK    4  A    between atoms: C_16  and  C_23 
REMARK    5  A    between atoms: C_17  and  C_21 
REMARK    6  A    between atoms: C_18  and  C_24 
REMARK    7  A    between atoms: C_19  and  C_27 
REMARK    8  A    between atoms: C_20  and  C_30 
ROOT
HETATM    1  O   UNL     1       8.339  41.284  29.696  1.00  0.00    -0.304 OA
HETATM    2  O   UNL     1       6.349  36.879  29.396  1.00  0.00    -0.304 OA
HETATM    3  O   UNL     1       4.648  39.048  32.370  1.00  0.00    -0.304 OA
HETATM    4  O   UNL     1       6.176  40.015  28.889  1.00  0.00    -0.270 OA
HETATM    5  O   UNL     1       9.012  39.625  31.154  1.00  0.00    -0.263 OA
HETATM    6  O   UNL     1       5.501  41.429  31.804  1.00  0.00    -0.270 OA
HETATM    7  O   UNL     1       5.257  35.546  27.870  1.00  0.00    -0.263 OA
HETATM    8  O   UNL     1       5.061  33.875  30.494  1.00  0.00    -0.270 OA
HETATM    9  O   UNL     1       4.448  37.056  33.517  1.00  0.00    -0.263 OA
HETATM   10  N   UNL     1       7.262  38.500  27.508  1.00  0.00    -0.340 N 
HETATM   11  N   UNL     1       7.449  41.043  33.005  1.00  0.00    -0.340 N 
HETATM   12  N   UNL     1       3.884  35.775  31.112  1.00  0.00    -0.340 N 
HETATM   13  C   UNL     1       6.007  37.767  27.220  1.00  0.00     0.190 C 
HETATM   14  C   UNL     1       8.250  41.776  32.005  1.00  0.00     0.190 C 
HETATM   15  C   UNL     1       8.514  40.410  28.563  1.00  0.00     0.227 C 
HETATM   16  C   UNL     1       3.750  37.246  31.182  1.00  0.00     0.190 C 
HETATM   17  C   UNL     1       5.395  39.683  33.430  1.00  0.00     0.227 C 
HETATM   18  C   UNL     1       6.322  35.923  30.460  1.00  0.00     0.227 C 
HETATM   19  C   UNL     1       7.215  39.627  28.343  1.00  0.00     0.250 C 
HETATM   20  C   UNL     1       8.590  40.752  30.931  1.00  0.00     0.283 C 
HETATM   21  C   UNL     1       6.101  40.813  32.693  1.00  0.00     0.250 C 
HETATM   22  C   UNL     1       5.853  36.574  28.165  1.00  0.00     0.283 C 
HETATM   23  C   UNL     1       5.033  35.098  30.671  1.00  0.00     0.250 C 
HETATM   24  C   UNL     1       4.312  37.732  32.508  1.00  0.00     0.283 C 
HETATM   25  C   UNL     1       8.493  37.935  26.944  1.00  0.00     0.153 C 
HETATM   26  C   UNL     1       8.121  40.480  34.178  1.00  0.00     0.153 C 
HETATM   27  C   UNL     1       2.737  34.970  31.530  1.00  0.00     0.153 C 
ENDROOT
BRANCH  15  28
HETATM   28  C   UNL     1       8.804  41.296  27.359  1.00  0.00     0.016 C 
HETATM   29  C   UNL     1       7.599  42.179  27.036  1.00  0.00     0.012 C 
HETATM   30  C   UNL     1      10.044  42.154  27.605  1.00  0.00     0.012 C 
ENDBRANCH  15  28
BRANCH  14  31
HETATM   31  C   UNL     1       9.526  42.438  32.508  1.00  0.00     0.014 C 
HETATM   32  C   UNL     1      10.452  42.740  31.327  1.00  0.00     0.012 C 
BRANCH  31  33
HETATM   33  C   UNL     1       9.244  43.730  33.294  1.00  0.00     0.002 C 
HETATM   34  C   UNL     1       9.781  43.707  34.719  1.00  0.00     0.005 C 
ENDBRANCH  31  33
ENDBRANCH  14  31
BRANCH  13  35
HETATM   35  C   UNL     1       5.872  37.344  25.758  1.00  0.00     0.014 C 
HETATM   36  C   UNL     1       4.408  37.029  25.442  1.00  0.00     0.012 C 
BRANCH  35  37
HETATM   37  C   UNL     1       6.394  38.418  24.786  1.00  0.00     0.002 C 
HETATM   38  C   UNL     1       5.455  39.605  24.629  1.00  0.00     0.005 C 
ENDBRANCH  35  37
ENDBRANCH  13  35
BRANCH  17  39
HETATM   39  C   UNL     1       4.449  40.235  34.480  1.00  0.00     0.016 C 
HETATM   40  C   UNL     1       4.571  41.754  34.567  1.00  0.00     0.012 C 
HETATM   41  C   UNL     1       4.723  39.596  35.840  1.00  0.00     0.012 C 
ENDBRANCH  17  39
BRANCH  18  42
HETATM   42  C   UNL     1       7.544  35.018  30.298  1.00  0.00     0.016 C 
HETATM   43  C   UNL     1       8.801  35.849  30.042  1.00  0.00     0.012 C 
HETATM   44  C   UNL     1       7.729  34.134  31.529  1.00  0.00     0.012 C 
ENDBRANCH  18  42
BRANCH  16  45
HETATM   45  C   UNL     1       2.330  37.776  30.990  1.00  0.00     0.010 C 
HETATM   46  C   UNL     1       2.282  38.792  29.849  1.00  0.00     0.012 C 
HETATM   47  C   UNL     1       1.806  38.399  32.283  1.00  0.00     0.012 C 
ENDBRANCH  16  45
TORSDOF 8
ENDMDL
MODEL 2
REMARK VINA RESULT:    -5.998      2.185      7.104
REMARK INTER + INTRA:          -8.455
REMARK INTER:                  -9.119
REMARK INTRA:                   0.664
REMARK UNBOUND:                 0.347
REMARK  8 active torsions:
REMARK  status: ('A' for Active; 'I' for Inactive)
REMARK    1  A    between atoms: C_13  and  C_15 
REMARK    2  A    between atoms: C_14  and  C_16 
REMARK    3  A    between atoms: C_15  and  C_22 
REMARK    4  A    between atoms: C_16  and  C_23 
REMARK    5  A    between atoms: C_17  and  C_21 
REMARK    6  A    between atoms: C_18  and  C_24 
REMARK    7  A    between atoms: C_19  and  C_27 
REMARK    8  A    between atoms: C_20  and  C_30 
ROOT
HETATM    1  O   UNL     1       8.696  40.891  25.894  1.00  0.00    -0.304 OA
HETATM    2  O   UNL     1       6.455  40.124  30.118  1.00  0.00    -0.304 OA
HETATM    3  O   UNL     1       6.454  36.772  27.836  1.00  0.00    -0.304 OA
HETATM    4  O   UNL     1       8.994  39.733  28.241  1.00  0.00    -0.270 OA
HETATM    5  O   UNL     1       6.391  40.948  25.990  1.00  0.00    -0.263 OA
HETATM    6  O   UNL     1       8.216  37.388  26.039  1.00  0.00    -0.270 OA
HETATM    7  O   UNL     1       6.876  40.248  32.377  1.00  0.00    -0.263 OA
HETATM    8  O   UNL     1       4.038  38.964  32.286  1.00  0.00    -0.270 OA
HETATM    9  O   UNL     1       4.382  36.323  28.745  1.00  0.00    -0.263 OA
HETATM   10  N   UNL     1       8.560  41.620  29.520  1.00  0.00    -0.340 N 
HETATM   11  N   UNL     1       6.584  38.431  24.761  1.00  0.00    -0.340 N 
HETATM   12  N   UNL     1       5.272  37.346  31.175  1.00  0.00    -0.340 N 
HETATM   13  C   UNL     1       8.615  40.851  30.785  1.00  0.00     0.190 C 
HETATM   14  C   UNL     1       7.520  39.508  24.382  1.00  0.00     0.190 C 
HETATM   15  C   UNL     1       8.802  41.784  27.021  1.00  0.00     0.227 C 
HETATM   16  C   UNL     1       6.272  36.954  30.160  1.00  0.00     0.190 C 
HETATM   17  C   UNL     1       5.965  36.723  26.479  1.00  0.00     0.227 C 
HETATM   18  C   UNL     1       5.098  39.692  30.253  1.00  0.00     0.227 C 
HETATM   19  C   UNL     1       8.790  40.951  28.308  1.00  0.00     0.250 C 
HETATM   20  C   UNL     1       7.435  40.531  25.507  1.00  0.00     0.283 C 
HETATM   21  C   UNL     1       7.026  37.516  25.727  1.00  0.00     0.250 C 
HETATM   22  C   UNL     1       7.212  40.417  31.211  1.00  0.00     0.283 C 
HETATM   23  C   UNL     1       4.767  38.646  31.340  1.00  0.00     0.250 C 
HETATM   24  C   UNL     1       5.558  36.636  28.856  1.00  0.00     0.283 C 
HETATM   25  C   UNL     1       8.190  43.035  29.630  1.00  0.00     0.153 C 
HETATM   26  C   UNL     1       5.219  38.458  24.229  1.00  0.00     0.153 C 
HETATM   27  C   UNL     1       4.775  36.302  32.072  1.00  0.00     0.153 C 
ENDROOT
BRANCH  15  28
HETATM   28  C   UNL     1      10.129  42.519  26.884  1.00  0.00     0.016 C 
HETATM   29  C   UNL     1      10.911  42.000  25.678  1.00  0.00     0.012 C 
HETATM   30  C   UNL     1       9.902  44.025  26.766  1.00  0.00     0.012 C 
ENDBRANCH  15  28
BRANCH  14  31
HETATM   31  C   UNL     1       7.267  40.191  23.045  1.00  0.00     0.014 C 
HETATM   32  C   UNL     1       7.943  41.563  23.030  1.00  0.00     0.012 C 
BRANCH  31  33
HETATM   33  C   UNL     1       7.763  39.350  21.856  1.00  0.00     0.002 C 
HETATM   34  C   UNL     1       6.671  39.013  20.850  1.00  0.00     0.005 C 
ENDBRANCH  31  33
ENDBRANCH  14  31
BRANCH  13  35
HETATM   35  C   UNL     1       9.340  41.586  31.912  1.00  0.00     0.014 C 
HETATM   36  C   UNL     1       9.993  40.574  32.856  1.00  0.00     0.012 C 
BRANCH  35  37
HETATM   37  C   UNL     1      10.403  42.567  31.384  1.00  0.00     0.002 C 
HETATM   38  C   UNL     1      10.784  43.648  32.385  1.00  0.00     0.005 C 
ENDBRANCH  35  37
ENDBRANCH  13  35
BRANCH  17  39
HETATM   39  C   UNL     1       5.919  35.287  25.988  1.00  0.00     0.016 C 
HETATM   40  C   UNL     1       4.501  34.731  26.090  1.00  0.00     0.012 C 
HETATM   41  C   UNL     1       6.895  34.418  26.779  1.00  0.00     0.012 C 
ENDBRANCH  17  39
BRANCH  18  42
HETATM   42  C   UNL     1       4.229  40.943  30.399  1.00  0.00     0.016 C 
HETATM   43  C   UNL     1       4.770  42.080  29.533  1.00  0.00     0.012 C 
HETATM   44  C   UNL     1       2.778  40.638  30.036  1.00  0.00     0.012 C 
ENDBRANCH  18  42
BRANCH  16  45
HETATM   45  C   UNL     1       7.177  35.790  30.559  1.00  0.00     0.010 C 
HETATM   46  C   UNL     1       8.574  35.963  29.964  1.00  0.00     0.012 C 
HETATM   47  C   UNL     1       6.571  34.458  30.118  1.00  0.00     0.012 C 
ENDBRANCH  16  45
TORSDOF 8
ENDMDL
MODEL 3
REMARK VINA RESULT:    -5.944      2.777      6.941
REMARK INTER + INTRA:          -8.376
REMARK INTER:                  -8.994
REMARK INTRA:                   0.617
REMARK UNBOUND:                 0.347
REMARK  8 active torsions:
REMARK  status: ('A' for Active; 'I' for Inactive)
REMARK    1  A    between atoms: C_13  and  C_15 
REMARK    2  A    between atoms: C_14  and  C_16 
REMARK    3  A    between atoms: C_15  and  C_22 
REMARK    4  A    between atoms: C_16  and  C_23 
REMARK    5  A    between atoms: C_17  and  C_21 
REMARK    6  A    between atoms: C_18  and  C_24 
REMARK    7  A    between atoms: C_19  and  C_27 
REMARK    8  A    between atoms: C_20  and  C_30 
ROOT
HETATM    1  O   UNL     1       8.580  41.819  32.082  1.00  0.00    -0.304 OA
HETATM    2  O   UNL     1       6.430  40.329  28.007  1.00  0.00    -0.304 OA
HETATM    3  O   UNL     1       9.399  42.971  27.207  1.00  0.00    -0.304 OA
HETATM    4  O   UNL     1       8.915  40.252  29.991  1.00  0.00    -0.270 OA
HETATM    5  O   UNL     1       6.986  43.153  31.080  1.00  0.00    -0.263 OA
HETATM    6  O   UNL     1      10.649  43.024  29.476  1.00  0.00    -0.270 OA
HETATM    7  O   UNL     1       5.982  38.379  26.870  1.00  0.00    -0.263 OA
HETATM    8  O   UNL     1       5.017  40.567  24.871  1.00  0.00    -0.270 OA
HETATM    9  O   UNL     1       8.079  43.713  25.466  1.00  0.00    -0.263 OA
HETATM   10  N   UNL     1       6.957  39.037  30.261  1.00  0.00    -0.340 N 
HETATM   11  N   UNL     1       9.206  44.663  30.261  1.00  0.00    -0.340 N 
HETATM   12  N   UNL     1       7.271  41.088  25.015  1.00  0.00    -0.340 N 
HETATM   13  C   UNL     1       7.168  38.299  28.993  1.00  0.00     0.190 C 
HETATM   14  C   UNL     1       9.188  44.052  31.604  1.00  0.00     0.190 C 
HETATM   15  C   UNL     1       7.712  40.670  32.019  1.00  0.00     0.227 C 
HETATM   16  C   UNL     1       8.493  41.329  25.811  1.00  0.00     0.190 C 
HETATM   17  C   UNL     1       9.493  44.281  27.807  1.00  0.00     0.227 C 
HETATM   18  C   UNL     1       5.790  41.191  27.061  1.00  0.00     0.227 C 
HETATM   19  C   UNL     1       7.917  39.976  30.667  1.00  0.00     0.250 C 
HETATM   20  C   UNL     1       8.104  42.984  31.547  1.00  0.00     0.283 C 
HETATM   21  C   UNL     1       9.860  43.948  29.247  1.00  0.00     0.250 C 
HETATM   22  C   UNL     1       6.418  38.977  27.846  1.00  0.00     0.283 C 
HETATM   23  C   UNL     1       5.989  40.902  25.557  1.00  0.00     0.250 C 
HETATM   24  C   UNL     1       8.609  42.816  26.104  1.00  0.00     0.283 C 
HETATM   25  C   UNL     1       5.700  38.774  30.969  1.00  0.00     0.153 C 
HETATM   26  C   UNL     1       8.434  45.886  30.027  1.00  0.00     0.153 C 
HETATM   27  C   UNL     1       7.410  41.040  23.560  1.00  0.00     0.153 C 
ENDROOT
BRANCH  15  28
HETATM   28  C   UNL     1       8.121  39.740  33.153  1.00  0.00     0.016 C 
HETATM   29  C   UNL     1       9.632  39.792  33.376  1.00  0.00     0.012 C 
HETATM   30  C   UNL     1       7.379  40.099  34.439  1.00  0.00     0.012 C 
ENDBRANCH  15  28
BRANCH  14  31
HETATM   31  C   UNL     1       8.926  44.989  32.775  1.00  0.00     0.014 C 
HETATM   32  C   UNL     1       7.539  44.711  33.359  1.00  0.00     0.012 C 
BRANCH  31  33
HETATM   33  C   UNL     1       9.992  44.861  33.877  1.00  0.00     0.002 C 
HETATM   34  C   UNL     1       9.752  43.693  34.824  1.00  0.00     0.005 C 
ENDBRANCH  31  33
ENDBRANCH  14  31
BRANCH  13  35
HETATM   35  C   UNL     1       6.819  36.814  29.090  1.00  0.00     0.014 C 
HETATM   36  C   UNL     1       7.299  36.085  27.832  1.00  0.00     0.012 C 
BRANCH  35  37
HETATM   37  C   UNL     1       7.424  36.149  30.339  1.00  0.00     0.002 C 
HETATM   38  C   UNL     1       8.938  36.005  30.279  1.00  0.00     0.005 C 
ENDBRANCH  35  37
ENDBRANCH  13  35
BRANCH  17  39
HETATM   39  C   UNL     1      10.597  45.085  27.143  1.00  0.00     0.016 C 
HETATM   40  C   UNL     1      11.819  45.172  28.053  1.00  0.00     0.012 C 
HETATM   41  C   UNL     1      10.098  46.482  26.779  1.00  0.00     0.012 C 
ENDBRANCH  17  39
BRANCH  18  42
HETATM   42  C   UNL     1       4.307  41.257  27.427  1.00  0.00     0.016 C 
HETATM   43  C   UNL     1       4.122  41.217  28.944  1.00  0.00     0.012 C 
HETATM   44  C   UNL     1       3.661  42.512  26.842  1.00  0.00     0.012 C 
ENDBRANCH  18  42
BRANCH  16  45
HETATM   45  C   UNL     1       9.787  40.816  25.181  1.00  0.00     0.010 C 
HETATM   46  C   UNL     1      10.132  39.425  25.710  1.00  0.00     0.012 C 
HETATM   47  C   UNL     1      10.937  41.788  25.442  1.00  0.00     0.012 C 
ENDBRANCH  16  45
TORSDOF 8
ENDMDL
MODEL 4
REMARK VINA RESULT:    -5.599      2.119      8.388
REMARK INTER + INTRA:          -7.870
REMARK INTER:                  -8.249
REMARK INTRA:                   0.379
REMARK UNBOUND:                 0.347
REMARK  8 active torsions:
REMARK  status: ('A' for Active; 'I' for Inactive)
REMARK    1  A    between atoms: C_13  and  C_15 
REMARK    2  A    between atoms: C_14  and  C_16 
REMARK    3  A    between atoms: C_15  and  C_22 
REMARK    4  A    between atoms: C_16  and  C_23 
REMARK    5  A    between atoms: C_17  and  C_21 
REMARK    6  A    between atoms: C_18  and  C_24 
REMARK    7  A    between atoms: C_19  and  C_27 
REMARK    8  A    between atoms: C_20  and  C_30 
ROOT
HETATM    1  O   UNL     1       5.398  38.149  31.086  1.00  0.00    -0.304 OA
HETATM    2  O   UNL     1       8.408  41.590  32.682  1.00  0.00    -0.304 OA
HETATM    3  O   UNL     1       8.039  41.731  28.646  1.00  0.00    -0.304 OA
HETATM    4  O   UNL     1       5.569  40.740  31.527  1.00  0.00    -0.270 OA
HETATM    5  O   UNL     1       7.679  37.815  30.967  1.00  0.00    -0.263 OA
HETATM    6  O   UNL     1       5.960  40.229  28.280  1.00  0.00    -0.270 OA
HETATM    7  O   UNL     1       8.418  43.384  34.124  1.00  0.00    -0.263 OA
HETATM    8  O   UNL     1      11.211  43.597  32.758  1.00  0.00    -0.270 OA
HETATM    9  O   UNL     1      10.254  42.378  28.607  1.00  0.00    -0.263 OA
HETATM   10  N   UNL     1       6.201  40.586  33.753  1.00  0.00    -0.340 N 
HETATM   11  N   UNL     1       7.303  38.338  28.235  1.00  0.00    -0.340 N 
HETATM   12  N   UNL     1       9.819  43.860  30.922  1.00  0.00    -0.340 N 
HETATM   13  C   UNL     1       6.400  42.050  33.863  1.00  0.00     0.190 C 
HETATM   14  C   UNL     1       6.294  37.561  28.980  1.00  0.00     0.190 C 
HETATM   15  C   UNL     1       5.490  38.541  32.470  1.00  0.00     0.227 C 
HETATM   16  C   UNL     1       8.652  43.444  30.116  1.00  0.00     0.190 C 
HETATM   17  C   UNL     1       8.265  40.600  27.778  1.00  0.00     0.227 C 
HETATM   18  C   UNL     1       9.774  41.728  32.280  1.00  0.00     0.227 C 
HETATM   19  C   UNL     1       5.759  40.050  32.534  1.00  0.00     0.250 C 
HETATM   20  C   UNL     1       6.570  37.845  30.451  1.00  0.00     0.283 C 
HETATM   21  C   UNL     1       7.067  39.713  28.090  1.00  0.00     0.250 C 
HETATM   22  C   UNL     1       7.865  42.413  33.622  1.00  0.00     0.283 C 
HETATM   23  C   UNL     1      10.323  43.150  32.024  1.00  0.00     0.250 C 
HETATM   24  C   UNL     1       9.114  42.476  29.038  1.00  0.00     0.283 C 
HETATM   25  C   UNL     1       6.560  39.787  34.930  1.00  0.00     0.153 C 
HETATM   26  C   UNL     1       8.543  37.677  27.820  1.00  0.00     0.153 C 
HETATM   27  C   UNL     1      10.495  45.101  30.545  1.00  0.00     0.153 C 
ENDROOT
BRANCH  15  28
HETATM   28  C   UNL     1       4.148  38.220  33.115  1.00  0.00     0.016 C 
HETATM   29  C   UNL     1       3.063  38.063  32.051  1.00  0.00     0.012 C 
HETATM   30  C   UNL     1       4.248  36.957  33.968  1.00  0.00     0.012 C 
ENDBRANCH  15  28
BRANCH  14  31
HETATM   31  C   UNL     1       6.278  36.058  28.740  1.00  0.00     0.014 C 
HETATM   32  C   UNL     1       5.380  35.378  29.777  1.00  0.00     0.012 C 
BRANCH  31  33
HETATM   33  C   UNL     1       5.804  35.697  27.322  1.00  0.00     0.002 C 
HETATM   34  C   UNL     1       6.650  34.623  26.651  1.00  0.00     0.005 C 
ENDBRANCH  31  33
ENDBRANCH  14  31
BRANCH  13  35
HETATM   35  C   UNL     1       5.887  42.635  35.178  1.00  0.00     0.014 C 
HETATM   36  C   UNL     1       5.850  44.163  35.087  1.00  0.00     0.012 C 
BRANCH  35  37
HETATM   37  C   UNL     1       4.492  42.103  35.554  1.00  0.00     0.002 C 
HETATM   38  C   UNL     1       3.395  43.152  35.460  1.00  0.00     0.005 C 
ENDBRANCH  35  37
ENDBRANCH  13  35
BRANCH  17  39
HETATM   39  C   UNL     1       8.244  41.040  26.326  1.00  0.00     0.016 C 
HETATM   40  C   UNL     1       7.115  40.343  25.570  1.00  0.00     0.012 C 
HETATM   41  C   UNL     1       9.589  40.759  25.660  1.00  0.00     0.012 C 
ENDBRANCH  17  39
BRANCH  18  42
HETATM   42  C   UNL     1      10.632  40.973  33.296  1.00  0.00     0.016 C 
HETATM   43  C   UNL     1      10.040  39.593  33.583  1.00  0.00     0.012 C 
HETATM   44  C   UNL     1      12.071  40.845  32.800  1.00  0.00     0.012 C 
ENDBRANCH  18  42
BRANCH  16  45
HETATM   45  C   UNL     1       7.860  44.588  29.487  1.00  0.00     0.010 C 
HETATM   46  C   UNL     1       6.385  44.502  29.877  1.00  0.00     0.012 C 
HETATM   47  C   UNL     1       8.011  44.579  27.966  1.00  0.00     0.012 C 
ENDBRANCH  16  45
TORSDOF 8
ENDMDL
MODEL 5
REMARK VINA RESULT:    -5.561      2.350      7.193
REMARK INTER + INTRA:          -7.814
REMARK INTER:                  -8.201
REMARK INTRA:                   0.387
REMARK UNBOUND:                 0.347
REMARK  8 active torsions:
REMARK  status: ('A' for Active; 'I' for Inactive)
REMARK    1  A    between atoms: C_13  and  C_15 
REMARK    2  A    between atoms: C_14  and  C_16 
REMARK    3  A    between atoms: C_15  and  C_22 
REMARK    4  A    between atoms: C_16  and  C_23 
REMARK    5  A    between atoms: C_17  and  C_21 
REMARK    6  A    between atoms: C_18  and  C_24 
REMARK    7  A    between atoms: C_19  and  C_27 
REMARK    8  A    between atoms: C_20  and  C_30 
ROOT
HETATM    1  O   UNL     1       6.759  38.613  29.316  1.00  0.00    -0.304 OA
HETATM    2  O   UNL     1       7.867  43.322  29.096  1.00  0.00    -0.304 OA
HETATM    3  O   UNL     1       7.646  42.053  32.941  1.00  0.00    -0.304 OA
HETATM    4  O   UNL     1       8.753  40.309  29.606  1.00  0.00    -0.270 OA
HETATM    5  O   UNL     1       5.105  40.191  29.635  1.00  0.00    -0.263 OA
HETATM    6  O   UNL     1       7.670  39.482  32.622  1.00  0.00    -0.270 OA
HETATM    7  O   UNL     1       9.468  44.708  28.196  1.00  0.00    -0.263 OA
HETATM    8  O   UNL     1       7.764  46.668  29.919  1.00  0.00    -0.270 OA
HETATM    9  O   UNL     1       6.813  44.147  33.436  1.00  0.00    -0.263 OA
HETATM   10  N   UNL     1       8.555  41.304  27.520  1.00  0.00    -0.340 N 
HETATM   11  N   UNL     1       5.367  39.471  32.336  1.00  0.00    -0.340 N 
HETATM   12  N   UNL     1       8.558  45.239  31.563  1.00  0.00    -0.340 N 
HETATM   13  C   UNL     1       9.601  42.307  27.830  1.00  0.00     0.190 C 
HETATM   14  C   UNL     1       5.468  38.438  31.287  1.00  0.00     0.190 C 
HETATM   15  C   UNL     1       7.202  39.267  28.110  1.00  0.00     0.227 C 
HETATM   16  C   UNL     1       8.824  43.877  32.072  1.00  0.00     0.190 C 
HETATM   17  C   UNL     1       6.502  41.372  33.498  1.00  0.00     0.227 C 
HETATM   18  C   UNL     1       7.096  44.369  29.693  1.00  0.00     0.227 C 
HETATM   19  C   UNL     1       8.234  40.338  28.485  1.00  0.00     0.250 C 
HETATM   20  C   UNL     1       5.727  39.199  29.994  1.00  0.00     0.283 C 
HETATM   21  C   UNL     1       6.570  40.015  32.809  1.00  0.00     0.250 C 
HETATM   22  C   UNL     1       8.970  43.600  28.347  1.00  0.00     0.283 C 
HETATM   23  C   UNL     1       7.847  45.527  30.386  1.00  0.00     0.250 C 
HETATM   24  C   UNL     1       7.636  43.418  32.903  1.00  0.00     0.283 C 
HETATM   25  C   UNL     1       7.874  41.449  26.230  1.00  0.00     0.153 C 
HETATM   26  C   UNL     1       4.043  39.969  32.716  1.00  0.00     0.153 C 
HETATM   27  C   UNL     1       9.073  46.365  32.341  1.00  0.00     0.153 C 
ENDROOT
BRANCH  15  28
HETATM   28  C   UNL     1       7.847  38.200  27.236  1.00  0.00     0.016 C 
HETATM   29  C   UNL     1       7.938  36.872  27.984  1.00  0.00     0.012 C 
HETATM   30  C   UNL     1       7.069  38.028  25.932  1.00  0.00     0.012 C 
ENDBRANCH  15  28
BRANCH  14  31
HETATM   31  C   UNL     1       4.263  37.523  31.114  1.00  0.00     0.014 C 
HETATM   32  C   UNL     1       4.328  36.836  29.748  1.00  0.00     0.012 C 
BRANCH  31  33
HETATM   33  C   UNL     1       4.167  36.465  32.227  1.00  0.00     0.002 C 
HETATM   34  C   UNL     1       5.050  35.248  31.988  1.00  0.00     0.005 C 
ENDBRANCH  31  33
ENDBRANCH  14  31
BRANCH  13  35
HETATM   35  C   UNL     1      10.551  42.575  26.663  1.00  0.00     0.014 C 
HETATM   36  C   UNL     1      11.889  43.098  27.193  1.00  0.00     0.012 C 
BRANCH  35  37
HETATM   37  C   UNL     1      10.787  41.323  25.800  1.00  0.00     0.002 C 
HETATM   38  C   UNL     1      11.442  41.622  24.459  1.00  0.00     0.005 C 
ENDBRANCH  35  37
ENDBRANCH  13  35
BRANCH  17  39
HETATM   39  C   UNL     1       6.661  41.220  35.000  1.00  0.00     0.016 C 
HETATM   40  C   UNL     1       6.587  39.749  35.402  1.00  0.00     0.012 C 
HETATM   41  C   UNL     1       5.598  42.033  35.737  1.00  0.00     0.012 C 
ENDBRANCH  17  39
BRANCH  18  42
HETATM   42  C   UNL     1       6.125  44.888  28.632  1.00  0.00     0.016 C 
HETATM   43  C   UNL     1       5.636  43.746  27.742  1.00  0.00     0.012 C 
HETATM   44  C   UNL     1       4.943  45.601  29.285  1.00  0.00     0.012 C 
ENDBRANCH  18  42
BRANCH  16  45
HETATM   45  C   UNL     1      10.114  43.727  32.875  1.00  0.00     0.010 C 
HETATM   46  C   UNL     1      10.978  42.603  32.305  1.00  0.00     0.012 C 
HETATM   47  C   UNL     1       9.807  43.469  34.350  1.00  0.00     0.012 C 
ENDBRANCH  16  45
TORSDOF 8
ENDMDL
MODEL 6
REMARK VINA RESULT:    -5.340      2.806      7.749
REMARK INTER + INTRA:          -7.490
REMARK INTER:                  -8.272
REMARK INTRA:                   0.783
REMARK UNBOUND:                 0.347
REMARK  8 active torsions:
REMARK  status: ('A' for Active; 'I' for Inactive)
REMARK    1  A    between atoms: C_13  and  C_15 
REMARK    2  A    between atoms: C_14  and  C_16 
REMARK    3  A    between atoms: C_15  and  C_22 
REMARK    4  A    between atoms: C_16  and  C_23 
REMARK    5  A    between atoms: C_17  and  C_21 
REMARK    6  A    between atoms: C_18  and  C_24 
REMARK    7  A    between atoms: C_19  and  C_27 
REMARK    8  A    between atoms: C_20  and  C_30 
ROOT
HETATM    1  O   UNL     1       6.668  40.074  27.830  1.00  0.00    -0.304 OA
HETATM    2  O   UNL     1       8.019  41.135  32.357  1.00  0.00    -0.304 OA
HETATM    3  O   UNL     1       8.775  44.228  29.848  1.00  0.00    -0.304 OA
HETATM    4  O   UNL     1       5.975  41.483  29.945  1.00  0.00    -0.270 OA
HETATM    5  O   UNL     1       8.889  39.888  28.431  1.00  0.00    -0.263 OA
HETATM    6  O   UNL     1       7.389  43.538  27.769  1.00  0.00    -0.270 OA
HETATM    7  O   UNL     1       7.121  41.268  34.472  1.00  0.00    -0.263 OA
HETATM    8  O   UNL     1      10.009  42.363  34.891  1.00  0.00    -0.270 OA
HETATM    9  O   UNL     1      10.637  44.642  31.145  1.00  0.00    -0.263 OA
HETATM   10  N   UNL     1       5.974  39.715  31.447  1.00  0.00    -0.340 N 
HETATM   11  N   UNL     1       9.165  42.273  26.975  1.00  0.00    -0.340 N 
HETATM   12  N   UNL     1       9.173  43.930  33.401  1.00  0.00    -0.340 N 
HETATM   13  C   UNL     1       5.715  40.612  32.598  1.00  0.00     0.190 C 
HETATM   14  C   UNL     1       8.246  41.221  26.497  1.00  0.00     0.190 C 
HETATM   15  C   UNL     1       6.254  39.310  28.980  1.00  0.00     0.227 C 
HETATM   16  C   UNL     1       8.445  44.275  32.162  1.00  0.00     0.190 C 
HETATM   17  C   UNL     1       9.543  44.108  28.631  1.00  0.00     0.227 C 
HETATM   18  C   UNL     1       9.348  41.495  32.748  1.00  0.00     0.227 C 
HETATM   19  C   UNL     1       6.061  40.269  30.160  1.00  0.00     0.250 C 
HETATM   20  C   UNL     1       8.008  40.316  27.698  1.00  0.00     0.283 C 
HETATM   21  C   UNL     1       8.604  43.307  27.738  1.00  0.00     0.250 C 
HETATM   22  C   UNL     1       7.027  41.002  33.281  1.00  0.00     0.283 C 
HETATM   23  C   UNL     1       9.525  42.626  33.785  1.00  0.00     0.250 C 
HETATM   24  C   UNL     1       9.443  44.413  31.023  1.00  0.00     0.283 C 
HETATM   25  C   UNL     1       6.196  38.299  31.759  1.00  0.00     0.153 C 
HETATM   26  C   UNL     1      10.605  42.109  26.759  1.00  0.00     0.153 C 
HETATM   27  C   UNL     1       9.552  45.028  34.291  1.00  0.00     0.153 C 
ENDROOT
BRANCH  15  28
HETATM   28  C   UNL     1       4.931  38.646  28.621  1.00  0.00     0.016 C 
HETATM   29  C   UNL     1       4.320  39.298  27.382  1.00  0.00     0.012 C 
HETATM   30  C   UNL     1       5.123  37.147  28.397  1.00  0.00     0.012 C 
ENDBRANCH  15  28
BRANCH  14  31
HETATM   31  C   UNL     1       8.720  40.391  25.312  1.00  0.00     0.014 C 
HETATM   32  C   UNL     1       8.235  38.947  25.466  1.00  0.00     0.012 C 
BRANCH  31  33
HETATM   33  C   UNL     1       8.240  40.963  23.967  1.00  0.00     0.002 C 
HETATM   34  C   UNL     1       9.285  41.816  23.260  1.00  0.00     0.005 C 
ENDBRANCH  31  33
ENDBRANCH  14  31
BRANCH  13  35
HETATM   35  C   UNL     1       4.711  40.041  33.598  1.00  0.00     0.014 C 
HETATM   36  C   UNL     1       3.352  39.852  32.919  1.00  0.00     0.012 C 
BRANCH  35  37
HETATM   37  C   UNL     1       5.180  38.705  34.203  1.00  0.00     0.002 C 
HETATM   38  C   UNL     1       4.107  37.994  35.014  1.00  0.00     0.005 C 
ENDBRANCH  35  37
ENDBRANCH  13  35
BRANCH  17  39
HETATM   39  C   UNL     1       9.808  45.480  28.039  1.00  0.00     0.016 C 
HETATM   40  C   UNL     1       8.988  45.684  26.768  1.00  0.00     0.012 C 
HETATM   41  C   UNL     1      11.297  45.662  27.752  1.00  0.00     0.012 C 
ENDBRANCH  17  39
BRANCH  18  42
HETATM   42  C   UNL     1      10.061  40.216  33.189  1.00  0.00     0.016 C 
HETATM   43  C   UNL     1       9.732  39.060  32.243  1.00  0.00     0.012 C 
HETATM   44  C   UNL     1      11.571  40.436  33.259  1.00  0.00     0.012 C 
ENDBRANCH  18  42
BRANCH  16  45
HETATM   45  C   UNL     1       7.574  45.526  32.250  1.00  0.00     0.010 C 
HETATM   46  C   UNL     1       6.128  45.206  31.874  1.00  0.00     0.012 C 
HETATM   47  C   UNL     1       8.126  46.634  31.353  1.00  0.00     0.012 C 
ENDBRANCH  16  45
TORSDOF 8
ENDMDL
MODEL 7
REMARK VINA RESULT:    -5.307      9.651     14.653
REMARK INTER + INTRA:          -7.442
REMARK INTER:                  -8.146
REMARK INTRA:                   0.704
REMARK UNBOUND:                 0.347
REMARK  8 active torsions:
REMARK  status: ('A' for Active; 'I' for Inactive)
REMARK    1  A    between atoms: C_13  and  C_15 
REMARK    2  A    between atoms: C_14  and  C_16 
REMARK    3  A    between atoms: C_15  and  C_22 
REMARK    4  A    between atoms: C_16  and  C_23 
REMARK    5  A    between atoms: C_17  and  C_21 
REMARK    6  A    between atoms: C_18  and  C_24 
REMARK    7  A    between atoms: C_19  and  C_27 
REMARK    8  A    between atoms: C_20  and  C_30 
ROOT
HETATM    1  O   UNL     1      15.458  44.771  30.876  1.00  0.00    -0.304 OA
HETATM    2  O   UNL     1      14.113  49.390  30.325  1.00  0.00    -0.304 OA
HETATM    3  O   UNL     1      17.476  48.588  28.208  1.00  0.00    -0.304 OA
HETATM    4  O   UNL     1      14.341  46.436  29.168  1.00  0.00    -0.270 OA
HETATM    5  O   UNL     1      16.505  46.419  32.107  1.00  0.00    -0.263 OA
HETATM    6  O   UNL     1      17.492  45.997  28.253  1.00  0.00    -0.270 OA
HETATM    7  O   UNL     1      12.301  50.618  29.614  1.00  0.00    -0.263 OA
HETATM    8  O   UNL     1      14.464  52.811  30.087  1.00  0.00    -0.270 OA
HETATM    9  O   UNL     1      18.128  50.747  28.694  1.00  0.00    -0.263 OA
HETATM   10  N   UNL     1      12.667  47.183  30.589  1.00  0.00    -0.340 N 
HETATM   11  N   UNL     1      18.605  46.015  30.289  1.00  0.00    -0.340 N 
HETATM   12  N   UNL     1      15.482  51.564  28.419  1.00  0.00    -0.340 N 
HETATM   13  C   UNL     1      12.195  48.187  29.606  1.00  0.00     0.190 C 
HETATM   14  C   UNL     1      17.817  44.863  30.769  1.00  0.00     0.190 C 
HETATM   15  C   UNL     1      14.157  45.267  31.249  1.00  0.00     0.227 C 
HETATM   16  C   UNL     1      15.888  50.265  27.843  1.00  0.00     0.190 C 
HETATM   17  C   UNL     1      18.668  48.008  28.780  1.00  0.00     0.227 C 
HETATM   18  C   UNL     1      14.926  50.520  30.653  1.00  0.00     0.227 C 
HETATM   19  C   UNL     1      13.738  46.346  30.243  1.00  0.00     0.250 C 
HETATM   20  C   UNL     1      16.541  45.460  31.347  1.00  0.00     0.283 C 
HETATM   21  C   UNL     1      18.224  46.578  29.062  1.00  0.00     0.250 C 
HETATM   22  C   UNL     1      12.835  49.548  29.879  1.00  0.00     0.283 C 
HETATM   23  C   UNL     1      14.917  51.731  29.694  1.00  0.00     0.250 C 
HETATM   24  C   UNL     1      17.300  49.938  28.301  1.00  0.00     0.283 C 
HETATM   25  C   UNL     1      12.010  47.194  31.900  1.00  0.00     0.153 C 
HETATM   26  C   UNL     1      19.628  46.589  31.166  1.00  0.00     0.153 C 
HETATM   27  C   UNL     1      15.682  52.760  27.600  1.00  0.00     0.153 C 
ENDROOT
BRANCH  15  28
HETATM   28  C   UNL     1      13.196  44.088  31.184  1.00  0.00     0.016 C 
HETATM   29  C   UNL     1      12.646  43.917  29.769  1.00  0.00     0.012 C 
HETATM   30  C   UNL     1      13.883  42.805  31.649  1.00  0.00     0.012 C 
ENDBRANCH  15  28
BRANCH  14  31
HETATM   31  C   UNL     1      18.482  43.968  31.805  1.00  0.00     0.014 C 
HETATM   32  C   UNL     1      17.412  43.220  32.605  1.00  0.00     0.012 C 
BRANCH  31  33
HETATM   33  C   UNL     1      19.456  42.961  31.168  1.00  0.00     0.002 C 
HETATM   34  C   UNL     1      20.451  42.367  32.157  1.00  0.00     0.005 C 
ENDBRANCH  31  33
ENDBRANCH  14  31
BRANCH  13  35
HETATM   35  C   UNL     1      10.673  48.290  29.527  1.00  0.00     0.014 C 
HETATM   36  C   UNL     1      10.264  48.928  28.197  1.00  0.00     0.012 C 
BRANCH  35  37
HETATM   37  C   UNL     1       9.983  46.923  29.682  1.00  0.00     0.002 C 
HETATM   38  C   UNL     1       9.775  46.193  28.363  1.00  0.00     0.005 C 
ENDBRANCH  35  37
ENDBRANCH  13  35
BRANCH  17  39
HETATM   39  C   UNL     1      19.800  48.030  27.770  1.00  0.00     0.016 C 
HETATM   40  C   UNL     1      20.808  49.122  28.117  1.00  0.00     0.012 C 
HETATM   41  C   UNL     1      19.255  48.232  26.357  1.00  0.00     0.012 C 
ENDBRANCH  17  39
BRANCH  18  42
HETATM   42  C   UNL     1      14.581  50.937  32.083  1.00  0.00     0.016 C 
HETATM   43  C   UNL     1      14.246  49.714  32.937  1.00  0.00     0.012 C 
HETATM   44  C   UNL     1      15.730  51.727  32.708  1.00  0.00     0.012 C 
ENDBRANCH  18  42
BRANCH  16  45
HETATM   45  C   UNL     1      15.798  50.176  26.321  1.00  0.00     0.010 C 
HETATM   46  C   UNL     1      15.414  48.762  25.883  1.00  0.00     0.012 C 
HETATM   47  C   UNL     1      17.118  50.594  25.675  1.00  0.00     0.012 C 
ENDBRANCH  16  45
TORSDOF 8
ENDMDL
MODEL 8
REMARK VINA RESULT:    -5.277      2.688      6.649
REMARK INTER + INTRA:          -7.398
REMARK INTER:                  -8.546
REMARK INTRA:                   1.148
REMARK UNBOUND:                 0.347
REMARK  8 active torsions:
REMARK  status: ('A' for Active; 'I' for Inactive)
REMARK    1  A    between atoms: C_13  and  C_15 
REMARK    2  A    between atoms: C_14  and  C_16 
REMARK    3  A    between atoms: C_15  and  C_22 
REMARK    4  A    between atoms: C_16  and  C_23 
REMARK    5  A    between atoms: C_17  and  C_21 
REMARK    6  A    between atoms: C_18  and  C_24 
REMARK    7  A    between atoms: C_19  and  C_27 
REMARK    8  A    between atoms: C_20  and  C_30 
ROOT
HETATM    1  O   UNL     1       7.911  37.566  29.799  1.00  0.00    -0.304 OA
HETATM    2  O   UNL     1       4.611  37.814  26.264  1.00  0.00    -0.304 OA
HETATM    3  O   UNL     1       7.391  40.739  25.871  1.00  0.00    -0.304 OA
HETATM    4  O   UNL     1       7.545  37.066  27.238  1.00  0.00    -0.270 OA
HETATM    5  O   UNL     1       6.184  39.089  29.955  1.00  0.00    -0.263 OA
HETATM    6  O   UNL     1       9.231  39.903  27.493  1.00  0.00    -0.270 OA
HETATM    7  O   UNL     1       3.741  36.509  24.579  1.00  0.00    -0.263 OA
HETATM    8  O   UNL     1       2.388  39.269  24.066  1.00  0.00    -0.270 OA
HETATM    9  O   UNL     1       5.682  42.060  25.062  1.00  0.00    -0.263 OA
HETATM   10  N   UNL     1       5.672  35.723  27.500  1.00  0.00    -0.340 N 
HETATM   11  N   UNL     1       8.172  40.950  29.273  1.00  0.00    -0.340 N 
HETATM   12  N   UNL     1       4.619  39.831  23.780  1.00  0.00    -0.340 N 
HETATM   13  C   UNL     1       5.471  35.612  26.036  1.00  0.00     0.190 C 
HETATM   14  C   UNL     1       8.496  39.825  30.171  1.00  0.00     0.190 C 
HETATM   15  C   UNL     1       6.992  36.498  29.497  1.00  0.00     0.227 C 
HETATM   16  C   UNL     1       6.029  39.791  24.224  1.00  0.00     0.190 C 
HETATM   17  C   UNL     1       7.731  41.671  26.920  1.00  0.00     0.227 C 
HETATM   18  C   UNL     1       3.785  38.951  25.998  1.00  0.00     0.227 C 
HETATM   19  C   UNL     1       6.764  36.462  27.981  1.00  0.00     0.250 C 
HETATM   20  C   UNL     1       7.376  38.812  29.970  1.00  0.00     0.283 C 
HETATM   21  C   UNL     1       8.468  40.781  27.912  1.00  0.00     0.250 C 
HETATM   22  C   UNL     1       4.471  36.662  25.550  1.00  0.00     0.283 C 
HETATM   23  C   UNL     1       3.533  39.345  24.526  1.00  0.00     0.250 C 
HETATM   24  C   UNL     1       6.314  41.015  25.079  1.00  0.00     0.283 C 
HETATM   25  C   UNL     1       4.652  35.099  28.349  1.00  0.00     0.153 C 
HETATM   26  C   UNL     1       7.442  42.100  29.811  1.00  0.00     0.153 C 
HETATM   27  C   UNL     1       4.339  40.417  22.469  1.00  0.00     0.153 C 
ENDROOT
BRANCH  15  28
HETATM   28  C   UNL     1       7.646  35.203  29.960  1.00  0.00     0.016 C 
HETATM   29  C   UNL     1       9.062  35.466  30.470  1.00  0.00     0.012 C 
HETATM   30  C   UNL     1       6.804  34.530  31.043  1.00  0.00     0.012 C 
ENDBRANCH  15  28
BRANCH  14  31
HETATM   31  C   UNL     1       8.633  40.154  31.652  1.00  0.00     0.014 C 
HETATM   32  C   UNL     1       7.378  39.697  32.401  1.00  0.00     0.012 C 
BRANCH  31  33
HETATM   33  C   UNL     1       9.880  39.509  32.281  1.00  0.00     0.002 C 
HETATM   34  C   UNL     1       9.997  39.745  33.781  1.00  0.00     0.005 C 
ENDBRANCH  31  33
ENDBRANCH  14  31
BRANCH  13  35
HETATM   35  C   UNL     1       5.072  34.208  25.583  1.00  0.00     0.014 C 
HETATM   36  C   UNL     1       6.224  33.233  25.843  1.00  0.00     0.012 C 
BRANCH  35  37
HETATM   37  C   UNL     1       3.797  33.704  26.283  1.00  0.00     0.002 C 
HETATM   38  C   UNL     1       2.751  33.158  25.322  1.00  0.00     0.005 C 
ENDBRANCH  35  37
ENDBRANCH  13  35
BRANCH  17  39
HETATM   39  C   UNL     1       8.650  42.753  26.383  1.00  0.00     0.016 C 
HETATM   40  C   UNL     1      10.045  42.622  26.989  1.00  0.00     0.012 C 
HETATM   41  C   UNL     1       8.070  44.138  26.664  1.00  0.00     0.012 C 
ENDBRANCH  17  39
BRANCH  18  42
HETATM   42  C   UNL     1       2.472  38.755  26.757  1.00  0.00     0.016 C 
HETATM   43  C   UNL     1       2.718  38.044  28.088  1.00  0.00     0.012 C 
HETATM   44  C   UNL     1       1.775  40.094  26.987  1.00  0.00     0.012 C 
ENDBRANCH  18  42
BRANCH  16  45
HETATM   45  C   UNL     1       7.058  39.685  23.101  1.00  0.00     0.010 C 
HETATM   46  C   UNL     1       7.952  38.461  23.300  1.00  0.00     0.012 C 
HETATM   47  C   UNL     1       7.903  40.955  23.019  1.00  0.00     0.012 C 
ENDBRANCH  16  45
TORSDOF 8
ENDMDL
MODEL 9
REMARK VINA RESULT:    -5.245     10.430     15.630
REMARK INTER + INTRA:          -7.350
REMARK INTER:                  -8.554
REMARK INTRA:                   1.204
REMARK UNBOUND:                 0.347
REMARK  8 active torsions:
REMARK  status: ('A' for Active; 'I' for Inactive)
REMARK    1  A    between atoms: C_13  and  C_15 
REMARK    2  A    between atoms: C_14  and  C_16 
REMARK    3  A    between atoms: C_15  and  C_22 
REMARK    4  A    between atoms: C_16  and  C_23 
REMARK    5  A    between atoms: C_17  and  C_21 
REMARK    6  A    between atoms: C_18  and  C_24 
REMARK    7  A    between atoms: C_19  and  C_27 
REMARK    8  A    between atoms: C_20  and  C_30 
ROOT
HETATM    1  O   UNL     1      15.495  48.439  27.774  1.00  0.00    -0.304 OA
HETATM    2  O   UNL     1      19.059  49.122  30.981  1.00  0.00    -0.304 OA
HETATM    3  O   UNL     1      17.166  45.596  31.633  1.00  0.00    -0.304 OA
HETATM    4  O   UNL     1      17.935  47.660  28.388  1.00  0.00    -0.270 OA
HETATM    5  O   UNL     1      14.994  49.215  29.890  1.00  0.00    -0.263 OA
HETATM    6  O   UNL     1      15.829  45.330  29.430  1.00  0.00    -0.270 OA
HETATM    7  O   UNL     1      21.330  49.492  31.029  1.00  0.00    -0.263 OA
HETATM    8  O   UNL     1      20.635  49.143  34.047  1.00  0.00    -0.270 OA
HETATM    9  O   UNL     1      17.553  45.965  33.877  1.00  0.00    -0.263 OA
HETATM   10  N   UNL     1      18.885  49.777  28.418  1.00  0.00    -0.340 N 
HETATM   11  N   UNL     1      14.088  46.591  30.305  1.00  0.00    -0.340 N 
HETATM   12  N   UNL     1      20.027  47.061  33.228  1.00  0.00    -0.340 N 
HETATM   13  C   UNL     1      20.187  49.254  28.895  1.00  0.00     0.190 C 
HETATM   14  C   UNL     1      13.865  47.248  29.002  1.00  0.00     0.190 C 
HETATM   15  C   UNL     1      16.526  49.433  27.613  1.00  0.00     0.227 C 
HETATM   16  C   UNL     1      19.340  46.216  32.229  1.00  0.00     0.190 C 
HETATM   17  C   UNL     1      15.739  45.471  31.812  1.00  0.00     0.227 C 
HETATM   18  C   UNL     1      18.883  49.157  32.400  1.00  0.00     0.227 C 
HETATM   19  C   UNL     1      17.837  48.874  28.177  1.00  0.00     0.250 C 
HETATM   20  C   UNL     1      14.834  48.423  28.971  1.00  0.00     0.283 C 
HETATM   21  C   UNL     1      15.214  45.761  30.412  1.00  0.00     0.250 C 
HETATM   22  C   UNL     1      20.279  49.349  30.418  1.00  0.00     0.283 C 
HETATM   23  C   UNL     1      19.940  48.461  33.287  1.00  0.00     0.250 C 
HETATM   24  C   UNL     1      17.932  45.916  32.717  1.00  0.00     0.283 C 
HETATM   25  C   UNL     1      18.769  51.234  28.302  1.00  0.00     0.153 C 
HETATM   26  C   UNL     1      13.226  46.944  31.435  1.00  0.00     0.153 C 
HETATM   27  C   UNL     1      20.859  46.388  34.226  1.00  0.00     0.153 C 
ENDROOT
BRANCH  15  28
HETATM   28  C   UNL     1      16.665  49.692  26.119  1.00  0.00     0.016 C 
HETATM   29  C   UNL     1      17.109  48.424  25.391  1.00  0.00     0.012 C 
HETATM   30  C   UNL     1      15.352  50.212  25.536  1.00  0.00     0.012 C 
ENDBRANCH  15  28
BRANCH  14  31
HETATM   31  C   UNL     1      12.451  47.739  28.721  1.00  0.00     0.014 C 
HETATM   32  C   UNL     1      12.483  48.807  27.625  1.00  0.00     0.012 C 
BRANCH  31  33
HETATM   33  C   UNL     1      11.506  46.597  28.310  1.00  0.00     0.002 C 
HETATM   34  C   UNL     1      10.214  46.555  29.116  1.00  0.00     0.005 C 
ENDBRANCH  31  33
ENDBRANCH  14  31
BRANCH  13  35
HETATM   35  C   UNL     1      21.389  49.911  28.219  1.00  0.00     0.014 C 
HETATM   36  C   UNL     1      21.308  49.708  26.704  1.00  0.00     0.012 C 
BRANCH  35  37
HETATM   37  C   UNL     1      21.492  51.414  28.537  1.00  0.00     0.002 C 
HETATM   38  C   UNL     1      22.906  51.871  28.866  1.00  0.00     0.005 C 
ENDBRANCH  35  37
ENDBRANCH  13  35
BRANCH  17  39
HETATM   39  C   UNL     1      15.385  44.057  32.236  1.00  0.00     0.016 C 
HETATM   40  C   UNL     1      16.504  43.088  31.862  1.00  0.00     0.012 C 
HETATM   41  C   UNL     1      14.064  43.622  31.605  1.00  0.00     0.012 C 
ENDBRANCH  17  39
BRANCH  18  42
HETATM   42  C   UNL     1      18.689  50.619  32.804  1.00  0.00     0.016 C 
HETATM   43  C   UNL     1      17.910  51.378  31.730  1.00  0.00     0.012 C 
HETATM   44  C   UNL     1      17.976  50.717  34.151  1.00  0.00     0.012 C 
ENDBRANCH  18  42
BRANCH  16  45
HETATM   45  C   UNL     1      20.060  44.916  31.877  1.00  0.00     0.010 C 
HETATM   46  C   UNL     1      19.736  44.489  30.445  1.00  0.00     0.012 C 
HETATM   47  C   UNL     1      19.688  43.808  32.861  1.00  0.00     0.012 C 
ENDBRANCH  16  45
TORSDOF 8
ENDMDL
MODEL 10
REMARK VINA RESULT:    -5.233      2.523      7.183
REMARK INTER + INTRA:          -7.333
REMARK INTER:                  -8.463
REMARK INTRA:                   1.130
REMARK UNBOUND:                 0.347
REMARK  8 active torsions:
REMARK  status: ('A' for Active; 'I' for Inactive)
REMARK    1  A    between atoms: C_13  and  C_15 
REMARK    2  A    between atoms: C_14  and  C_16 
REMARK    3  A    between atoms: C_15  and  C_22 
REMARK    4  A    between atoms: C_16  and  C_23 
REMARK    5  A    between atoms: C_17  and  C_21 
REMARK    6  A    between atoms: C_18  and  C_24 
REMARK    7  A    between atoms: C_19  and  C_27 
REMARK    8  A    between atoms: C_20  and  C_30 
ROOT
HETATM    1  O   UNL     1       6.929  38.945  30.899  1.00  0.00    -0.304 OA
HETATM    2  O   UNL     1       7.896  42.904  28.284  1.00  0.00    -0.304 OA
HETATM    3  O   UNL     1       8.677  43.526  32.213  1.00  0.00    -0.304 OA
HETATM    4  O   UNL     1       8.914  40.364  29.905  1.00  0.00    -0.270 OA
HETATM    5  O   UNL     1       5.395  40.668  30.827  1.00  0.00    -0.263 OA
HETATM    6  O   UNL     1       8.645  41.098  33.121  1.00  0.00    -0.270 OA
HETATM    7  O   UNL     1       9.200  43.557  26.503  1.00  0.00    -0.263 OA
HETATM    8  O   UNL     1       7.972  46.254  27.470  1.00  0.00    -0.270 OA
HETATM    9  O   UNL     1       7.976  45.696  31.865  1.00  0.00    -0.263 OA
HETATM   10  N   UNL     1       8.180  40.333  27.704  1.00  0.00    -0.340 N 
HETATM   11  N   UNL     1       6.346  41.211  33.412  1.00  0.00    -0.340 N 
HETATM   12  N   UNL     1       9.173  45.635  29.354  1.00  0.00    -0.340 N 
HETATM   13  C   UNL     1       9.260  41.248  27.266  1.00  0.00     0.190 C 
HETATM   14  C   UNL     1       6.186  39.814  32.966  1.00  0.00     0.190 C 
HETATM   15  C   UNL     1       7.043  38.937  29.462  1.00  0.00     0.227 C 
HETATM   16  C   UNL     1       9.575  44.626  30.356  1.00  0.00     0.190 C 
HETATM   17  C   UNL     1       7.720  43.295  33.270  1.00  0.00     0.227 C 
HETATM   18  C   UNL     1       7.292  44.185  28.490  1.00  0.00     0.227 C 
HETATM   19  C   UNL     1       8.125  39.943  29.051  1.00  0.00     0.250 C 
HETATM   20  C   UNL     1       6.098  39.881  31.448  1.00  0.00     0.283 C 
HETATM   21  C   UNL     1       7.624  41.775  33.289  1.00  0.00     0.250 C 
HETATM   22  C   UNL     1       8.768  42.696  27.258  1.00  0.00     0.283 C 
HETATM   23  C   UNL     1       8.184  45.442  28.377  1.00  0.00     0.250 C 
HETATM   24  C   UNL     1       8.644  44.721  31.555  1.00  0.00     0.283 C 
HETATM   25  C   UNL     1       7.190  39.958  26.689  1.00  0.00     0.153 C 
HETATM   26  C   UNL     1       5.157  41.968  33.815  1.00  0.00     0.153 C 
HETATM   27  C   UNL     1       9.859  46.928  29.382  1.00  0.00     0.153 C 
ENDROOT
BRANCH  15  28
HETATM   28  C   UNL     1       7.455  37.528  29.055  1.00  0.00     0.016 C 
HETATM   29  C   UNL     1       8.214  36.840  30.188  1.00  0.00     0.012 C 
HETATM   30  C   UNL     1       6.233  36.704  28.653  1.00  0.00     0.012 C 
ENDBRANCH  15  28
BRANCH  14  31
HETATM   31  C   UNL     1       4.987  39.056  33.518  1.00  0.00     0.014 C 
HETATM   32  C   UNL     1       4.787  37.759  32.730  1.00  0.00     0.012 C 
BRANCH  31  33
HETATM   33  C   UNL     1       5.134  38.739  35.017  1.00  0.00     0.002 C 
HETATM   34  C   UNL     1       3.923  39.142  35.847  1.00  0.00     0.005 C 
ENDBRANCH  31  33
ENDBRANCH  14  31
BRANCH  13  35
HETATM   35  C   UNL     1       9.878  40.859  25.923  1.00  0.00     0.014 C 
HETATM   36  C   UNL     1      10.087  39.344  25.868  1.00  0.00     0.012 C 
BRANCH  35  37
HETATM   37  C   UNL     1       9.017  41.309  24.729  1.00  0.00     0.002 C 
HETATM   38  C   UNL     1       8.884  40.253  23.642  1.00  0.00     0.005 C 
ENDBRANCH  35  37
ENDBRANCH  13  35
BRANCH  17  39
HETATM   39  C   UNL     1       8.259  43.817  34.589  1.00  0.00     0.016 C 
HETATM   40  C   UNL     1       9.730  43.444  34.753  1.00  0.00     0.012 C 
HETATM   41  C   UNL     1       7.435  43.276  35.757  1.00  0.00     0.012 C 
ENDBRANCH  17  39
BRANCH  18  42
HETATM   42  C   UNL     1       6.077  44.276  27.566  1.00  0.00     0.016 C 
HETATM   43  C   UNL     1       5.399  42.913  27.429  1.00  0.00     0.012 C 
HETATM   44  C   UNL     1       5.085  45.317  28.080  1.00  0.00     0.012 C 
ENDBRANCH  18  42
BRANCH  16  45
HETATM   45  C   UNL     1      11.029  44.713  30.815  1.00  0.00     0.010 C 
HETATM   46  C   UNL     1      11.633  43.317  30.963  1.00  0.00     0.012 C 
HETATM   47  C   UNL     1      11.136  45.483  32.131  1.00  0.00     0.012 C 
ENDBRANCH  16  45
TORSDOF 8
ENDMDL
MODEL 11
REMARK VINA RESULT:    -5.177      1.856      6.424
REMARK INTER + INTRA:          -7.251
REMARK INTER:                  -7.729
REMARK INTRA:                   0.478
REMARK UNBOUND:                 0.347
REMARK  8 active torsions:
REMARK  status: ('A' for Active; 'I' for Inactive)
REMARK    1  A    between atoms: C_13  and  C_15 
REMARK    2  A    between atoms: C_14  and  C_16 
REMARK    3  A    between atoms: C_15  and  C_22 
REMARK    4  A    between atoms: C_16  and  C_23 
REMARK    5  A    between atoms: C_17  and  C_21 
REMARK    6  A    between atoms: C_18  and  C_24 
REMARK    7  A    between atoms: C_19  and  C_27 
REMARK    8  A    between atoms: C_20  and  C_30 
ROOT
HETATM    1  O   UNL     1       7.781  41.917  30.783  1.00  0.00    -0.304 OA
HETATM    2  O   UNL     1       4.104  38.766  30.774  1.00  0.00    -0.304 OA
HETATM    3  O   UNL     1       6.843  37.820  27.937  1.00  0.00    -0.304 OA
HETATM    4  O   UNL     1       7.125  39.465  31.487  1.00  0.00    -0.270 OA
HETATM    5  O   UNL     1       6.094  42.137  29.224  1.00  0.00    -0.263 OA
HETATM    6  O   UNL     1       8.848  39.290  28.666  1.00  0.00    -0.270 OA
HETATM    7  O   UNL     1       3.041  37.305  32.199  1.00  0.00    -0.263 OA
HETATM    8  O   UNL     1       1.658  36.717  29.468  1.00  0.00    -0.270 OA
HETATM    9  O   UNL     1       5.063  37.099  26.659  1.00  0.00    -0.263 OA
HETATM   10  N   UNL     1       5.284  40.047  32.772  1.00  0.00    -0.340 N 
HETATM   11  N   UNL     1       8.005  41.083  27.458  1.00  0.00    -0.340 N 
HETATM   12  N   UNL     1       3.846  36.136  28.969  1.00  0.00    -0.340 N 
HETATM   13  C   UNL     1       4.917  38.629  33.001  1.00  0.00     0.190 C 
HETATM   14  C   UNL     1       8.420  42.030  28.511  1.00  0.00     0.190 C 
HETATM   15  C   UNL     1       6.826  41.811  31.857  1.00  0.00     0.227 C 
HETATM   16  C   UNL     1       5.296  36.421  28.996  1.00  0.00     0.190 C 
HETATM   17  C   UNL     1       7.306  38.742  26.927  1.00  0.00     0.227 C 
HETATM   18  C   UNL     1       3.262  38.500  29.648  1.00  0.00     0.227 C 
HETATM   19  C   UNL     1       6.428  40.339  32.014  1.00  0.00     0.250 C 
HETATM   20  C   UNL     1       7.278  42.042  29.518  1.00  0.00     0.283 C 
HETATM   21  C   UNL     1       8.144  39.716  27.744  1.00  0.00     0.250 C 
HETATM   22  C   UNL     1       3.877  38.172  31.978  1.00  0.00     0.283 C 
HETATM   23  C   UNL     1       2.848  37.037  29.373  1.00  0.00     0.250 C 
HETATM   24  C   UNL     1       5.686  37.132  27.709  1.00  0.00     0.283 C 
HETATM   25  C   UNL     1       4.362  41.054  33.307  1.00  0.00     0.153 C 
HETATM   26  C   UNL     1       7.348  41.600  26.256  1.00  0.00     0.153 C 
HETATM   27  C   UNL     1       3.424  34.821  28.489  1.00  0.00     0.153 C 
ENDROOT
BRANCH  15  28
HETATM   28  C   UNL     1       7.519  42.305  33.120  1.00  0.00     0.016 C 
HETATM   29  C   UNL     1       8.796  41.508  33.381  1.00  0.00     0.012 C 
HETATM   30  C   UNL     1       7.832  43.797  33.015  1.00  0.00     0.012 C 
ENDBRANCH  15  28
BRANCH  14  31
HETATM   31  C   UNL     1       8.726  43.453  28.063  1.00  0.00     0.014 C 
HETATM   32  C   UNL     1       8.765  44.381  29.280  1.00  0.00     0.012 C 
BRANCH  31  33
HETATM   33  C   UNL     1      10.053  43.551  27.290  1.00  0.00     0.002 C 
HETATM   34  C   UNL     1      11.270  43.729  28.188  1.00  0.00     0.005 C 
ENDBRANCH  31  33
ENDBRANCH  14  31
BRANCH  13  35
HETATM   35  C   UNL     1       4.460  38.343  34.431  1.00  0.00     0.014 C 
HETATM   36  C   UNL     1       4.349  36.832  34.647  1.00  0.00     0.012 C 
BRANCH  35  37
HETATM   37  C   UNL     1       5.406  38.951  35.482  1.00  0.00     0.002 C 
HETATM   38  C   UNL     1       4.693  39.800  36.524  1.00  0.00     0.005 C 
ENDBRANCH  35  37
ENDBRANCH  13  35
BRANCH  17  39
HETATM   39  C   UNL     1       8.166  38.016  25.909  1.00  0.00     0.016 C 
HETATM   40  C   UNL     1       9.578  38.595  25.889  1.00  0.00     0.012 C 
HETATM   41  C   UNL     1       7.534  38.094  24.520  1.00  0.00     0.012 C 
ENDBRANCH  17  39
BRANCH  18  42
HETATM   42  C   UNL     1       2.042  39.415  29.760  1.00  0.00     0.016 C 
HETATM   43  C   UNL     1       2.435  40.772  30.341  1.00  0.00     0.012 C 
HETATM   44  C   UNL     1       1.372  39.590  28.398  1.00  0.00     0.012 C 
ENDBRANCH  18  42
BRANCH  16  45
HETATM   45  C   UNL     1       6.191  35.202  29.211  1.00  0.00     0.010 C 
HETATM   46  C   UNL     1       7.153  35.437  30.376  1.00  0.00     0.012 C 
HETATM   47  C   UNL     1       6.967  34.868  27.937  1.00  0.00     0.012 C 
ENDBRANCH  16  45
TORSDOF 8
ENDMDL
MODEL 12
REMARK VINA RESULT:    -5.096     10.261     15.207
REMARK INTER + INTRA:          -7.132
REMARK INTER:                  -7.560
REMARK INTRA:                   0.428
REMARK UNBOUND:                 0.347
REMARK  8 active torsions:
REMARK  status: ('A' for Active; 'I' for Inactive)
REMARK    1  A    between atoms: C_13  and  C_15 
REMARK    2  A    between atoms: C_14  and  C_16 
REMARK    3  A    between atoms: C_15  and  C_22 
REMARK    4  A    between atoms: C_16  and  C_23 
REMARK    5  A    between atoms: C_17  and  C_21 
REMARK    6  A    between atoms: C_18  and  C_24 
REMARK    7  A    between atoms: C_19  and  C_27 
REMARK    8  A    between atoms: C_20  and  C_30 
ROOT
HETATM    1  O   UNL     1      15.127  51.230  32.588  1.00  0.00    -0.304 OA
HETATM    2  O   UNL     1      16.151  47.025  30.415  1.00  0.00    -0.304 OA
HETATM    3  O   UNL     1      19.167  48.170  32.870  1.00  0.00    -0.304 OA
HETATM    4  O   UNL     1      15.276  48.635  33.015  1.00  0.00    -0.270 OA
HETATM    5  O   UNL     1      16.506  51.208  30.738  1.00  0.00    -0.263 OA
HETATM    6  O   UNL     1      18.009  50.030  34.253  1.00  0.00    -0.270 OA
HETATM    7  O   UNL     1      15.285  44.904  30.198  1.00  0.00    -0.263 OA
HETATM    8  O   UNL     1      18.041  44.661  28.764  1.00  0.00    -0.270 OA
HETATM    9  O   UNL     1      20.595  47.214  31.331  1.00  0.00    -0.263 OA
HETATM   10  N   UNL     1      13.851  48.005  31.296  1.00  0.00    -0.340 N 
HETATM   11  N   UNL     1      18.541  51.602  32.631  1.00  0.00    -0.340 N 
HETATM   12  N   UNL     1      18.727  45.195  30.913  1.00  0.00    -0.340 N 
HETATM   13  C   UNL     1      14.105  46.564  31.529  1.00  0.00     0.190 C 
HETATM   14  C   UNL     1      17.237  52.271  32.804  1.00  0.00     0.190 C 
HETATM   15  C   UNL     1      14.140  50.428  31.908  1.00  0.00     0.227 C 
HETATM   16  C   UNL     1      18.621  46.018  32.136  1.00  0.00     0.190 C 
HETATM   17  C   UNL     1      19.816  49.458  32.800  1.00  0.00     0.227 C 
HETATM   18  C   UNL     1      17.292  46.795  29.583  1.00  0.00     0.227 C 
HETATM   19  C   UNL     1      14.479  48.949  32.123  1.00  0.00     0.250 C 
HETATM   20  C   UNL     1      16.273  51.516  31.899  1.00  0.00     0.283 C 
HETATM   21  C   UNL     1      18.729  50.393  33.316  1.00  0.00     0.250 C 
HETATM   22  C   UNL     1      15.211  46.057  30.603  1.00  0.00     0.283 C 
HETATM   23  C   UNL     1      18.036  45.447  29.717  1.00  0.00     0.250 C 
HETATM   24  C   UNL     1      19.600  47.178  32.039  1.00  0.00     0.283 C 
HETATM   25  C   UNL     1      13.002  48.342  30.148  1.00  0.00     0.153 C 
HETATM   26  C   UNL     1      19.496  52.147  31.662  1.00  0.00     0.153 C 
HETATM   27  C   UNL     1      19.615  44.032  30.955  1.00  0.00     0.153 C 
ENDROOT
BRANCH  15  28
HETATM   28  C   UNL     1      12.792  50.754  32.537  1.00  0.00     0.016 C 
HETATM   29  C   UNL     1      12.952  51.072  34.022  1.00  0.00     0.012 C 
HETATM   30  C   UNL     1      12.126  51.921  31.809  1.00  0.00     0.012 C 
ENDBRANCH  15  28
BRANCH  14  31
HETATM   31  C   UNL     1      17.187  53.759  32.481  1.00  0.00     0.014 C 
HETATM   32  C   UNL     1      15.768  54.150  32.064  1.00  0.00     0.012 C 
BRANCH  31  33
HETATM   33  C   UNL     1      17.642  54.629  33.666  1.00  0.00     0.002 C 
HETATM   34  C   UNL     1      17.509  53.938  35.016  1.00  0.00     0.005 C 
ENDBRANCH  31  33
ENDBRANCH  14  31
BRANCH  13  35
HETATM   35  C   UNL     1      12.848  45.702  31.424  1.00  0.00     0.014 C 
HETATM   36  C   UNL     1      13.165  44.268  31.860  1.00  0.00     0.012 C 
BRANCH  35  37
HETATM   37  C   UNL     1      11.684  46.255  32.266  1.00  0.00     0.002 C 
HETATM   38  C   UNL     1      10.802  45.173  32.872  1.00  0.00     0.005 C 
ENDBRANCH  35  37
ENDBRANCH  13  35
BRANCH  17  39
HETATM   39  C   UNL     1      21.027  49.486  33.715  1.00  0.00     0.016 C 
HETATM   40  C   UNL     1      21.037  50.762  34.553  1.00  0.00     0.012 C 
HETATM   41  C   UNL     1      22.316  49.367  32.903  1.00  0.00     0.012 C 
ENDBRANCH  17  39
BRANCH  18  42
HETATM   42  C   UNL     1      16.869  47.058  28.137  1.00  0.00     0.016 C 
HETATM   43  C   UNL     1      15.875  48.217  28.067  1.00  0.00     0.012 C 
HETATM   44  C   UNL     1      18.088  47.346  27.262  1.00  0.00     0.012 C 
ENDBRANCH  18  42
BRANCH  16  45
HETATM   45  C   UNL     1      18.834  45.263  33.446  1.00  0.00     0.010 C 
HETATM   46  C   UNL     1      17.620  45.416  34.362  1.00  0.00     0.012 C 
HETATM   47  C   UNL     1      20.099  45.748  34.152  1.00  0.00     0.012 C 
ENDBRANCH  16  45
TORSDOF 8
ENDMDL
MODEL 13
REMARK VINA RESULT:    -5.022     10.494     15.845
REMARK INTER + INTRA:          -7.023
REMARK INTER:                  -7.422
REMARK INTRA:                   0.398
REMARK UNBOUND:                 0.347
REMARK  8 active torsions:
REMARK  status: ('A' for Active; 'I' for Inactive)
REMARK    1  A    between atoms: C_13  and  C_15 
REMARK    2  A    between atoms: C_14  and  C_16 
REMARK    3  A    between atoms: C_15  and  C_22 
REMARK    4  A    between atoms: C_16  and  C_23 
REMARK    5  A    between atoms: C_17  and  C_21 
REMARK    6  A    between atoms: C_18  and  C_24 
REMARK    7  A    between atoms: C_19  and  C_27 
REMARK    8  A    between atoms: C_20  and  C_30 
ROOT
HETATM    1  O   UNL     1       2.906  38.736  13.606  1.00  0.00    -0.304 OA
HETATM    2  O   UNL     1       4.243  42.023  16.901  1.00  0.00    -0.304 OA
HETATM    3  O   UNL     1       3.322  38.488  18.659  1.00  0.00    -0.304 OA
HETATM    4  O   UNL     1       4.896  39.422  15.190  1.00  0.00    -0.270 OA
HETATM    5  O   UNL     1       1.293  39.869  14.808  1.00  0.00    -0.263 OA
HETATM    6  O   UNL     1       3.285  36.903  16.609  1.00  0.00    -0.270 OA
HETATM    7  O   UNL     1       6.032  43.382  17.400  1.00  0.00    -0.263 OA
HETATM    8  O   UNL     1       4.151  43.811  19.848  1.00  0.00    -0.270 OA
HETATM    9  O   UNL     1       2.511  39.736  20.422  1.00  0.00    -0.263 OA
HETATM   10  N   UNL     1       5.096  41.604  14.427  1.00  0.00    -0.340 N 
HETATM   11  N   UNL     1       1.065  37.442  16.201  1.00  0.00    -0.340 N 
HETATM   12  N   UNL     1       4.592  41.544  20.045  1.00  0.00    -0.340 N 
HETATM   13  C   UNL     1       6.119  41.933  15.448  1.00  0.00     0.190 C 
HETATM   14  C   UNL     1       1.296  37.434  14.744  1.00  0.00     0.190 C 
HETATM   15  C   UNL     1       3.574  39.968  13.270  1.00  0.00     0.227 C 
HETATM   16  C   UNL     1       4.709  40.194  19.454  1.00  0.00     0.190 C 
HETATM   17  C   UNL     1       2.071  37.793  18.463  1.00  0.00     0.227 C 
HETATM   18  C   UNL     1       3.429  42.458  17.995  1.00  0.00     0.227 C 
HETATM   19  C   UNL     1       4.574  40.302  14.383  1.00  0.00     0.250 C 
HETATM   20  C   UNL     1       1.801  38.830  14.406  1.00  0.00     0.283 C 
HETATM   21  C   UNL     1       2.194  37.312  17.023  1.00  0.00     0.250 C 
HETATM   22  C   UNL     1       5.467  42.575  16.673  1.00  0.00     0.283 C 
HETATM   23  C   UNL     1       4.104  42.673  19.368  1.00  0.00     0.250 C 
HETATM   24  C   UNL     1       3.379  39.472  19.603  1.00  0.00     0.283 C 
HETATM   25  C   UNL     1       4.648  42.708  13.571  1.00  0.00     0.153 C 
HETATM   26  C   UNL     1      -0.281  37.725  16.705  1.00  0.00     0.153 C 
HETATM   27  C   UNL     1       5.019  41.713  21.434  1.00  0.00     0.153 C 
ENDROOT
BRANCH  15  28
HETATM   28  C   UNL     1       4.309  39.732  11.958  1.00  0.00     0.016 C 
HETATM   29  C   UNL     1       4.419  38.238  11.662  1.00  0.00     0.012 C 
HETATM   30  C   UNL     1       3.608  40.455  10.809  1.00  0.00     0.012 C 
ENDBRANCH  15  28
BRANCH  14  31
HETATM   31  C   UNL     1       0.097  37.094  13.867  1.00  0.00     0.014 C 
HETATM   32  C   UNL     1       0.263  37.745  12.492  1.00  0.00     0.012 C 
BRANCH  31  33
HETATM   33  C   UNL     1      -0.099  35.577  13.707  1.00  0.00     0.002 C 
HETATM   34  C   UNL     1       1.036  34.892  12.957  1.00  0.00     0.005 C 
ENDBRANCH  31  33
ENDBRANCH  14  31
BRANCH  13  35
HETATM   35  C   UNL     1       7.262  42.791  14.907  1.00  0.00     0.014 C 
HETATM   36  C   UNL     1       8.561  42.446  15.641  1.00  0.00     0.012 C 
BRANCH  35  37
HETATM   37  C   UNL     1       7.459  42.618  13.391  1.00  0.00     0.002 C 
HETATM   38  C   UNL     1       8.387  43.656  12.775  1.00  0.00     0.005 C 
ENDBRANCH  35  37
ENDBRANCH  13  35
BRANCH  17  39
HETATM   39  C   UNL     1       1.969  36.617  19.416  1.00  0.00     0.016 C 
HETATM   40  C   UNL     1       1.897  35.303  18.641  1.00  0.00     0.012 C 
HETATM   41  C   UNL     1       0.753  36.769  20.328  1.00  0.00     0.012 C 
ENDBRANCH  17  39
BRANCH  18  42
HETATM   42  C   UNL     1       2.675  43.708  17.541  1.00  0.00     0.016 C 
HETATM   43  C   UNL     1       2.293  43.601  16.064  1.00  0.00     0.012 C 
HETATM   44  C   UNL     1       1.432  43.930  18.400  1.00  0.00     0.012 C 
ENDBRANCH  18  42
BRANCH  16  45
HETATM   45  C   UNL     1       5.838  39.335  20.020  1.00  0.00     0.010 C 
HETATM   46  C   UNL     1       6.644  38.692  18.892  1.00  0.00     0.012 C 
HETATM   47  C   UNL     1       5.284  38.264  20.959  1.00  0.00     0.012 C 
ENDBRANCH  16  45
TORSDOF 8
ENDMDL
MODEL 14
REMARK VINA RESULT:    -4.848     10.893     15.588
REMARK INTER + INTRA:          -6.768
REMARK INTER:                  -7.052
REMARK INTRA:                   0.284
REMARK UNBOUND:                 0.347
REMARK  8 active torsions:
REMARK  status: ('A' for Active; 'I' for Inactive)
REMARK    1  A    between atoms: C_13  and  C_15 
REMARK    2  A    between atoms: C_14  and  C_16 
REMARK    3  A    between atoms: C_15  and  C_22 
REMARK    4  A    between atoms: C_16  and  C_23 
REMARK    5  A    between atoms: C_17  and  C_21 
REMARK    6  A    between atoms: C_18  and  C_24 
REMARK    7  A    between atoms: C_19  and  C_27 
REMARK    8  A    between atoms: C_20  and  C_30 
ROOT
HETATM    1  O   UNL     1       4.620  41.065  13.013  1.00  0.00    -0.304 OA
HETATM    2  O   UNL     1       3.481  39.706  17.519  1.00  0.00    -0.304 OA
HETATM    3  O   UNL     1       4.574  43.609  17.405  1.00  0.00    -0.304 OA
HETATM    4  O   UNL     1       2.741  41.267  14.848  1.00  0.00    -0.270 OA
HETATM    5  O   UNL     1       6.300  40.534  14.503  1.00  0.00    -0.263 OA
HETATM    6  O   UNL     1       4.483  44.081  14.858  1.00  0.00    -0.270 OA
HETATM    7  O   UNL     1       1.714  38.807  18.688  1.00  0.00    -0.263 OA
HETATM    8  O   UNL     1       3.762  39.457  20.946  1.00  0.00    -0.270 OA
HETATM    9  O   UNL     1       5.493  43.267  19.493  1.00  0.00    -0.263 OA
HETATM   10  N   UNL     1       2.457  38.989  15.182  1.00  0.00    -0.340 N 
HETATM   11  N   UNL     1       6.661  43.316  14.614  1.00  0.00    -0.340 N 
HETATM   12  N   UNL     1       3.366  41.582  20.108  1.00  0.00    -0.340 N 
HETATM   13  C   UNL     1       1.507  39.208  16.298  1.00  0.00     0.190 C 
HETATM   14  C   UNL     1       6.325  42.669  13.331  1.00  0.00     0.190 C 
HETATM   15  C   UNL     1       3.913  39.847  13.318  1.00  0.00     0.227 C 
HETATM   16  C   UNL     1       3.226  42.517  18.972  1.00  0.00     0.190 C 
HETATM   17  C   UNL     1       5.816  44.081  16.840  1.00  0.00     0.227 C 
HETATM   18  C   UNL     1       4.366  39.783  18.641  1.00  0.00     0.227 C 
HETATM   19  C   UNL     1       2.991  40.103  14.516  1.00  0.00     0.250 C 
HETATM   20  C   UNL     1       5.778  41.297  13.701  1.00  0.00     0.283 C 
HETATM   21  C   UNL     1       5.596  43.857  15.350  1.00  0.00     0.250 C 
HETATM   22  C   UNL     1       2.236  39.167  17.640  1.00  0.00     0.283 C 
HETATM   23  C   UNL     1       3.790  40.247  19.997  1.00  0.00     0.250 C 
HETATM   24  C   UNL     1       4.572  43.168  18.696  1.00  0.00     0.283 C 
HETATM   25  C   UNL     1       2.827  37.598  14.902  1.00  0.00     0.153 C 
HETATM   26  C   UNL     1       8.036  43.234  15.113  1.00  0.00     0.153 C 
HETATM   27  C   UNL     1       3.039  42.084  21.443  1.00  0.00     0.153 C 
ENDROOT
BRANCH  15  28
HETATM   28  C   UNL     1       3.088  39.491  12.088  1.00  0.00     0.016 C 
HETATM   29  C   UNL     1       2.888  40.717  11.199  1.00  0.00     0.012 C 
HETATM   30  C   UNL     1       3.751  38.362  11.302  1.00  0.00     0.012 C 
ENDBRANCH  15  28
BRANCH  14  31
HETATM   31  C   UNL     1       7.461  42.517  12.328  1.00  0.00     0.014 C 
HETATM   32  C   UNL     1       7.020  41.604  11.182  1.00  0.00     0.012 C 
BRANCH  31  33
HETATM   33  C   UNL     1       7.931  43.871  11.767  1.00  0.00     0.002 C 
HETATM   34  C   UNL     1       8.056  43.891  10.250  1.00  0.00     0.005 C 
ENDBRANCH  31  33
ENDBRANCH  14  31
BRANCH  13  35
HETATM   35  C   UNL     1       0.316  38.250  16.278  1.00  0.00     0.014 C 
HETATM   36  C   UNL     1      -0.819  38.815  17.137  1.00  0.00     0.012 C 
BRANCH  35  37
HETATM   37  C   UNL     1      -0.196  37.980  14.852  1.00  0.00     0.002 C 
HETATM   38  C   UNL     1      -0.993  39.134  14.262  1.00  0.00     0.005 C 
ENDBRANCH  35  37
ENDBRANCH  13  35
BRANCH  17  39
HETATM   39  C   UNL     1       6.003  45.557  17.140  1.00  0.00     0.016 C 
HETATM   40  C   UNL     1       5.934  46.378  15.856  1.00  0.00     0.012 C 
HETATM   41  C   UNL     1       7.329  45.794  17.859  1.00  0.00     0.012 C 
ENDBRANCH  17  39
BRANCH  18  42
HETATM   42  C   UNL     1       5.069  38.430  18.766  1.00  0.00     0.016 C 
HETATM   43  C   UNL     1       5.231  37.777  17.394  1.00  0.00     0.012 C 
HETATM   44  C   UNL     1       6.427  38.589  19.447  1.00  0.00     0.012 C 
ENDBRANCH  18  42
BRANCH  16  45
HETATM   45  C   UNL     1       2.152  43.589  19.146  1.00  0.00     0.010 C 
HETATM   46  C   UNL     1       1.153  43.546  17.991  1.00  0.00     0.012 C 
HETATM   47  C   UNL     1       2.785  44.976  19.253  1.00  0.00     0.012 C 
ENDBRANCH  16  45
TORSDOF 8
ENDMDL
MODEL 15
REMARK VINA RESULT:    -4.770     10.935     15.072
REMARK INTER + INTRA:          -6.653
REMARK INTER:                  -7.005
REMARK INTRA:                   0.352
REMARK UNBOUND:                 0.347
REMARK  8 active torsions:
REMARK  status: ('A' for Active; 'I' for Inactive)
REMARK    1  A    between atoms: C_13  and  C_15 
REMARK    2  A    between atoms: C_14  and  C_16 
REMARK    3  A    between atoms: C_15  and  C_22 
REMARK    4  A    between atoms: C_16  and  C_23 
REMARK    5  A    between atoms: C_17  and  C_21 
REMARK    6  A    between atoms: C_18  and  C_24 
REMARK    7  A    between atoms: C_19  and  C_27 
REMARK    8  A    between atoms: C_20  and  C_30 
ROOT
HETATM    1  O   UNL     1      19.439  50.955  32.620  1.00  0.00    -0.304 OA
HETATM    2  O   UNL     1      16.902  47.406  30.518  1.00  0.00    -0.304 OA
HETATM    3  O   UNL     1      14.446  50.103  32.289  1.00  0.00    -0.304 OA
HETATM    4  O   UNL     1      17.935  50.415  30.525  1.00  0.00    -0.270 OA
HETATM    5  O   UNL     1      18.625  49.219  33.905  1.00  0.00    -0.263 OA
HETATM    6  O   UNL     1      16.081  52.068  32.713  1.00  0.00    -0.270 OA
HETATM    7  O   UNL     1      16.617  46.440  28.449  1.00  0.00    -0.263 OA
HETATM    8  O   UNL     1      14.449  45.008  30.171  1.00  0.00    -0.270 OA
HETATM    9  O   UNL     1      13.064  48.319  32.769  1.00  0.00    -0.263 OA
HETATM   10  N   UNL     1      19.160  48.587  29.790  1.00  0.00    -0.340 N 
HETATM   11  N   UNL     1      16.733  51.123  34.729  1.00  0.00    -0.340 N 
HETATM   12  N   UNL     1      13.716  47.204  30.304  1.00  0.00    -0.340 N 
HETATM   13  C   UNL     1      18.181  48.283  28.720  1.00  0.00     0.190 C 
HETATM   14  C   UNL     1      18.135  51.528  34.505  1.00  0.00     0.190 C 
HETATM   15  C   UNL     1      20.005  50.034  31.667  1.00  0.00     0.227 C 
HETATM   16  C   UNL     1      13.977  48.642  30.525  1.00  0.00     0.190 C 
HETATM   17  C   UNL     1      14.554  50.502  33.672  1.00  0.00     0.227 C 
HETATM   18  C   UNL     1      15.985  46.545  31.201  1.00  0.00     0.227 C 
HETATM   19  C   UNL     1      18.939  49.698  30.618  1.00  0.00     0.250 C 
HETATM   20  C   UNL     1      18.749  50.413  33.669  1.00  0.00     0.283 C 
HETATM   21  C   UNL     1      15.837  51.323  33.669  1.00  0.00     0.250 C 
HETATM   22  C   UNL     1      17.175  47.234  29.195  1.00  0.00     0.283 C 
HETATM   23  C   UNL     1      14.659  46.182  30.497  1.00  0.00     0.250 C 
HETATM   24  C   UNL     1      13.748  48.968  31.992  1.00  0.00     0.283 C 
HETATM   25  C   UNL     1      20.269  47.641  29.949  1.00  0.00     0.153 C 
HETATM   26  C   UNL     1      16.389  50.414  35.964  1.00  0.00     0.153 C 
HETATM   27  C   UNL     1      12.378  46.821  29.852  1.00  0.00     0.153 C 
ENDROOT
BRANCH  15  28
HETATM   28  C   UNL     1      21.183  50.740  31.010  1.00  0.00     0.016 C 
HETATM   29  C   UNL     1      20.923  52.242  30.909  1.00  0.00     0.012 C 
HETATM   30  C   UNL     1      22.473  50.472  31.784  1.00  0.00     0.012 C 
ENDBRANCH  15  28
BRANCH  14  31
HETATM   31  C   UNL     1      18.982  51.765  35.748  1.00  0.00     0.014 C 
HETATM   32  C   UNL     1      20.464  51.780  35.368  1.00  0.00     0.012 C 
BRANCH  31  33
HETATM   33  C   UNL     1      18.614  53.076  36.465  1.00  0.00     0.002 C 
HETATM   34  C   UNL     1      19.659  53.534  37.473  1.00  0.00     0.005 C 
ENDBRANCH  31  33
ENDBRANCH  14  31
BRANCH  13  35
HETATM   35  C   UNL     1      18.832  47.876  27.399  1.00  0.00     0.014 C 
HETATM   36  C   UNL     1      17.813  47.988  26.262  1.00  0.00     0.012 C 
BRANCH  35  37
HETATM   37  C   UNL     1      20.073  48.726  27.070  1.00  0.00     0.002 C 
HETATM   38  C   UNL     1      20.695  48.398  25.720  1.00  0.00     0.005 C 
ENDBRANCH  35  37
ENDBRANCH  13  35
BRANCH  17  39
HETATM   39  C   UNL     1      13.367  51.363  34.065  1.00  0.00     0.016 C 
HETATM   40  C   UNL     1      13.830  52.750  34.501  1.00  0.00     0.012 C 
HETATM   41  C   UNL     1      12.562  50.692  35.176  1.00  0.00     0.012 C 
ENDBRANCH  17  39
BRANCH  18  42
HETATM   42  C   UNL     1      16.756  45.293  31.621  1.00  0.00     0.016 C 
HETATM   43  C   UNL     1      18.156  45.660  32.113  1.00  0.00     0.012 C 
HETATM   44  C   UNL     1      15.994  44.527  32.701  1.00  0.00     0.012 C 
ENDBRANCH  18  42
BRANCH  16  45
HETATM   45  C   UNL     1      13.165  49.590  29.645  1.00  0.00     0.010 C 
HETATM   46  C   UNL     1      14.087  50.507  28.843  1.00  0.00     0.012 C 
HETATM   47  C   UNL     1      12.194  50.414  30.489  1.00  0.00     0.012 C 
ENDBRANCH  16  45
TORSDOF 8
ENDMDL
MODEL 16
REMARK VINA RESULT:    -4.733      9.324     14.331
REMARK INTER + INTRA:          -6.600
REMARK INTER:                  -8.482
REMARK INTRA:                   1.882
REMARK UNBOUND:                 0.347
REMARK  8 active torsions:
REMARK  status: ('A' for Active; 'I' for Inactive)
REMARK    1  A    between atoms: C_13  and  C_15 
REMARK    2  A    between atoms: C_14  and  C_16 
REMARK    3  A    between atoms: C_15  and  C_22 
REMARK    4  A    between atoms: C_16  and  C_23 
REMARK    5  A    between atoms: C_17  and  C_21 
REMARK    6  A    between atoms: C_18  and  C_24 
REMARK    7  A    between atoms: C_19  and  C_27 
REMARK    8  A    between atoms: C_20  and  C_30 
ROOT
HETATM    1  O   UNL     1      15.950  44.691  31.712  1.00  0.00    -0.304 OA
HETATM    2  O   UNL     1      14.013  48.431  29.322  1.00  0.00    -0.304 OA
HETATM    3  O   UNL     1      18.046  48.366  28.908  1.00  0.00    -0.304 OA
HETATM    4  O   UNL     1      15.350  45.544  29.293  1.00  0.00    -0.270 OA
HETATM    5  O   UNL     1      15.980  46.794  32.665  1.00  0.00    -0.263 OA
HETATM    6  O   UNL     1      18.599  45.979  29.752  1.00  0.00    -0.270 OA
HETATM    7  O   UNL     1      12.468  48.847  27.667  1.00  0.00    -0.263 OA
HETATM    8  O   UNL     1      13.686  51.669  28.183  1.00  0.00    -0.270 OA
HETATM    9  O   UNL     1      17.942  50.671  28.905  1.00  0.00    -0.263 OA
HETATM   10  N   UNL     1      13.109  45.971  29.715  1.00  0.00    -0.340 N 
HETATM   11  N   UNL     1      18.692  46.747  31.940  1.00  0.00    -0.340 N 
HETATM   12  N   UNL     1      15.567  50.520  27.463  1.00  0.00    -0.340 N 
HETATM   13  C   UNL     1      12.903  46.559  28.371  1.00  0.00     0.190 C 
HETATM   14  C   UNL     1      18.042  45.518  32.435  1.00  0.00     0.190 C 
HETATM   15  C   UNL     1      14.542  44.803  31.422  1.00  0.00     0.227 C 
HETATM   16  C   UNL     1      16.451  49.337  27.501  1.00  0.00     0.190 C 
HETATM   17  C   UNL     1      18.968  48.323  30.018  1.00  0.00     0.227 C 
HETATM   18  C   UNL     1      14.341  49.804  29.554  1.00  0.00     0.227 C 
HETATM   19  C   UNL     1      14.377  45.474  30.053  1.00  0.00     0.250 C 
HETATM   20  C   UNL     1      16.546  45.771  32.303  1.00  0.00     0.283 C 
HETATM   21  C   UNL     1      18.766  46.910  30.548  1.00  0.00     0.250 C 
HETATM   22  C   UNL     1      13.053  48.080  28.422  1.00  0.00     0.283 C 
HETATM   23  C   UNL     1      14.486  50.739  28.332  1.00  0.00     0.250 C 
HETATM   24  C   UNL     1      17.561  49.579  28.511  1.00  0.00     0.283 C 
HETATM   25  C   UNL     1      11.965  46.021  30.632  1.00  0.00     0.153 C 
HETATM   26  C   UNL     1      19.085  47.779  32.902  1.00  0.00     0.153 C 
HETATM   27  C   UNL     1      15.839  51.535  26.444  1.00  0.00     0.153 C 
ENDROOT
BRANCH  15  28
HETATM   28  C   UNL     1      13.982  43.387  31.383  1.00  0.00     0.016 C 
HETATM   29  C   UNL     1      14.930  42.413  32.079  1.00  0.00     0.012 C 
HETATM   30  C   UNL     1      12.597  43.337  32.026  1.00  0.00     0.012 C 
ENDBRANCH  15  28
BRANCH  14  31
HETATM   31  C   UNL     1      18.370  45.102  33.862  1.00  0.00     0.014 C 
HETATM   32  C   UNL     1      17.394  44.018  34.322  1.00  0.00     0.012 C 
BRANCH  31  33
HETATM   33  C   UNL     1      19.817  44.597  34.006  1.00  0.00     0.002 C 
HETATM   34  C   UNL     1      20.520  45.110  35.256  1.00  0.00     0.005 C 
ENDBRANCH  31  33
ENDBRANCH  14  31
BRANCH  13  35
HETATM   35  C   UNL     1      11.582  46.148  27.724  1.00  0.00     0.014 C 
HETATM   36  C   UNL     1      11.543  44.628  27.544  1.00  0.00     0.012 C 
BRANCH  35  37
HETATM   37  C   UNL     1      10.360  46.606  28.541  1.00  0.00     0.002 C 
HETATM   38  C   UNL     1       9.045  46.016  28.053  1.00  0.00     0.005 C 
ENDBRANCH  35  37
ENDBRANCH  13  35
BRANCH  17  39
HETATM   39  C   UNL     1      20.391  48.515  29.527  1.00  0.00     0.016 C 
HETATM   40  C   UNL     1      20.939  49.865  29.983  1.00  0.00     0.012 C 
HETATM   41  C   UNL     1      20.454  48.396  28.006  1.00  0.00     0.012 C 
ENDBRANCH  17  39
BRANCH  18  42
HETATM   42  C   UNL     1      13.331  50.355  30.562  1.00  0.00     0.016 C 
HETATM   43  C   UNL     1      12.950  49.284  31.584  1.00  0.00     0.012 C 
HETATM   44  C   UNL     1      13.890  51.590  31.265  1.00  0.00     0.012 C 
ENDBRANCH  18  42
BRANCH  16  45
HETATM   45  C   UNL     1      17.049  48.932  26.154  1.00  0.00     0.010 C 
HETATM   46  C   UNL     1      18.072  49.965  25.685  1.00  0.00     0.012 C 
HETATM   47  C   UNL     1      15.951  48.753  25.107  1.00  0.00     0.012 C 
ENDBRANCH  16  45
TORSDOF 8
ENDMDL
MODEL 17
REMARK VINA RESULT:    -4.681     10.620     16.266
REMARK INTER + INTRA:          -6.523
REMARK INTER:                  -7.278
REMARK INTRA:                   0.755
REMARK UNBOUND:                 0.347
REMARK  8 active torsions:
REMARK  status: ('A' for Active; 'I' for Inactive)
REMARK    1  A    between atoms: C_13  and  C_15 
REMARK    2  A    between atoms: C_14  and  C_16 
REMARK    3  A    between atoms: C_15  and  C_22 
REMARK    4  A    between atoms: C_16  and  C_23 
REMARK    5  A    between atoms: C_17  and  C_21 
REMARK    6  A    between atoms: C_18  and  C_24 
REMARK    7  A    between atoms: C_19  and  C_27 
REMARK    8  A    between atoms: C_20  and  C_30 
ROOT
HETATM    1  O   UNL     1      17.157  45.517  32.949  1.00  0.00    -0.304 OA
HETATM    2  O   UNL     1      19.202  49.279  30.687  1.00  0.00    -0.304 OA
HETATM    3  O   UNL     1      15.163  49.631  30.743  1.00  0.00    -0.304 OA
HETATM    4  O   UNL     1      17.748  48.067  33.244  1.00  0.00    -0.270 OA
HETATM    5  O   UNL     1      17.230  45.560  30.642  1.00  0.00    -0.263 OA
HETATM    6  O   UNL     1      14.528  47.845  32.510  1.00  0.00    -0.270 OA
HETATM    7  O   UNL     1      20.733  50.949  31.091  1.00  0.00    -0.263 OA
HETATM    8  O   UNL     1      19.642  51.696  28.268  1.00  0.00    -0.270 OA
HETATM    9  O   UNL     1      15.362  50.623  28.669  1.00  0.00    -0.263 OA
HETATM   10  N   UNL     1      20.012  47.865  32.778  1.00  0.00    -0.340 N 
HETATM   11  N   UNL     1      14.506  46.199  30.874  1.00  0.00    -0.340 N 
HETATM   12  N   UNL     1      17.703  51.857  29.530  1.00  0.00    -0.340 N 
HETATM   13  C   UNL     1      20.217  49.332  32.833  1.00  0.00     0.190 C 
HETATM   14  C   UNL     1      15.113  45.223  31.800  1.00  0.00     0.190 C 
HETATM   15  C   UNL     1      18.562  45.825  33.036  1.00  0.00     0.227 C 
HETATM   16  C   UNL     1      16.772  51.316  30.542  1.00  0.00     0.190 C 
HETATM   17  C   UNL     1      14.260  48.611  30.264  1.00  0.00     0.227 C 
HETATM   18  C   UNL     1      18.935  49.659  29.334  1.00  0.00     0.227 C 
HETATM   19  C   UNL     1      18.731  47.349  33.025  1.00  0.00     0.250 C 
HETATM   20  C   UNL     1      16.616  45.448  31.695  1.00  0.00     0.283 C 
HETATM   21  C   UNL     1      14.414  47.525  31.321  1.00  0.00     0.250 C 
HETATM   22  C   UNL     1      20.131  49.939  31.433  1.00  0.00     0.283 C 
HETATM   23  C   UNL     1      18.807  51.164  29.008  1.00  0.00     0.250 C 
HETATM   24  C   UNL     1      15.691  50.509  29.840  1.00  0.00     0.283 C 
HETATM   25  C   UNL     1      21.173  47.057  32.391  1.00  0.00     0.153 C 
HETATM   26  C   UNL     1      14.172  45.773  29.513  1.00  0.00     0.153 C 
HETATM   27  C   UNL     1      17.455  53.213  29.038  1.00  0.00     0.153 C 
ENDROOT
BRANCH  15  28
HETATM   28  C   UNL     1      19.063  45.252  34.355  1.00  0.00     0.016 C 
HETATM   29  C   UNL     1      17.899  45.013  35.316  1.00  0.00     0.012 C 
HETATM   30  C   UNL     1      19.838  43.956  34.120  1.00  0.00     0.012 C 
ENDBRANCH  15  28
BRANCH  14  31
HETATM   31  C   UNL     1      14.793  43.756  31.548  1.00  0.00     0.014 C 
HETATM   32  C   UNL     1      15.700  42.874  32.410  1.00  0.00     0.012 C 
BRANCH  31  33
HETATM   33  C   UNL     1      13.318  43.422  31.831  1.00  0.00     0.002 C 
HETATM   34  C   UNL     1      13.097  41.993  32.307  1.00  0.00     0.005 C 
ENDBRANCH  31  33
ENDBRANCH  14  31
BRANCH  13  35
HETATM   35  C   UNL     1      21.509  49.738  33.541  1.00  0.00     0.014 C 
HETATM   36  C   UNL     1      22.658  49.796  32.531  1.00  0.00     0.012 C 
BRANCH  35  37
HETATM   37  C   UNL     1      21.383  51.091  34.263  1.00  0.00     0.002 C 
HETATM   38  C   UNL     1      22.720  51.773  34.516  1.00  0.00     0.005 C 
ENDBRANCH  35  37
ENDBRANCH  13  35
BRANCH  17  39
HETATM   39  C   UNL     1      12.838  49.139  30.238  1.00  0.00     0.016 C 
HETATM   40  C   UNL     1      11.951  48.338  31.188  1.00  0.00     0.012 C 
HETATM   41  C   UNL     1      12.276  49.100  28.818  1.00  0.00     0.012 C 
ENDBRANCH  17  39
BRANCH  18  42
HETATM   42  C   UNL     1      19.984  48.983  28.450  1.00  0.00     0.016 C 
HETATM   43  C   UNL     1      20.390  47.629  29.032  1.00  0.00     0.012 C 
HETATM   44  C   UNL     1      19.463  48.818  27.024  1.00  0.00     0.012 C 
ENDBRANCH  18  42
BRANCH  16  45
HETATM   45  C   UNL     1      16.134  52.359  31.458  1.00  0.00     0.010 C 
HETATM   46  C   UNL     1      16.396  52.022  32.925  1.00  0.00     0.012 C 
HETATM   47  C   UNL     1      14.633  52.465  31.194  1.00  0.00     0.012 C 
ENDBRANCH  16  45
TORSDOF 8
ENDMDL
MODEL 18
REMARK VINA RESULT:    -4.622     10.469     15.090
REMARK INTER + INTRA:          -6.436
REMARK INTER:                  -7.909
REMARK INTRA:                   1.473
REMARK UNBOUND:                 0.347
REMARK  8 active torsions:
REMARK  status: ('A' for Active; 'I' for Inactive)
REMARK    1  A    between atoms: C_13  and  C_15 
REMARK    2  A    between atoms: C_14  and  C_16 
REMARK    3  A    between atoms: C_15  and  C_22 
REMARK    4  A    between atoms: C_16  and  C_23 
REMARK    5  A    between atoms: C_17  and  C_21 
REMARK    6  A    between atoms: C_18  and  C_24 
REMARK    7  A    between atoms: C_19  and  C_27 
REMARK    8  A    between atoms: C_20  and  C_30 
ROOT
HETATM    1  O   UNL     1      17.895  50.222  33.944  1.00  0.00    -0.304 OA
HETATM    2  O   UNL     1      14.168  49.438  30.952  1.00  0.00    -0.304 OA
HETATM    3  O   UNL     1      16.781  46.338  30.872  1.00  0.00    -0.304 OA
HETATM    4  O   UNL     1      15.672  48.831  33.689  1.00  0.00    -0.270 OA
HETATM    5  O   UNL     1      18.142  50.621  31.684  1.00  0.00    -0.263 OA
HETATM    6  O   UNL     1      18.213  46.834  32.974  1.00  0.00    -0.270 OA
HETATM    7  O   UNL     1      11.872  49.299  31.007  1.00  0.00    -0.263 OA
HETATM    8  O   UNL     1      12.531  48.474  28.075  1.00  0.00    -0.270 OA
HETATM    9  O   UNL     1      16.250  46.132  28.636  1.00  0.00    -0.263 OA
HETATM   10  N   UNL     1      14.273  50.643  33.311  1.00  0.00    -0.340 N 
HETATM   11  N   UNL     1      19.598  48.221  31.732  1.00  0.00    -0.340 N 
HETATM   12  N   UNL     1      13.615  46.790  29.243  1.00  0.00    -0.340 N 
HETATM   13  C   UNL     1      13.106  49.767  33.050  1.00  0.00     0.190 C 
HETATM   14  C   UNL     1      19.710  49.171  32.856  1.00  0.00     0.190 C 
HETATM   15  C   UNL     1      16.673  50.986  33.983  1.00  0.00     0.227 C 
HETATM   16  C   UNL     1      14.505  46.342  30.335  1.00  0.00     0.190 C 
HETATM   17  C   UNL     1      18.193  46.483  30.611  1.00  0.00     0.227 C 
HETATM   18  C   UNL     1      14.287  49.208  29.545  1.00  0.00     0.227 C 
HETATM   19  C   UNL     1      15.503  50.055  33.645  1.00  0.00     0.250 C 
HETATM   20  C   UNL     1      18.505  50.093  32.727  1.00  0.00     0.283 C 
HETATM   21  C   UNL     1      18.684  47.168  31.880  1.00  0.00     0.250 C 
HETATM   22  C   UNL     1      12.947  49.515  31.551  1.00  0.00     0.283 C 
HETATM   23  C   UNL     1      13.386  48.133  28.900  1.00  0.00     0.250 C 
HETATM   24  C   UNL     1      15.928  46.252  29.809  1.00  0.00     0.283 C 
HETATM   25  C   UNL     1      14.063  52.082  33.124  1.00  0.00     0.153 C 
HETATM   26  C   UNL     1      20.323  48.502  30.491  1.00  0.00     0.153 C 
HETATM   27  C   UNL     1      12.924  45.761  28.467  1.00  0.00     0.153 C 
ENDROOT
BRANCH  15  28
HETATM   28  C   UNL     1      16.526  51.520  35.401  1.00  0.00     0.016 C 
HETATM   29  C   UNL     1      16.398  50.370  36.399  1.00  0.00     0.012 C 
HETATM   30  C   UNL     1      17.709  52.415  35.766  1.00  0.00     0.012 C 
ENDBRANCH  15  28
BRANCH  14  31
HETATM   31  C   UNL     1      20.986  49.999  32.923  1.00  0.00     0.014 C 
HETATM   32  C   UNL     1      20.889  51.007  34.071  1.00  0.00     0.012 C 
BRANCH  31  33
HETATM   33  C   UNL     1      22.241  49.126  33.098  1.00  0.00     0.002 C 
HETATM   34  C   UNL     1      23.533  49.831  32.707  1.00  0.00     0.005 C 
ENDBRANCH  31  33
ENDBRANCH  14  31
BRANCH  13  35
HETATM   35  C   UNL     1      11.809  50.282  33.672  1.00  0.00     0.014 C 
HETATM   36  C   UNL     1      10.721  49.211  33.566  1.00  0.00     0.012 C 
BRANCH  35  37
HETATM   37  C   UNL     1      11.988  50.697  35.144  1.00  0.00     0.002 C 
HETATM   38  C   UNL     1      10.682  51.054  35.839  1.00  0.00     0.005 C 
ENDBRANCH  35  37
ENDBRANCH  13  35
BRANCH  17  39
HETATM   39  C   UNL     1      18.841  45.120  30.452  1.00  0.00     0.016 C 
HETATM   40  C   UNL     1      18.119  44.080  31.305  1.00  0.00     0.012 C 
HETATM   41  C   UNL     1      20.322  45.182  30.820  1.00  0.00     0.012 C 
ENDBRANCH  17  39
BRANCH  18  42
HETATM   42  C   UNL     1      14.137  50.559  28.843  1.00  0.00     0.016 C 
HETATM   43  C   UNL     1      14.780  51.672  29.670  1.00  0.00     0.012 C 
HETATM   44  C   UNL     1      14.746  50.511  27.444  1.00  0.00     0.012 C 
ENDBRANCH  18  42
BRANCH  16  45
HETATM   45  C   UNL     1      14.106  45.023  30.994  1.00  0.00     0.010 C 
HETATM   46  C   UNL     1      12.716  45.131  31.621  1.00  0.00     0.012 C 
HETATM   47  C   UNL     1      15.135  44.611  32.046  1.00  0.00     0.012 C 
ENDBRANCH  16  45
TORSDOF 8
ENDMDL
MODEL 19
REMARK VINA RESULT:    -4.609     12.139     16.338
REMARK INTER + INTRA:          -6.417
REMARK INTER:                  -6.862
REMARK INTRA:                   0.445
REMARK UNBOUND:                 0.347
REMARK  8 active torsions:
REMARK  status: ('A' for Active; 'I' for Inactive)
REMARK    1  A    between atoms: C_13  and  C_15 
REMARK    2  A    between atoms: C_14  and  C_16 
REMARK    3  A    between atoms: C_15  and  C_22 
REMARK    4  A    between atoms: C_16  and  C_23 
REMARK    5  A    between atoms: C_17  and  C_21 
REMARK    6  A    between atoms: C_18  and  C_24 
REMARK    7  A    between atoms: C_19  and  C_27 
REMARK    8  A    between atoms: C_20  and  C_30 
ROOT
HETATM    1  O   UNL     1      20.973  51.751  30.292  1.00  0.00    -0.304 OA
HETATM    2  O   UNL     1      18.480  47.641  29.704  1.00  0.00    -0.304 OA
HETATM    3  O   UNL     1      16.699  50.049  32.436  1.00  0.00    -0.304 OA
HETATM    4  O   UNL     1      18.789  50.766  29.196  1.00  0.00    -0.270 OA
HETATM    5  O   UNL     1      21.223  50.036  31.817  1.00  0.00    -0.263 OA
HETATM    6  O   UNL     1      17.924  52.291  32.003  1.00  0.00    -0.270 OA
HETATM    7  O   UNL     1      17.435  46.444  28.038  1.00  0.00    -0.263 OA
HETATM    8  O   UNL     1      16.674  44.845  30.603  1.00  0.00    -0.270 OA
HETATM    9  O   UNL     1      16.087  48.115  33.535  1.00  0.00    -0.263 OA
HETATM   10  N   UNL     1      19.841  49.106  27.964  1.00  0.00    -0.340 N 
HETATM   11  N   UNL     1      19.627  51.668  33.451  1.00  0.00    -0.340 N 
HETATM   12  N   UNL     1      15.685  46.890  31.068  1.00  0.00    -0.340 N 
HETATM   13  C   UNL     1      18.550  48.540  27.507  1.00  0.00     0.190 C 
HETATM   14  C   UNL     1      20.644  52.278  32.571  1.00  0.00     0.190 C 
HETATM   15  C   UNL     1      21.182  50.848  29.187  1.00  0.00     0.227 C 
HETATM   16  C   UNL     1      15.737  48.366  31.129  1.00  0.00     0.190 C 
HETATM   17  C   UNL     1      17.374  50.593  33.590  1.00  0.00     0.227 C 
HETATM   18  C   UNL     1      18.186  46.709  30.749  1.00  0.00     0.227 C 
HETATM   19  C   UNL     1      19.832  50.239  28.791  1.00  0.00     0.250 C 
HETATM   20  C   UNL     1      20.986  51.206  31.546  1.00  0.00     0.283 C 
HETATM   21  C   UNL     1      18.314  51.612  32.960  1.00  0.00     0.250 C 
HETATM   22  C   UNL     1      18.116  47.390  28.415  1.00  0.00     0.283 C 
HETATM   23  C   UNL     1      16.783  46.063  30.781  1.00  0.00     0.250 C 
HETATM   24  C   UNL     1      16.177  48.790  32.521  1.00  0.00     0.283 C 
HETATM   25  C   UNL     1      21.051  48.378  27.566  1.00  0.00     0.153 C 
HETATM   26  C   UNL     1      20.057  51.035  34.700  1.00  0.00     0.153 C 
HETATM   27  C   UNL     1      14.397  46.247  31.326  1.00  0.00     0.153 C 
ENDROOT
BRANCH  15  28
HETATM   28  C   UNL     1      21.742  51.675  28.037  1.00  0.00     0.016 C 
HETATM   29  C   UNL     1      21.173  53.092  28.064  1.00  0.00     0.012 C 
HETATM   30  C   UNL     1      23.269  51.710  28.092  1.00  0.00     0.012 C 
ENDBRANCH  15  28
BRANCH  14  31
HETATM   31  C   UNL     1      21.917  52.773  33.244  1.00  0.00     0.014 C 
HETATM   32  C   UNL     1      23.063  52.793  32.230  1.00  0.00     0.012 C 
BRANCH  31  33
HETATM   33  C   UNL     1      21.745  54.170  33.865  1.00  0.00     0.002 C 
HETATM   34  C   UNL     1      20.694  55.022  33.167  1.00  0.00     0.005 C 
ENDBRANCH  31  33
ENDBRANCH  14  31
BRANCH  13  35
HETATM   35  C   UNL     1      18.557  48.122  26.037  1.00  0.00     0.014 C 
HETATM   36  C   UNL     1      17.172  48.352  25.426  1.00  0.00     0.012 C 
BRANCH  35  37
HETATM   37  C   UNL     1      19.620  48.875  25.217  1.00  0.00     0.002 C 
HETATM   38  C   UNL     1      20.310  48.009  24.174  1.00  0.00     0.005 C 
ENDBRANCH  35  37
ENDBRANCH  13  35
BRANCH  17  39
HETATM   39  C   UNL     1      16.377  51.277  34.508  1.00  0.00     0.016 C 
HETATM   40  C   UNL     1      16.669  52.773  34.598  1.00  0.00     0.012 C 
HETATM   41  C   UNL     1      16.402  50.641  35.897  1.00  0.00     0.012 C 
ENDBRANCH  17  39
BRANCH  18  42
HETATM   42  C   UNL     1      19.290  45.651  30.746  1.00  0.00     0.016 C 
HETATM   43  C   UNL     1      20.659  46.298  30.541  1.00  0.00     0.012 C 
HETATM   44  C   UNL     1      19.268  44.844  32.043  1.00  0.00     0.012 C 
ENDBRANCH  18  42
BRANCH  16  45
HETATM   45  C   UNL     1      14.438  49.075  30.752  1.00  0.00     0.010 C 
HETATM   46  C   UNL     1      14.677  50.080  29.625  1.00  0.00     0.012 C 
HETATM   47  C   UNL     1      13.829  49.772  31.968  1.00  0.00     0.012 C 
ENDBRANCH  16  45
TORSDOF 8
ENDMDL
MODEL 20
REMARK VINA RESULT:    -4.518     12.144     17.229
REMARK INTER + INTRA:          -6.283
REMARK INTER:                  -6.520
REMARK INTRA:                   0.237
REMARK UNBOUND:                 0.347
REMARK  8 active torsions:
REMARK  status: ('A' for Active; 'I' for Inactive)
REMARK    1  A    between atoms: C_13  and  C_15 
REMARK    2  A    between atoms: C_14  and  C_16 
REMARK    3  A    between atoms: C_15  and  C_22 
REMARK    4  A    between atoms: C_16  and  C_23 
REMARK    5  A    between atoms: C_17  and  C_21 
REMARK    6  A    between atoms: C_18  and  C_24 
REMARK    7  A    between atoms: C_19  and  C_27 
REMARK    8  A    between atoms: C_20  and  C_30 
ROOT
HETATM    1  O   UNL     1      19.998  48.609  32.136  1.00  0.00    -0.304 OA
HETATM    2  O   UNL     1      19.399  50.479  27.710  1.00  0.00    -0.304 OA
HETATM    3  O   UNL     1      15.907  49.014  29.160  1.00  0.00    -0.304 OA
HETATM    4  O   UNL     1      19.016  50.694  30.861  1.00  0.00    -0.270 OA
HETATM    5  O   UNL     1      19.942  47.208  30.303  1.00  0.00    -0.263 OA
HETATM    6  O   UNL     1      16.493  48.709  31.665  1.00  0.00    -0.270 OA
HETATM    7  O   UNL     1      19.695  52.467  26.589  1.00  0.00    -0.263 OA
HETATM    8  O   UNL     1      18.262  50.696  24.462  1.00  0.00    -0.270 OA
HETATM    9  O   UNL     1      15.413  48.427  26.984  1.00  0.00    -0.263 OA
HETATM   10  N   UNL     1      20.959  51.237  29.715  1.00  0.00    -0.340 N 
HETATM   11  N   UNL     1      17.363  46.602  31.231  1.00  0.00    -0.340 N 
HETATM   12  N   UNL     1      16.640  50.769  26.116  1.00  0.00    -0.340 N 
HETATM   13  C   UNL     1      20.280  52.306  28.945  1.00  0.00     0.190 C 
HETATM   14  C   UNL     1      18.459  46.818  32.195  1.00  0.00     0.190 C 
HETATM   15  C   UNL     1      20.969  49.464  31.499  1.00  0.00     0.227 C 
HETATM   16  C   UNL     1      16.234  50.663  27.534  1.00  0.00     0.190 C 
HETATM   17  C   UNL     1      15.743  47.667  29.652  1.00  0.00     0.227 C 
HETATM   18  C   UNL     1      18.908  49.754  26.579  1.00  0.00     0.227 C 
HETATM   19  C   UNL     1      20.224  50.512  30.665  1.00  0.00     0.250 C 
HETATM   20  C   UNL     1      19.549  47.539  31.413  1.00  0.00     0.283 C 
HETATM   21  C   UNL     1      16.538  47.701  30.951  1.00  0.00     0.250 C 
HETATM   22  C   UNL     1      19.803  51.775  27.593  1.00  0.00     0.283 C 
HETATM   23  C   UNL     1      17.920  50.464  25.626  1.00  0.00     0.250 C 
HETATM   24  C   UNL     1      15.793  49.236  27.817  1.00  0.00     0.283 C 
HETATM   25  C   UNL     1      22.357  50.967  29.363  1.00  0.00     0.153 C 
HETATM   26  C   UNL     1      17.283  45.322  30.521  1.00  0.00     0.153 C 
HETATM   27  C   UNL     1      15.634  51.227  25.158  1.00  0.00     0.153 C 
ENDROOT
BRANCH  15  28
HETATM   28  C   UNL     1      21.761  50.143  32.609  1.00  0.00     0.016 C 
HETATM   29  C   UNL     1      20.952  50.178  33.905  1.00  0.00     0.012 C 
HETATM   30  C   UNL     1      23.095  49.434  32.831  1.00  0.00     0.012 C 
ENDBRANCH  15  28
BRANCH  14  31
HETATM   31  C   UNL     1      19.037  45.575  32.858  1.00  0.00     0.014 C 
HETATM   32  C   UNL     1      20.449  45.871  33.368  1.00  0.00     0.012 C 
BRANCH  31  33
HETATM   33  C   UNL     1      18.159  45.067  34.015  1.00  0.00     0.002 C 
HETATM   34  C   UNL     1      17.689  43.630  33.838  1.00  0.00     0.005 C 
ENDBRANCH  31  33
ENDBRANCH  14  31
BRANCH  13  35
HETATM   35  C   UNL     1      21.126  53.569  28.784  1.00  0.00     0.014 C 
HETATM   36  C   UNL     1      20.256  54.711  28.252  1.00  0.00     0.012 C 
BRANCH  35  37
HETATM   37  C   UNL     1      21.798  53.997  30.100  1.00  0.00     0.002 C 
HETATM   38  C   UNL     1      23.184  54.595  29.909  1.00  0.00     0.005 C 
ENDBRANCH  35  37
ENDBRANCH  13  35
BRANCH  17  39
HETATM   39  C   UNL     1      14.277  47.383  29.926  1.00  0.00     0.016 C 
HETATM   40  C   UNL     1      14.055  47.094  31.408  1.00  0.00     0.012 C 
HETATM   41  C   UNL     1      13.788  46.215  29.072  1.00  0.00     0.012 C 
ENDBRANCH  17  39
BRANCH  18  42
HETATM   42  C   UNL     1      20.119  49.207  25.821  1.00  0.00     0.016 C 
HETATM   43  C   UNL     1      21.201  48.742  26.796  1.00  0.00     0.012 C 
HETATM   44  C   UNL     1      19.706  48.064  24.896  1.00  0.00     0.012 C 
ENDBRANCH  18  42
BRANCH  16  45
HETATM   45  C   UNL     1      15.148  51.643  27.971  1.00  0.00     0.010 C 
HETATM   46  C   UNL     1      15.612  52.463  29.174  1.00  0.00     0.012 C 
HETATM   47  C   UNL     1      13.851  50.903  28.298  1.00  0.00     0.012 C 
ENDBRANCH  16  45
TORSDOF 8
ENDMDL
