MODEL 1
REMARK VINA RESULT:    -6.100      0.000      0.000
REMARK INTER + INTRA:          -8.070
REMARK INTER:                  -8.954
REMARK INTRA:                   0.884
REMARK UNBOUND:                 0.884
REMARK  8 active torsions:
REMARK  status: ('A' for Active; 'I' for Inactive)
REMARK    1  A    between atoms: C_13  and  C_15 
REMARK    2  A    between atoms: C_14  and  C_16 
REMARK    3  A    between atoms: C_15  and  C_22 
REMARK    4  A    between atoms: C_16  and  C_23 
REMARK    5  A    between atoms: C_17  and  C_21 
REMARK    6  A    between atoms: C_18  and  C_24 
REMARK    7  A    between atoms: C_19  and  C_27 
REMARK    8  A    between atoms: C_20  and  C_30 
ROOT
HETATM    1  O   UNL     1      21.086  37.228   2.822  1.00  0.00    -0.304 OA
HETATM    2  O   UNL     1      18.136  40.280   0.494  1.00  0.00    -0.304 OA
HETATM    3  O   UNL     1      16.466  36.600   0.817  1.00  0.00    -0.304 OA
HETATM    4  O   UNL     1      18.890  38.651   3.120  1.00  0.00    -0.270 OA
HETATM    5  O   UNL     1      20.985  37.182   0.517  1.00  0.00    -0.263 OA
HETATM    6  O   UNL     1      18.004  35.506   2.593  1.00  0.00    -0.270 OA
HETATM    7  O   UNL     1      17.084  42.301   0.824  1.00  0.00    -0.263 OA
HETATM    8  O   UNL     1      15.913  41.365  -1.909  1.00  0.00    -0.270 OA
HETATM    9  O   UNL     1      15.520  37.002  -1.248  1.00  0.00    -0.263 OA
HETATM   10  N   UNL     1      19.814  40.688   2.505  1.00  0.00    -0.340 N 
HETATM   11  N   UNL     1      19.488  34.844   0.935  1.00  0.00    -0.340 N 
HETATM   12  N   UNL     1      15.165  39.664  -0.522  1.00  0.00    -0.340 N 
HETATM   13  C   UNL     1      18.502  41.373   2.570  1.00  0.00     0.190 C 
HETATM   14  C   UNL     1      20.643  35.142   1.804  1.00  0.00     0.190 C 
HETATM   15  C   UNL     1      21.265  38.658   2.823  1.00  0.00     0.227 C 
HETATM   16  C   UNL     1      15.404  38.664   0.540  1.00  0.00     0.190 C 
HETATM   17  C   UNL     1      17.110  35.383   0.382  1.00  0.00     0.227 C 
HETATM   18  C   UNL     1      17.639  40.080  -0.833  1.00  0.00     0.227 C 
HETATM   19  C   UNL     1      19.884  39.324   2.826  1.00  0.00     0.250 C 
HETATM   20  C   UNL     1      20.926  36.625   1.605  1.00  0.00     0.283 C 
HETATM   21  C   UNL     1      18.223  35.225   1.409  1.00  0.00     0.250 C 
HETATM   22  C   UNL     1      17.849  41.417   1.188  1.00  0.00     0.283 C 
HETATM   23  C   UNL     1      16.166  40.443  -1.126  1.00  0.00     0.250 C 
HETATM   24  C   UNL     1      15.780  37.339  -0.103  1.00  0.00     0.283 C 
HETATM   25  C   UNL     1      20.947  41.489   2.029  1.00  0.00     0.153 C 
HETATM   26  C   UNL     1      19.728  34.312  -0.408  1.00  0.00     0.153 C 
HETATM   27  C   UNL     1      13.787  39.856  -0.974  1.00  0.00     0.153 C 
ENDROOT
BRANCH  15  28
HETATM   28  C   UNL     1      22.021  39.012   4.097  1.00  0.00     0.016 C 
HETATM   29  C   UNL     1      21.805  37.943   5.167  1.00  0.00     0.012 C 
HETATM   30  C   UNL     1      23.511  39.187   3.810  1.00  0.00     0.012 C 
ENDBRANCH  15  28
BRANCH  14  31
HETATM   31  C   UNL     1      21.911  34.338   1.550  1.00  0.00     0.014 C 
HETATM   32  C   UNL     1      23.132  35.138   2.011  1.00  0.00     0.012 C 
BRANCH  31  33
HETATM   33  C   UNL     1      21.886  32.970   2.254  1.00  0.00     0.002 C 
HETATM   34  C   UNL     1      22.142  31.797   1.317  1.00  0.00     0.005 C 
ENDBRANCH  31  33
ENDBRANCH  14  31
BRANCH  13  35
HETATM   35  C   UNL     1      18.574  42.764   3.199  1.00  0.00     0.014 C 
HETATM   36  C   UNL     1      18.768  43.819   2.105  1.00  0.00     0.012 C 
BRANCH  35  37
HETATM   37  C   UNL     1      17.321  43.100   4.028  1.00  0.00     0.002 C 
HETATM   38  C   UNL     1      17.533  44.235   5.019  1.00  0.00     0.005 C 
ENDBRANCH  35  37
ENDBRANCH  13  35
BRANCH  17  39
HETATM   39  C   UNL     1      16.139  34.219   0.457  1.00  0.00     0.016 C 
HETATM   40  C   UNL     1      15.355  34.258   1.766  1.00  0.00     0.012 C 
HETATM   41  C   UNL     1      16.881  32.892   0.315  1.00  0.00     0.012 C 
ENDBRANCH  17  39
BRANCH  18  42
HETATM   42  C   UNL     1      18.591  40.793  -1.794  1.00  0.00     0.016 C 
HETATM   43  C   UNL     1      20.031  40.709  -1.289  1.00  0.00     0.012 C 
HETATM   44  C   UNL     1      18.482  40.203  -3.199  1.00  0.00     0.012 C 
ENDBRANCH  18  42
BRANCH  16  45
HETATM   45  C   UNL     1      14.243  38.463   1.512  1.00  0.00     0.010 C 
HETATM   46  C   UNL     1      14.754  38.349   2.948  1.00  0.00     0.012 C 
HETATM   47  C   UNL     1      13.429  37.226   1.134  1.00  0.00     0.012 C 
ENDBRANCH  16  45
TORSDOF 8
ENDMDL
MODEL 2
REMARK VINA RESULT:    -5.803      2.643      6.473
REMARK INTER + INTRA:          -7.633
REMARK INTER:                  -8.130
REMARK INTRA:                   0.497
REMARK UNBOUND:                 0.884
REMARK  8 active torsions:
REMARK  status: ('A' for Active; 'I' for Inactive)
REMARK    1  A    between atoms: C_13  and  C_15 
REMARK    2  A    between atoms: C_14  and  C_16 
REMARK    3  A    between atoms: C_15  and  C_22 
REMARK    4  A    between atoms: C_16  and  C_23 
REMARK    5  A    between atoms: C_17  and  C_21 
REMARK    6  A    between atoms: C_18  and  C_24 
REMARK    7  A    between atoms: C_19  and  C_27 
REMARK    8  A    between atoms: C_20  and  C_30 
ROOT
HETATM    1  O   UNL     1      17.698  33.909  -1.099  1.00  0.00    -0.304 OA
HETATM    2  O   UNL     1      18.947  37.583   1.798  1.00  0.00    -0.304 OA
HETATM    3  O   UNL     1      20.538  38.038  -1.904  1.00  0.00    -0.304 OA
HETATM    4  O   UNL     1      17.197  36.447  -0.604  1.00  0.00    -0.270 OA
HETATM    5  O   UNL     1      19.777  33.915  -0.095  1.00  0.00    -0.263 OA
HETATM    6  O   UNL     1      19.175  36.296  -3.253  1.00  0.00    -0.270 OA
HETATM    7  O   UNL     1      17.962  39.220   3.081  1.00  0.00    -0.263 OA
HETATM    8  O   UNL     1      20.987  39.952   3.251  1.00  0.00    -0.270 OA
HETATM    9  O   UNL     1      22.355  38.994  -0.852  1.00  0.00    -0.263 OA
HETATM   10  N   UNL     1      16.703  36.181   1.647  1.00  0.00    -0.340 N 
HETATM   11  N   UNL     1      20.673  34.627  -2.659  1.00  0.00    -0.340 N 
HETATM   12  N   UNL     1      20.622  40.181   0.973  1.00  0.00    -0.340 N 
HETATM   13  C   UNL     1      16.574  37.642   1.855  1.00  0.00     0.190 C 
HETATM   14  C   UNL     1      19.577  33.650  -2.508  1.00  0.00     0.190 C 
HETATM   15  C   UNL     1      17.049  34.182   0.158  1.00  0.00     0.227 C 
HETATM   16  C   UNL     1      20.073  39.679  -0.304  1.00  0.00     0.190 C 
HETATM   17  C   UNL     1      21.338  37.035  -2.564  1.00  0.00     0.227 C 
HETATM   18  C   UNL     1      20.293  37.950   2.114  1.00  0.00     0.227 C 
HETATM   19  C   UNL     1      16.996  35.701   0.361  1.00  0.00     0.250 C 
HETATM   20  C   UNL     1      19.063  33.834  -1.086  1.00  0.00     0.283 C 
HETATM   21  C   UNL     1      20.306  35.962  -2.885  1.00  0.00     0.250 C 
HETATM   22  C   UNL     1      17.890  38.231   2.363  1.00  0.00     0.283 C 
HETATM   23  C   UNL     1      20.648  39.452   2.173  1.00  0.00     0.250 C 
HETATM   24  C   UNL     1      21.151  38.889  -1.030  1.00  0.00     0.283 C 
HETATM   25  C   UNL     1      16.583  35.338   2.841  1.00  0.00     0.153 C 
HETATM   26  C   UNL     1      22.051  34.189  -2.424  1.00  0.00     0.153 C 
HETATM   27  C   UNL     1      21.176  41.535   0.986  1.00  0.00     0.153 C 
ENDROOT
BRANCH  15  28
HETATM   28  C   UNL     1      15.638  33.616   0.064  1.00  0.00     0.016 C 
HETATM   29  C   UNL     1      14.685  34.642  -0.545  1.00  0.00     0.012 C 
HETATM   30  C   UNL     1      15.629  32.325  -0.754  1.00  0.00     0.012 C 
ENDBRANCH  15  28
BRANCH  14  31
HETATM   31  C   UNL     1      19.932  32.187  -2.741  1.00  0.00     0.014 C 
HETATM   32  C   UNL     1      18.747  31.300  -2.353  1.00  0.00     0.012 C 
BRANCH  31  33
HETATM   33  C   UNL     1      20.338  31.909  -4.199  1.00  0.00     0.002 C 
HETATM   34  C   UNL     1      21.665  31.175  -4.333  1.00  0.00     0.005 C 
ENDBRANCH  31  33
ENDBRANCH  14  31
BRANCH  13  35
HETATM   35  C   UNL     1      15.404  38.026   2.760  1.00  0.00     0.014 C 
HETATM   36  C   UNL     1      15.207  39.544   2.740  1.00  0.00     0.012 C 
BRANCH  35  37
HETATM   37  C   UNL     1      14.094  37.326   2.354  1.00  0.00     0.002 C 
HETATM   38  C   UNL     1      13.505  37.846   1.051  1.00  0.00     0.005 C 
ENDBRANCH  35  37
ENDBRANCH  13  35
BRANCH  17  39
HETATM   39  C   UNL     1      21.941  37.599  -3.838  1.00  0.00     0.016 C 
HETATM   40  C   UNL     1      21.419  36.845  -5.059  1.00  0.00     0.012 C 
HETATM   41  C   UNL     1      23.467  37.539  -3.782  1.00  0.00     0.012 C 
ENDBRANCH  17  39
BRANCH  18  42
HETATM   42  C   UNL     1      20.673  37.234   3.411  1.00  0.00     0.016 C 
HETATM   43  C   UNL     1      20.049  35.840   3.462  1.00  0.00     0.012 C 
HETATM   44  C   UNL     1      22.191  37.146   3.555  1.00  0.00     0.012 C 
ENDBRANCH  18  42
BRANCH  16  45
HETATM   45  C   UNL     1      19.499  40.752  -1.227  1.00  0.00     0.010 C 
HETATM   46  C   UNL     1      18.044  40.441  -1.577  1.00  0.00     0.012 C 
HETATM   47  C   UNL     1      20.338  40.878  -2.498  1.00  0.00     0.012 C 
ENDBRANCH  16  45
TORSDOF 8
ENDMDL
MODEL 3
REMARK VINA RESULT:    -5.658      2.054      6.429
REMARK INTER + INTRA:          -7.420
REMARK INTER:                  -7.823
REMARK INTRA:                   0.403
REMARK UNBOUND:                 0.884
REMARK  8 active torsions:
REMARK  status: ('A' for Active; 'I' for Inactive)
REMARK    1  A    between atoms: C_13  and  C_15 
REMARK    2  A    between atoms: C_14  and  C_16 
REMARK    3  A    between atoms: C_15  and  C_22 
REMARK    4  A    between atoms: C_16  and  C_23 
REMARK    5  A    between atoms: C_17  and  C_21 
REMARK    6  A    between atoms: C_18  and  C_24 
REMARK    7  A    between atoms: C_19  and  C_27 
REMARK    8  A    between atoms: C_20  and  C_30 
ROOT
HETATM    1  O   UNL     1      17.593  35.644   0.365  1.00  0.00    -0.304 OA
HETATM    2  O   UNL     1      15.073  39.770   0.638  1.00  0.00    -0.304 OA
HETATM    3  O   UNL     1      19.039  40.507   0.234  1.00  0.00    -0.304 OA
HETATM    4  O   UNL     1      16.700  37.651  -1.089  1.00  0.00    -0.270 OA
HETATM    5  O   UNL     1      17.482  36.783   2.369  1.00  0.00    -0.263 OA
HETATM    6  O   UNL     1      19.912  38.177  -0.488  1.00  0.00    -0.270 OA
HETATM    7  O   UNL     1      13.356  40.854  -0.447  1.00  0.00    -0.263 OA
HETATM    8  O   UNL     1      14.308  42.986   1.618  1.00  0.00    -0.270 OA
HETATM    9  O   UNL     1      18.692  42.345   1.584  1.00  0.00    -0.263 OA
HETATM   10  N   UNL     1      14.471  37.443  -0.480  1.00  0.00    -0.340 N 
HETATM   11  N   UNL     1      20.111  37.536   1.734  1.00  0.00    -0.340 N 
HETATM   12  N   UNL     1      16.231  42.738   0.346  1.00  0.00    -0.340 N 
HETATM   13  C   UNL     1      14.090  38.668  -1.222  1.00  0.00     0.190 C 
HETATM   14  C   UNL     1      19.640  36.173   1.418  1.00  0.00     0.190 C 
HETATM   15  C   UNL     1      16.162  35.710   0.205  1.00  0.00     0.227 C 
HETATM   16  C   UNL     1      17.235  41.886  -0.324  1.00  0.00     0.190 C 
HETATM   17  C   UNL     1      20.052  39.954   1.101  1.00  0.00     0.227 C 
HETATM   18  C   UNL     1      15.272  40.783   1.629  1.00  0.00     0.227 C 
HETATM   19  C   UNL     1      15.809  37.021  -0.508  1.00  0.00     0.250 C 
HETATM   20  C   UNL     1      18.120  36.249   1.472  1.00  0.00     0.283 C 
HETATM   21  C   UNL     1      20.047  38.484   0.702  1.00  0.00     0.250 C 
HETATM   22  C   UNL     1      14.081  39.880  -0.290  1.00  0.00     0.283 C 
HETATM   23  C   UNL     1      15.212  42.262   1.187  1.00  0.00     0.250 C 
HETATM   24  C   UNL     1      18.396  41.645   0.628  1.00  0.00     0.283 C 
HETATM   25  C   UNL     1      13.412  36.795   0.301  1.00  0.00     0.153 C 
HETATM   26  C   UNL     1      20.475  37.859   3.115  1.00  0.00     0.153 C 
HETATM   27  C   UNL     1      16.305  44.181   0.115  1.00  0.00     0.153 C 
ENDROOT
BRANCH  15  28
HETATM   28  C   UNL     1      15.753  34.520  -0.652  1.00  0.00     0.016 C 
HETATM   29  C   UNL     1      16.891  34.112  -1.586  1.00  0.00     0.012 C 
HETATM   30  C   UNL     1      15.333  33.342   0.225  1.00  0.00     0.012 C 
ENDBRANCH  15  28
BRANCH  14  31
HETATM   31  C   UNL     1      20.132  35.056   2.328  1.00  0.00     0.014 C 
HETATM   32  C   UNL     1      19.330  33.780   2.059  1.00  0.00     0.012 C 
BRANCH  31  33
HETATM   33  C   UNL     1      21.635  34.775   2.149  1.00  0.00     0.002 C 
HETATM   34  C   UNL     1      21.986  33.294   2.177  1.00  0.00     0.005 C 
ENDBRANCH  31  33
ENDBRANCH  14  31
BRANCH  13  35
HETATM   35  C   UNL     1      12.768  38.533  -1.977  1.00  0.00     0.014 C 
HETATM   36  C   UNL     1      12.538  39.773  -2.846  1.00  0.00     0.012 C 
BRANCH  35  37
HETATM   37  C   UNL     1      12.718  37.268  -2.853  1.00  0.00     0.002 C 
HETATM   38  C   UNL     1      12.307  37.540  -4.292  1.00  0.00     0.005 C 
ENDBRANCH  35  37
ENDBRANCH  13  35
BRANCH  17  39
HETATM   39  C   UNL     1      21.400  40.587   0.804  1.00  0.00     0.016 C 
HETATM   40  C   UNL     1      22.400  39.529   0.344  1.00  0.00     0.012 C 
HETATM   41  C   UNL     1      21.928  41.326   2.033  1.00  0.00     0.012 C 
ENDBRANCH  17  39
BRANCH  18  42
HETATM   42  C   UNL     1      14.300  40.502   2.776  1.00  0.00     0.016 C 
HETATM   43  C   UNL     1      14.137  38.997   2.989  1.00  0.00     0.012 C 
HETATM   44  C   UNL     1      14.774  41.176   4.062  1.00  0.00     0.012 C 
ENDBRANCH  18  42
BRANCH  16  45
HETATM   45  C   UNL     1      17.754  42.424  -1.656  1.00  0.00     0.010 C 
HETATM   46  C   UNL     1      17.455  41.443  -2.789  1.00  0.00     0.012 C 
HETATM   47  C   UNL     1      19.253  42.708  -1.578  1.00  0.00     0.012 C 
ENDBRANCH  16  45
TORSDOF 8
ENDMDL
MODEL 4
REMARK VINA RESULT:    -5.392      2.128      4.904
REMARK INTER + INTRA:          -7.030
REMARK INTER:                  -7.631
REMARK INTRA:                   0.602
REMARK UNBOUND:                 0.884
REMARK  8 active torsions:
REMARK  status: ('A' for Active; 'I' for Inactive)
REMARK    1  A    between atoms: C_13  and  C_15 
REMARK    2  A    between atoms: C_14  and  C_16 
REMARK    3  A    between atoms: C_15  and  C_22 
REMARK    4  A    between atoms: C_16  and  C_23 
REMARK    5  A    between atoms: C_17  and  C_21 
REMARK    6  A    between atoms: C_18  and  C_24 
REMARK    7  A    between atoms: C_19  and  C_27 
REMARK    8  A    between atoms: C_20  and  C_30 
ROOT
HETATM    1  O   UNL     1      18.650  42.055   2.846  1.00  0.00    -0.304 OA
HETATM    2  O   UNL     1      15.271  40.318  -0.155  1.00  0.00    -0.304 OA
HETATM    3  O   UNL     1      17.431  37.314   1.504  1.00  0.00    -0.304 OA
HETATM    4  O   UNL     1      16.313  40.842   2.804  1.00  0.00    -0.270 OA
HETATM    5  O   UNL     1      19.239  41.431   0.704  1.00  0.00    -0.263 OA
HETATM    6  O   UNL     1      18.633  38.566   3.429  1.00  0.00    -0.270 OA
HETATM    7  O   UNL     1      12.989  40.370  -0.448  1.00  0.00    -0.263 OA
HETATM    8  O   UNL     1      13.905  38.327  -2.617  1.00  0.00    -0.270 OA
HETATM    9  O   UNL     1      17.171  36.207  -0.503  1.00  0.00    -0.263 OA
HETATM   10  N   UNL     1      15.231  42.406   1.477  1.00  0.00    -0.340 N 
HETATM   11  N   UNL     1      20.341  39.191   1.989  1.00  0.00    -0.340 N 
HETATM   12  N   UNL     1      14.593  37.237  -0.690  1.00  0.00    -0.340 N 
HETATM   13  C   UNL     1      14.000  41.583   1.402  1.00  0.00     0.190 C 
HETATM   14  C   UNL     1      20.434  40.521   2.622  1.00  0.00     0.190 C 
HETATM   15  C   UNL     1      17.548  42.843   2.354  1.00  0.00     0.227 C 
HETATM   16  C   UNL     1      15.265  37.241   0.626  1.00  0.00     0.190 C 
HETATM   17  C   UNL     1      18.872  37.239   1.458  1.00  0.00     0.227 C 
HETATM   18  C   UNL     1      15.539  39.500  -1.299  1.00  0.00     0.227 C 
HETATM   19  C   UNL     1      16.317  41.937   2.231  1.00  0.00     0.250 C 
HETATM   20  C   UNL     1      19.390  41.378   1.917  1.00  0.00     0.283 C 
HETATM   21  C   UNL     1      19.282  38.367   2.396  1.00  0.00     0.250 C 
HETATM   22  C   UNL     1      14.004  40.726   0.136  1.00  0.00     0.283 C 
HETATM   23  C   UNL     1      14.592  38.315  -1.590  1.00  0.00     0.250 C 
HETATM   24  C   UNL     1      16.720  36.839   0.441  1.00  0.00     0.283 C 
HETATM   25  C   UNL     1      15.242  43.638   0.680  1.00  0.00     0.153 C 
HETATM   26  C   UNL     1      21.252  38.864   0.889  1.00  0.00     0.153 C 
HETATM   27  C   UNL     1      13.876  36.023  -1.080  1.00  0.00     0.153 C 
ENDROOT
BRANCH  15  28
HETATM   28  C   UNL     1      17.292  43.941   3.377  1.00  0.00     0.016 C 
HETATM   29  C   UNL     1      17.982  43.615   4.701  1.00  0.00     0.012 C 
HETATM   30  C   UNL     1      17.764  45.293   2.847  1.00  0.00     0.012 C 
ENDBRANCH  15  28
BRANCH  14  31
HETATM   31  C   UNL     1      21.790  41.211   2.562  1.00  0.00     0.014 C 
HETATM   32  C   UNL     1      21.609  42.722   2.726  1.00  0.00     0.012 C 
BRANCH  31  33
HETATM   33  C   UNL     1      22.762  40.682   3.632  1.00  0.00     0.002 C 
HETATM   34  C   UNL     1      24.223  40.736   3.208  1.00  0.00     0.005 C 
ENDBRANCH  31  33
ENDBRANCH  14  31
BRANCH  13  35
HETATM   35  C   UNL     1      12.715  42.401   1.520  1.00  0.00     0.014 C 
HETATM   36  C   UNL     1      12.055  42.532   0.145  1.00  0.00     0.012 C 
BRANCH  35  37
HETATM   37  C   UNL     1      11.718  41.786   2.518  1.00  0.00     0.002 C 
HETATM   38  C   UNL     1      12.233  40.524   3.194  1.00  0.00     0.005 C 
ENDBRANCH  35  37
ENDBRANCH  13  35
BRANCH  17  39
HETATM   39  C   UNL     1      19.346  35.899   1.989  1.00  0.00     0.016 C 
HETATM   40  C   UNL     1      20.213  36.090   3.231  1.00  0.00     0.012 C 
HETATM   41  C   UNL     1      20.113  35.135   0.911  1.00  0.00     0.012 C 
ENDBRANCH  17  39
BRANCH  18  42
HETATM   42  C   UNL     1      15.663  40.427  -2.509  1.00  0.00     0.016 C 
HETATM   43  C   UNL     1      16.307  41.755  -2.109  1.00  0.00     0.012 C 
HETATM   44  C   UNL     1      16.465  39.757  -3.622  1.00  0.00     0.012 C 
ENDBRANCH  18  42
BRANCH  16  45
HETATM   45  C   UNL     1      14.611  36.361   1.690  1.00  0.00     0.010 C 
HETATM   46  C   UNL     1      14.210  37.193   2.908  1.00  0.00     0.012 C 
HETATM   47  C   UNL     1      15.546  35.226   2.103  1.00  0.00     0.012 C 
ENDBRANCH  16  45
TORSDOF 8
ENDMDL
MODEL 5
REMARK VINA RESULT:    -5.378      2.091      8.066
REMARK INTER + INTRA:          -7.010
REMARK INTER:                  -7.779
REMARK INTRA:                   0.769
REMARK UNBOUND:                 0.884
REMARK  8 active torsions:
REMARK  status: ('A' for Active; 'I' for Inactive)
REMARK    1  A    between atoms: C_13  and  C_15 
REMARK    2  A    between atoms: C_14  and  C_16 
REMARK    3  A    between atoms: C_15  and  C_22 
REMARK    4  A    between atoms: C_16  and  C_23 
REMARK    5  A    between atoms: C_17  and  C_21 
REMARK    6  A    between atoms: C_18  and  C_24 
REMARK    7  A    between atoms: C_19  and  C_27 
REMARK    8  A    between atoms: C_20  and  C_30 
ROOT
HETATM    1  O   UNL     1      16.228  36.348   0.776  1.00  0.00    -0.304 OA
HETATM    2  O   UNL     1      20.855  36.065  -0.621  1.00  0.00    -0.304 OA
HETATM    3  O   UNL     1      20.239  39.305   1.737  1.00  0.00    -0.304 OA
HETATM    4  O   UNL     1      18.639  35.726   1.635  1.00  0.00    -0.270 OA
HETATM    5  O   UNL     1      16.970  37.644  -0.984  1.00  0.00    -0.263 OA
HETATM    6  O   UNL     1      17.913  38.760   2.740  1.00  0.00    -0.270 OA
HETATM    7  O   UNL     1      22.635  34.609  -0.519  1.00  0.00    -0.263 OA
HETATM    8  O   UNL     1      23.916  37.159  -1.772  1.00  0.00    -0.270 OA
HETATM    9  O   UNL     1      21.821  40.374   0.442  1.00  0.00    -0.263 OA
HETATM   10  N   UNL     1      19.109  34.165  -0.016  1.00  0.00    -0.340 N 
HETATM   11  N   UNL     1      16.869  39.720   0.904  1.00  0.00    -0.340 N 
HETATM   12  N   UNL     1      23.246  37.989   0.286  1.00  0.00    -0.340 N 
HETATM   13  C   UNL     1      20.499  33.984   0.465  1.00  0.00     0.190 C 
HETATM   14  C   UNL     1      15.828  38.673   0.906  1.00  0.00     0.190 C 
HETATM   15  C   UNL     1      16.809  35.163   0.197  1.00  0.00     0.227 C 
HETATM   16  C   UNL     1      22.230  38.141   1.349  1.00  0.00     0.190 C 
HETATM   17  C   UNL     1      19.230  40.305   1.482  1.00  0.00     0.227 C 
HETATM   18  C   UNL     1      21.549  37.081  -1.353  1.00  0.00     0.227 C 
HETATM   19  C   UNL     1      18.264  35.051   0.669  1.00  0.00     0.250 C 
HETATM   20  C   UNL     1      16.412  37.521   0.098  1.00  0.00     0.283 C 
HETATM   21  C   UNL     1      17.944  39.547   1.788  1.00  0.00     0.250 C 
HETATM   22  C   UNL     1      21.459  34.883  -0.315  1.00  0.00     0.283 C 
HETATM   23  C   UNL     1      23.011  37.393  -0.964  1.00  0.00     0.250 C 
HETATM   24  C   UNL     1      21.442  39.418   1.102  1.00  0.00     0.283 C 
HETATM   25  C   UNL     1      18.741  33.444  -1.239  1.00  0.00     0.153 C 
HETATM   26  C   UNL     1      16.802  40.785  -0.100  1.00  0.00     0.153 C 
HETATM   27  C   UNL     1      24.591  38.494   0.559  1.00  0.00     0.153 C 
ENDROOT
BRANCH  15  28
HETATM   28  C   UNL     1      16.000  33.976   0.703  1.00  0.00     0.016 C 
HETATM   29  C   UNL     1      15.224  34.352   1.964  1.00  0.00     0.012 C 
HETATM   30  C   UNL     1      15.049  33.470  -0.380  1.00  0.00     0.012 C 
ENDBRANCH  15  28
BRANCH  14  31
HETATM   31  C   UNL     1      14.470  39.063   0.339  1.00  0.00     0.014 C 
HETATM   32  C   UNL     1      13.769  37.823  -0.221  1.00  0.00     0.012 C 
BRANCH  31  33
HETATM   33  C   UNL     1      13.571  39.742   1.387  1.00  0.00     0.002 C 
HETATM   34  C   UNL     1      13.097  38.800   2.485  1.00  0.00     0.005 C 
ENDBRANCH  31  33
ENDBRANCH  14  31
BRANCH  13  35
HETATM   35  C   UNL     1      20.961  32.527   0.451  1.00  0.00     0.014 C 
HETATM   36  C   UNL     1      21.654  32.215  -0.878  1.00  0.00     0.012 C 
BRANCH  35  37
HETATM   37  C   UNL     1      21.908  32.200   1.620  1.00  0.00     0.002 C 
HETATM   38  C   UNL     1      22.831  31.023   1.344  1.00  0.00     0.005 C 
ENDBRANCH  35  37
ENDBRANCH  13  35
BRANCH  17  39
HETATM   39  C   UNL     1      19.400  41.478   2.431  1.00  0.00     0.016 C 
HETATM   40  C   UNL     1      18.073  41.825   3.099  1.00  0.00     0.012 C 
HETATM   41  C   UNL     1      19.962  42.690   1.690  1.00  0.00     0.012 C 
ENDBRANCH  17  39
BRANCH  18  42
HETATM   42  C   UNL     1      21.426  36.743  -2.839  1.00  0.00     0.016 C 
HETATM   43  C   UNL     1      20.075  36.094  -3.136  1.00  0.00     0.012 C 
HETATM   44  C   UNL     1      21.618  37.994  -3.695  1.00  0.00     0.012 C 
ENDBRANCH  18  42
BRANCH  16  45
HETATM   45  C   UNL     1      22.778  38.131   2.774  1.00  0.00     0.010 C 
HETATM   46  C   UNL     1      22.067  37.074   3.619  1.00  0.00     0.012 C 
HETATM   47  C   UNL     1      22.639  39.511   3.417  1.00  0.00     0.012 C 
ENDBRANCH  16  45
TORSDOF 8
ENDMDL
MODEL 6
REMARK VINA RESULT:    -5.354      2.104      6.997
REMARK INTER + INTRA:          -6.974
REMARK INTER:                  -7.617
REMARK INTRA:                   0.643
REMARK UNBOUND:                 0.884
REMARK  8 active torsions:
REMARK  status: ('A' for Active; 'I' for Inactive)
REMARK    1  A    between atoms: C_13  and  C_15 
REMARK    2  A    between atoms: C_14  and  C_16 
REMARK    3  A    between atoms: C_15  and  C_22 
REMARK    4  A    between atoms: C_16  and  C_23 
REMARK    5  A    between atoms: C_17  and  C_21 
REMARK    6  A    between atoms: C_18  and  C_24 
REMARK    7  A    between atoms: C_19  and  C_27 
REMARK    8  A    between atoms: C_20  and  C_30 
ROOT
HETATM    1  O   UNL     1      18.467  40.341   2.339  1.00  0.00    -0.304 OA
HETATM    2  O   UNL     1      18.754  36.712  -0.855  1.00  0.00    -0.304 OA
HETATM    3  O   UNL     1      21.647  36.402   1.969  1.00  0.00    -0.304 OA
HETATM    4  O   UNL     1      17.972  37.770   2.041  1.00  0.00    -0.270 OA
HETATM    5  O   UNL     1      20.010  40.448   0.625  1.00  0.00    -0.263 OA
HETATM    6  O   UNL     1      20.790  38.076   3.751  1.00  0.00    -0.270 OA
HETATM    7  O   UNL     1      17.460  35.002  -1.690  1.00  0.00    -0.263 OA
HETATM    8  O   UNL     1      20.236  34.452  -2.996  1.00  0.00    -0.270 OA
HETATM    9  O   UNL     1      22.989  35.545   0.299  1.00  0.00    -0.263 OA
HETATM   10  N   UNL     1      16.651  37.977   0.146  1.00  0.00    -0.340 N 
HETATM   11  N   UNL     1      21.849  39.825   2.654  1.00  0.00    -0.340 N 
HETATM   12  N   UNL     1      20.772  34.231  -0.751  1.00  0.00    -0.340 N 
HETATM   13  C   UNL     1      16.543  36.508  -0.014  1.00  0.00     0.190 C 
HETATM   14  C   UNL     1      20.719  40.732   2.938  1.00  0.00     0.190 C 
HETATM   15  C   UNL     1      17.410  40.012   1.416  1.00  0.00     0.227 C 
HETATM   16  C   UNL     1      20.715  34.715   0.644  1.00  0.00     0.190 C 
HETATM   17  C   UNL     1      22.575  37.460   2.289  1.00  0.00     0.227 C 
HETATM   18  C   UNL     1      19.901  36.423  -1.660  1.00  0.00     0.227 C 
HETATM   19  C   UNL     1      17.377  38.490   1.232  1.00  0.00     0.250 C 
HETATM   20  C   UNL     1      19.720  40.498   1.813  1.00  0.00     0.283 C 
HETATM   21  C   UNL     1      21.677  38.473   2.987  1.00  0.00     0.250 C 
HETATM   22  C   UNL     1      17.604  35.994  -0.987  1.00  0.00     0.283 C 
HETATM   23  C   UNL     1      20.299  34.945  -1.865  1.00  0.00     0.250 C 
HETATM   24  C   UNL     1      21.936  35.579   0.919  1.00  0.00     0.283 C 
HETATM   25  C   UNL     1      16.038  38.796  -0.905  1.00  0.00     0.153 C 
HETATM   26  C   UNL     1      23.007  40.342   1.921  1.00  0.00     0.153 C 
HETATM   27  C   UNL     1      21.362  32.913  -0.987  1.00  0.00     0.153 C 
ENDROOT
BRANCH  15  28
HETATM   28  C   UNL     1      16.107  40.493   2.042  1.00  0.00     0.016 C 
HETATM   29  C   UNL     1      15.687  39.573   3.187  1.00  0.00     0.012 C 
HETATM   30  C   UNL     1      16.245  41.932   2.535  1.00  0.00     0.012 C 
ENDBRANCH  15  28
BRANCH  14  31
HETATM   31  C   UNL     1      21.046  42.216   3.036  1.00  0.00     0.014 C 
HETATM   32  C   UNL     1      19.763  43.012   3.284  1.00  0.00     0.012 C 
BRANCH  31  33
HETATM   33  C   UNL     1      22.070  42.517   4.145  1.00  0.00     0.002 C 
HETATM   34  C   UNL     1      22.318  44.004   4.357  1.00  0.00     0.005 C 
ENDBRANCH  31  33
ENDBRANCH  14  31
BRANCH  13  35
HETATM   35  C   UNL     1      15.143  36.043  -0.415  1.00  0.00     0.014 C 
HETATM   36  C   UNL     1      15.107  34.514  -0.491  1.00  0.00     0.012 C 
BRANCH  35  37
HETATM   37  C   UNL     1      14.058  36.541   0.556  1.00  0.00     0.002 C 
HETATM   38  C   UNL     1      14.412  36.337   2.022  1.00  0.00     0.005 C 
ENDBRANCH  35  37
ENDBRANCH  13  35
BRANCH  17  39
HETATM   39  C   UNL     1      23.647  36.951   3.235  1.00  0.00     0.016 C 
HETATM   40  C   UNL     1      23.605  37.716   4.556  1.00  0.00     0.012 C 
HETATM   41  C   UNL     1      25.028  37.065   2.593  1.00  0.00     0.012 C 
ENDBRANCH  17  39
BRANCH  18  42
HETATM   42  C   UNL     1      19.719  37.144  -2.996  1.00  0.00     0.016 C 
HETATM   43  C   UNL     1      19.121  38.534  -2.784  1.00  0.00     0.012 C 
HETATM   44  C   UNL     1      21.049  37.243  -3.742  1.00  0.00     0.012 C 
ENDBRANCH  18  42
BRANCH  16  45
HETATM   45  C   UNL     1      20.598  33.622   1.704  1.00  0.00     0.010 C 
HETATM   46  C   UNL     1      19.533  33.984   2.738  1.00  0.00     0.012 C 
HETATM   47  C   UNL     1      21.944  33.383   2.386  1.00  0.00     0.012 C 
ENDBRANCH  16  45
TORSDOF 8
ENDMDL
MODEL 7
REMARK VINA RESULT:    -5.300      2.631      7.178
REMARK INTER + INTRA:          -6.895
REMARK INTER:                  -7.142
REMARK INTRA:                   0.246
REMARK UNBOUND:                 0.884
REMARK  8 active torsions:
REMARK  status: ('A' for Active; 'I' for Inactive)
REMARK    1  A    between atoms: C_13  and  C_15 
REMARK    2  A    between atoms: C_14  and  C_16 
REMARK    3  A    between atoms: C_15  and  C_22 
REMARK    4  A    between atoms: C_16  and  C_23 
REMARK    5  A    between atoms: C_17  and  C_21 
REMARK    6  A    between atoms: C_18  and  C_24 
REMARK    7  A    between atoms: C_19  and  C_27 
REMARK    8  A    between atoms: C_20  and  C_30 
ROOT
HETATM    1  O   UNL     1      19.791  37.476  -3.486  1.00  0.00    -0.304 OA
HETATM    2  O   UNL     1      17.333  37.686   0.681  1.00  0.00    -0.304 OA
HETATM    3  O   UNL     1      15.706  40.150  -2.098  1.00  0.00    -0.304 OA
HETATM    4  O   UNL     1      17.553  36.698  -2.335  1.00  0.00    -0.270 OA
HETATM    5  O   UNL     1      20.176  39.217  -2.020  1.00  0.00    -0.263 OA
HETATM    6  O   UNL     1      16.860  39.302  -4.257  1.00  0.00    -0.270 OA
HETATM    7  O   UNL     1      16.195  36.296   2.120  1.00  0.00    -0.263 OA
HETATM    8  O   UNL     1      15.641  39.118   3.322  1.00  0.00    -0.270 OA
HETATM    9  O   UNL     1      15.205  41.565  -0.345  1.00  0.00    -0.263 OA
HETATM   10  N   UNL     1      18.544  35.654  -0.516  1.00  0.00    -0.340 N 
HETATM   11  N   UNL     1      18.670  40.701  -3.868  1.00  0.00    -0.340 N 
HETATM   12  N   UNL     1      14.653  39.343   1.237  1.00  0.00    -0.340 N 
HETATM   13  C   UNL     1      17.234  35.380   0.120  1.00  0.00     0.190 C 
HETATM   14  C   UNL     1      19.612  39.670  -4.346  1.00  0.00     0.190 C 
HETATM   15  C   UNL     1      19.937  36.506  -2.430  1.00  0.00     0.227 C 
HETATM   16  C   UNL     1      14.684  39.179  -0.232  1.00  0.00     0.190 C 
HETATM   17  C   UNL     1      16.451  41.159  -2.812  1.00  0.00     0.227 C 
HETATM   18  C   UNL     1      17.128  38.876   1.448  1.00  0.00     0.227 C 
HETATM   19  C   UNL     1      18.573  36.302  -1.760  1.00  0.00     0.250 C 
HETATM   20  C   UNL     1      19.901  38.793  -3.135  1.00  0.00     0.283 C 
HETATM   21  C   UNL     1      17.328  40.319  -3.732  1.00  0.00     0.250 C 
HETATM   22  C   UNL     1      16.884  36.478   1.125  1.00  0.00     0.283 C 
HETATM   23  C   UNL     1      15.742  39.104   2.091  1.00  0.00     0.250 C 
HETATM   24  C   UNL     1      15.213  40.458  -0.862  1.00  0.00     0.283 C 
HETATM   25  C   UNL     1      19.735  35.284   0.256  1.00  0.00     0.153 C 
HETATM   26  C   UNL     1      19.197  41.996  -3.432  1.00  0.00     0.153 C 
HETATM   27  C   UNL     1      13.396  39.785   1.842  1.00  0.00     0.153 C 
ENDROOT
BRANCH  15  28
HETATM   28  C   UNL     1      20.402  35.209  -3.078  1.00  0.00     0.016 C 
HETATM   29  C   UNL     1      20.273  35.289  -4.598  1.00  0.00     0.012 C 
HETATM   30  C   UNL     1      21.843  34.893  -2.680  1.00  0.00     0.012 C 
ENDBRANCH  15  28
BRANCH  14  31
HETATM   31  C   UNL     1      20.921  40.168  -4.944  1.00  0.00     0.014 C 
HETATM   32  C   UNL     1      22.001  39.094  -4.793  1.00  0.00     0.012 C 
BRANCH  31  33
HETATM   33  C   UNL     1      20.776  40.558  -6.426  1.00  0.00     0.002 C 
HETATM   34  C   UNL     1      19.731  39.739  -7.171  1.00  0.00     0.005 C 
ENDBRANCH  31  33
ENDBRANCH  14  31
BRANCH  13  35
HETATM   35  C   UNL     1      17.145  33.993   0.754  1.00  0.00     0.014 C 
HETATM   36  C   UNL     1      15.690  33.678   1.111  1.00  0.00     0.012 C 
BRANCH  35  37
HETATM   37  C   UNL     1      17.705  32.891  -0.164  1.00  0.00     0.002 C 
HETATM   38  C   UNL     1      16.821  32.593  -1.367  1.00  0.00     0.005 C 
ENDBRANCH  35  37
ENDBRANCH  13  35
BRANCH  17  39
HETATM   39  C   UNL     1      15.509  42.034  -3.620  1.00  0.00     0.016 C 
HETATM   40  C   UNL     1      15.794  41.893  -5.113  1.00  0.00     0.012 C 
HETATM   41  C   UNL     1      15.628  43.494  -3.186  1.00  0.00     0.012 C 
ENDBRANCH  17  39
BRANCH  18  42
HETATM   42  C   UNL     1      18.246  38.952   2.488  1.00  0.00     0.016 C 
HETATM   43  C   UNL     1      19.456  38.131   2.042  1.00  0.00     0.012 C 
HETATM   44  C   UNL     1      18.649  40.403   2.743  1.00  0.00     0.012 C 
ENDBRANCH  18  42
BRANCH  16  45
HETATM   45  C   UNL     1      13.350  38.795  -0.868  1.00  0.00     0.010 C 
HETATM   46  C   UNL     1      13.488  37.507  -1.678  1.00  0.00     0.012 C 
HETATM   47  C   UNL     1      12.826  39.927  -1.751  1.00  0.00     0.012 C 
ENDBRANCH  16  45
TORSDOF 8
ENDMDL
MODEL 8
REMARK VINA RESULT:    -5.230      2.484      7.034
REMARK INTER + INTRA:          -6.792
REMARK INTER:                  -7.475
REMARK INTRA:                   0.682
REMARK UNBOUND:                 0.884
REMARK  8 active torsions:
REMARK  status: ('A' for Active; 'I' for Inactive)
REMARK    1  A    between atoms: C_13  and  C_15 
REMARK    2  A    between atoms: C_14  and  C_16 
REMARK    3  A    between atoms: C_15  and  C_22 
REMARK    4  A    between atoms: C_16  and  C_23 
REMARK    5  A    between atoms: C_17  and  C_21 
REMARK    6  A    between atoms: C_18  and  C_24 
REMARK    7  A    between atoms: C_19  and  C_27 
REMARK    8  A    between atoms: C_20  and  C_30 
ROOT
HETATM    1  O   UNL     1      17.423  40.898  -2.169  1.00  0.00    -0.304 OA
HETATM    2  O   UNL     1      16.400  37.177   0.756  1.00  0.00    -0.304 OA
HETATM    3  O   UNL     1      20.395  37.490   0.138  1.00  0.00    -0.304 OA
HETATM    4  O   UNL     1      17.504  40.132   0.351  1.00  0.00    -0.270 OA
HETATM    5  O   UNL     1      17.356  38.757  -3.027  1.00  0.00    -0.263 OA
HETATM    6  O   UNL     1      20.558  39.860  -0.897  1.00  0.00    -0.270 OA
HETATM    7  O   UNL     1      15.348  36.756   2.759  1.00  0.00    -0.263 OA
HETATM    8  O   UNL     1      16.585  33.985   2.047  1.00  0.00    -0.270 OA
HETATM    9  O   UNL     1      20.449  35.186   0.244  1.00  0.00    -0.263 OA
HETATM   10  N   UNL     1      15.263  39.560   0.521  1.00  0.00    -0.340 N 
HETATM   11  N   UNL     1      20.154  38.992  -3.011  1.00  0.00    -0.340 N 
HETATM   12  N   UNL     1      18.504  35.272   2.232  1.00  0.00    -0.340 N 
HETATM   13  C   UNL     1      15.439  39.027   1.893  1.00  0.00     0.190 C 
HETATM   14  C   UNL     1      19.320  40.157  -3.367  1.00  0.00     0.190 C 
HETATM   15  C   UNL     1      16.144  40.722  -1.529  1.00  0.00     0.227 C 
HETATM   16  C   UNL     1      19.269  36.501   1.933  1.00  0.00     0.190 C 
HETATM   17  C   UNL     1      21.005  37.530  -1.170  1.00  0.00     0.227 C 
HETATM   18  C   UNL     1      16.750  35.815   0.495  1.00  0.00     0.227 C 
HETATM   19  C   UNL     1      16.370  40.110  -0.141  1.00  0.00     0.250 C 
HETATM   20  C   UNL     1      17.924  39.827  -2.854  1.00  0.00     0.283 C 
HETATM   21  C   UNL     1      20.583  38.902  -1.678  1.00  0.00     0.250 C 
HETATM   22  C   UNL     1      15.673  37.517   1.857  1.00  0.00     0.283 C 
HETATM   23  C   UNL     1      17.258  34.951   1.670  1.00  0.00     0.250 C 
HETATM   24  C   UNL     1      20.106  36.273   0.684  1.00  0.00     0.283 C 
HETATM   25  C   UNL     1      13.932  39.400  -0.076  1.00  0.00     0.153 C 
HETATM   26  C   UNL     1      20.363  37.938  -4.007  1.00  0.00     0.153 C 
HETATM   27  C   UNL     1      19.089  34.325   3.182  1.00  0.00     0.153 C 
ENDROOT
BRANCH  15  28
HETATM   28  C   UNL     1      15.517  42.104  -1.398  1.00  0.00     0.016 C 
HETATM   29  C   UNL     1      16.586  43.191  -1.492  1.00  0.00     0.012 C 
HETATM   30  C   UNL     1      14.445  42.314  -2.465  1.00  0.00     0.012 C 
ENDBRANCH  15  28
BRANCH  14  31
HETATM   31  C   UNL     1      19.254  40.520  -4.844  1.00  0.00     0.014 C 
HETATM   32  C   UNL     1      17.929  41.227  -5.143  1.00  0.00     0.012 C 
BRANCH  31  33
HETATM   33  C   UNL     1      20.431  41.410  -5.281  1.00  0.00     0.002 C 
HETATM   34  C   UNL     1      21.382  40.727  -6.254  1.00  0.00     0.005 C 
ENDBRANCH  31  33
ENDBRANCH  14  31
BRANCH  13  35
HETATM   35  C   UNL     1      14.296  39.394   2.838  1.00  0.00     0.014 C 
HETATM   36  C   UNL     1      14.188  40.917   2.955  1.00  0.00     0.012 C 
BRANCH  35  37
HETATM   37  C   UNL     1      12.946  38.811   2.382  1.00  0.00     0.002 C 
HETATM   38  C   UNL     1      11.769  39.261   3.235  1.00  0.00     0.005 C 
ENDBRANCH  35  37
ENDBRANCH  13  35
BRANCH  17  39
HETATM   39  C   UNL     1      22.516  37.444  -1.047  1.00  0.00     0.016 C 
HETATM   40  C   UNL     1      23.172  38.709  -1.595  1.00  0.00     0.012 C 
HETATM   41  C   UNL     1      23.043  36.208  -1.772  1.00  0.00     0.012 C 
ENDBRANCH  17  39
BRANCH  18  42
HETATM   42  C   UNL     1      15.561  35.159  -0.208  1.00  0.00     0.016 C 
HETATM   43  C   UNL     1      14.812  36.178  -1.068  1.00  0.00     0.012 C 
HETATM   44  C   UNL     1      16.020  33.977  -1.058  1.00  0.00     0.012 C 
ENDBRANCH  18  42
BRANCH  16  45
HETATM   45  C   UNL     1      20.155  37.004   3.071  1.00  0.00     0.010 C 
HETATM   46  C   UNL     1      19.851  38.468   3.386  1.00  0.00     0.012 C 
HETATM   47  C   UNL     1      21.633  36.829   2.725  1.00  0.00     0.012 C 
ENDBRANCH  16  45
TORSDOF 8
ENDMDL
MODEL 9
REMARK VINA RESULT:    -5.165      2.227      6.932
REMARK INTER + INTRA:          -6.697
REMARK INTER:                  -7.251
REMARK INTRA:                   0.554
REMARK UNBOUND:                 0.884
REMARK  8 active torsions:
REMARK  status: ('A' for Active; 'I' for Inactive)
REMARK    1  A    between atoms: C_13  and  C_15 
REMARK    2  A    between atoms: C_14  and  C_16 
REMARK    3  A    between atoms: C_15  and  C_22 
REMARK    4  A    between atoms: C_16  and  C_23 
REMARK    5  A    between atoms: C_17  and  C_21 
REMARK    6  A    between atoms: C_18  and  C_24 
REMARK    7  A    between atoms: C_19  and  C_27 
REMARK    8  A    between atoms: C_20  and  C_30 
ROOT
HETATM    1  O   UNL     1      16.857  39.392  -1.226  1.00  0.00    -0.304 OA
HETATM    2  O   UNL     1      20.884  38.062   1.111  1.00  0.00    -0.304 OA
HETATM    3  O   UNL     1      18.686  34.828   0.037  1.00  0.00    -0.304 OA
HETATM    4  O   UNL     1      19.246  38.348  -1.601  1.00  0.00    -0.270 OA
HETATM    5  O   UNL     1      16.749  38.847   1.014  1.00  0.00    -0.263 OA
HETATM    6  O   UNL     1      17.036  35.885  -1.659  1.00  0.00    -0.270 OA
HETATM    7  O   UNL     1      23.168  38.289   0.942  1.00  0.00    -0.263 OA
HETATM    8  O   UNL     1      22.858  36.310   3.330  1.00  0.00    -0.270 OA
HETATM    9  O   UNL     1      19.420  33.855   1.995  1.00  0.00    -0.263 OA
HETATM   10  N   UNL     1      20.440  40.055  -0.580  1.00  0.00    -0.340 N 
HETATM   11  N   UNL     1      15.598  36.469   0.065  1.00  0.00    -0.340 N 
HETATM   12  N   UNL     1      21.895  35.070   1.624  1.00  0.00    -0.340 N 
HETATM   13  C   UNL     1      21.722  39.325  -0.717  1.00  0.00     0.190 C 
HETATM   14  C   UNL     1      15.279  37.752  -0.590  1.00  0.00     0.190 C 
HETATM   15  C   UNL     1      17.969  40.280  -0.995  1.00  0.00     0.227 C 
HETATM   16  C   UNL     1      20.981  34.954   0.469  1.00  0.00     0.190 C 
HETATM   17  C   UNL     1      17.292  34.656   0.372  1.00  0.00     0.227 C 
HETATM   18  C   UNL     1      20.910  37.292   2.317  1.00  0.00     0.227 C 
HETATM   19  C   UNL     1      19.268  39.470  -1.084  1.00  0.00     0.250 C 
HETATM   20  C   UNL     1      16.369  38.717  -0.142  1.00  0.00     0.283 C 
HETATM   21  C   UNL     1      16.619  35.699  -0.511  1.00  0.00     0.250 C 
HETATM   22  C   UNL     1      22.033  38.540   0.557  1.00  0.00     0.283 C 
HETATM   23  C   UNL     1      21.987  36.194   2.461  1.00  0.00     0.250 C 
HETATM   24  C   UNL     1      19.627  34.463   0.956  1.00  0.00     0.283 C 
HETATM   25  C   UNL     1      20.486  41.325   0.153  1.00  0.00     0.153 C 
HETATM   26  C   UNL     1      14.949  36.141   1.337  1.00  0.00     0.153 C 
HETATM   27  C   UNL     1      22.768  33.932   1.913  1.00  0.00     0.153 C 
ENDROOT
BRANCH  15  28
HETATM   28  C   UNL     1      17.932  41.335  -2.093  1.00  0.00     0.016 C 
HETATM   29  C   UNL     1      17.138  40.832  -3.298  1.00  0.00     0.012 C 
HETATM   30  C   UNL     1      17.337  42.640  -1.567  1.00  0.00     0.012 C 
ENDBRANCH  15  28
BRANCH  14  31
HETATM   31  C   UNL     1      13.910  38.348  -0.290  1.00  0.00     0.014 C 
HETATM   32  C   UNL     1      14.076  39.715   0.377  1.00  0.00     0.012 C 
BRANCH  31  33
HETATM   33  C   UNL     1      13.043  38.485  -1.554  1.00  0.00     0.002 C 
HETATM   34  C   UNL     1      13.833  38.378  -2.850  1.00  0.00     0.005 C 
ENDBRANCH  31  33
ENDBRANCH  14  31
BRANCH  13  35
HETATM   35  C   UNL     1      22.891  40.222  -1.122  1.00  0.00     0.014 C 
HETATM   36  C   UNL     1      24.050  39.364  -1.636  1.00  0.00     0.012 C 
BRANCH  35  37
HETATM   37  C   UNL     1      22.495  41.256  -2.192  1.00  0.00     0.002 C 
HETATM   38  C   UNL     1      22.278  40.651  -3.572  1.00  0.00     0.005 C 
ENDBRANCH  35  37
ENDBRANCH  13  35
BRANCH  17  39
HETATM   39  C   UNL     1      16.832  33.259   0.000  1.00  0.00     0.016 C 
HETATM   40  C   UNL     1      16.829  33.080  -1.516  1.00  0.00     0.012 C 
HETATM   41  C   UNL     1      15.445  32.979   0.576  1.00  0.00     0.012 C 
ENDBRANCH  17  39
BRANCH  18  42
HETATM   42  C   UNL     1      20.952  38.274   3.489  1.00  0.00     0.016 C 
HETATM   43  C   UNL     1      20.091  39.502   3.196  1.00  0.00     0.012 C 
HETATM   44  C   UNL     1      20.494  37.595   4.778  1.00  0.00     0.012 C 
ENDBRANCH  18  42
BRANCH  16  45
HETATM   45  C   UNL     1      21.482  34.065  -0.667  1.00  0.00     0.010 C 
HETATM   46  C   UNL     1      21.454  34.818  -1.996  1.00  0.00     0.012 C 
HETATM   47  C   UNL     1      20.651  32.786  -0.761  1.00  0.00     0.012 C 
ENDBRANCH  16  45
TORSDOF 8
ENDMDL
MODEL 10
REMARK VINA RESULT:    -5.136      2.316      6.089
REMARK INTER + INTRA:          -6.655
REMARK INTER:                  -7.479
REMARK INTRA:                   0.824
REMARK UNBOUND:                 0.884
REMARK  8 active torsions:
REMARK  status: ('A' for Active; 'I' for Inactive)
REMARK    1  A    between atoms: C_13  and  C_15 
REMARK    2  A    between atoms: C_14  and  C_16 
REMARK    3  A    between atoms: C_15  and  C_22 
REMARK    4  A    between atoms: C_16  and  C_23 
REMARK    5  A    between atoms: C_17  and  C_21 
REMARK    6  A    between atoms: C_18  and  C_24 
REMARK    7  A    between atoms: C_19  and  C_27 
REMARK    8  A    between atoms: C_20  and  C_30 
ROOT
HETATM    1  O   UNL     1      16.332  36.283   0.188  1.00  0.00    -0.304 OA
HETATM    2  O   UNL     1      20.134  39.022   1.407  1.00  0.00    -0.304 OA
HETATM    3  O   UNL     1      20.979  36.702  -1.809  1.00  0.00    -0.304 OA
HETATM    4  O   UNL     1      17.690  38.420  -0.538  1.00  0.00    -0.270 OA
HETATM    5  O   UNL     1      18.049  35.366   1.428  1.00  0.00    -0.263 OA
HETATM    6  O   UNL     1      18.608  35.913  -2.495  1.00  0.00    -0.270 OA
HETATM    7  O   UNL     1      20.684  41.240   1.684  1.00  0.00    -0.263 OA
HETATM    8  O   UNL     1      23.432  39.811   2.032  1.00  0.00    -0.270 OA
HETATM    9  O   UNL     1      23.126  36.573  -0.976  1.00  0.00    -0.263 OA
HETATM   10  N   UNL     1      17.534  39.531   1.492  1.00  0.00    -0.340 N 
HETATM   11  N   UNL     1      18.739  34.142  -1.003  1.00  0.00    -0.340 N 
HETATM   12  N   UNL     1      22.922  39.223  -0.151  1.00  0.00    -0.340 N 
HETATM   13  C   UNL     1      18.422  40.625   1.033  1.00  0.00     0.190 C 
HETATM   14  C   UNL     1      17.317  34.301  -0.637  1.00  0.00     0.190 C 
HETATM   15  C   UNL     1      16.242  37.412   1.079  1.00  0.00     0.227 C 
HETATM   16  C   UNL     1      21.971  38.719  -1.165  1.00  0.00     0.190 C 
HETATM   17  C   UNL     1      20.810  35.268  -1.833  1.00  0.00     0.227 C 
HETATM   18  C   UNL     1      21.425  38.515   1.758  1.00  0.00     0.227 C 
HETATM   19  C   UNL     1      17.222  38.491   0.603  1.00  0.00     0.250 C 
HETATM   20  C   UNL     1      17.298  35.356   0.461  1.00  0.00     0.283 C 
HETATM   21  C   UNL     1      19.294  35.125  -1.835  1.00  0.00     0.250 C 
HETATM   22  C   UNL     1      19.867  40.357   1.455  1.00  0.00     0.283 C 
HETATM   23  C   UNL     1      22.673  39.257   1.230  1.00  0.00     0.250 C 
HETATM   24  C   UNL     1      22.134  37.213  -1.292  1.00  0.00     0.283 C 
HETATM   25  C   UNL     1      17.102  39.585   2.893  1.00  0.00     0.153 C 
HETATM   26  C   UNL     1      19.517  33.071  -0.375  1.00  0.00     0.153 C 
HETATM   27  C   UNL     1      24.213  39.723  -0.624  1.00  0.00     0.153 C 
ENDROOT
BRANCH  15  28
HETATM   28  C   UNL     1      14.812  37.930   0.999  1.00  0.00     0.016 C 
HETATM   29  C   UNL     1      14.072  37.291  -0.174  1.00  0.00     0.012 C 
HETATM   30  C   UNL     1      14.068  37.667   2.308  1.00  0.00     0.012 C 
ENDBRANCH  15  28
BRANCH  14  31
HETATM   31  C   UNL     1      16.593  33.049  -0.161  1.00  0.00     0.014 C 
HETATM   32  C   UNL     1      15.607  33.414   0.951  1.00  0.00     0.012 C 
BRANCH  31  33
HETATM   33  C   UNL     1      15.850  32.333  -1.303  1.00  0.00     0.002 C 
HETATM   34  C   UNL     1      16.575  32.404  -2.640  1.00  0.00     0.005 C 
ENDBRANCH  31  33
ENDBRANCH  14  31
BRANCH  13  35
HETATM   35  C   UNL     1      17.957  42.011   1.476  1.00  0.00     0.014 C 
HETATM   36  C   UNL     1      16.624  42.350   0.804  1.00  0.00     0.012 C 
BRANCH  35  37
HETATM   37  C   UNL     1      17.811  42.120   3.005  1.00  0.00     0.002 C 
HETATM   38  C   UNL     1      18.569  43.295   3.606  1.00  0.00     0.005 C 
ENDBRANCH  35  37
ENDBRANCH  13  35
BRANCH  17  39
HETATM   39  C   UNL     1      21.406  34.691  -3.104  1.00  0.00     0.016 C 
HETATM   40  C   UNL     1      20.320  34.044  -3.960  1.00  0.00     0.012 C 
HETATM   41  C   UNL     1      22.500  33.679  -2.772  1.00  0.00     0.012 C 
ENDBRANCH  17  39
BRANCH  18  42
HETATM   42  C   UNL     1      21.464  38.369   3.280  1.00  0.00     0.016 C 
HETATM   43  C   UNL     1      20.081  38.009   3.824  1.00  0.00     0.012 C 
HETATM   44  C   UNL     1      22.492  37.320   3.697  1.00  0.00     0.012 C 
ENDBRANCH  18  42
BRANCH  16  45
HETATM   45  C   UNL     1      22.083  39.375  -2.540  1.00  0.00     0.010 C 
HETATM   46  C   UNL     1      20.735  39.945  -2.978  1.00  0.00     0.012 C 
HETATM   47  C   UNL     1      22.603  38.378  -3.574  1.00  0.00     0.012 C 
ENDBRANCH  16  45
TORSDOF 8
ENDMDL
MODEL 11
REMARK VINA RESULT:    -5.118      2.158      8.200
REMARK INTER + INTRA:          -6.628
REMARK INTER:                  -6.997
REMARK INTRA:                   0.370
REMARK UNBOUND:                 0.884
REMARK  8 active torsions:
REMARK  status: ('A' for Active; 'I' for Inactive)
REMARK    1  A    between atoms: C_13  and  C_15 
REMARK    2  A    between atoms: C_14  and  C_16 
REMARK    3  A    between atoms: C_15  and  C_22 
REMARK    4  A    between atoms: C_16  and  C_23 
REMARK    5  A    between atoms: C_17  and  C_21 
REMARK    6  A    between atoms: C_18  and  C_24 
REMARK    7  A    between atoms: C_19  and  C_27 
REMARK    8  A    between atoms: C_20  and  C_30 
ROOT
HETATM    1  O   UNL     1      15.721  39.298   0.373  1.00  0.00    -0.304 OA
HETATM    2  O   UNL     1      19.922  36.950  -0.158  1.00  0.00    -0.304 OA
HETATM    3  O   UNL     1      20.320  40.097   2.367  1.00  0.00    -0.304 OA
HETATM    4  O   UNL     1      17.361  37.640   1.598  1.00  0.00    -0.270 OA
HETATM    5  O   UNL     1      17.317  40.127  -1.073  1.00  0.00    -0.263 OA
HETATM    6  O   UNL     1      17.839  40.663   2.857  1.00  0.00    -0.270 OA
HETATM    7  O   UNL     1      20.803  34.842   0.123  1.00  0.00    -0.263 OA
HETATM    8  O   UNL     1      23.317  36.538  -0.599  1.00  0.00    -0.270 OA
HETATM    9  O   UNL     1      22.447  40.338   1.506  1.00  0.00    -0.263 OA
HETATM   10  N   UNL     1      17.430  36.048  -0.088  1.00  0.00    -0.340 N 
HETATM   11  N   UNL     1      17.747  42.007   0.967  1.00  0.00    -0.340 N 
HETATM   12  N   UNL     1      22.662  37.567   1.373  1.00  0.00    -0.340 N 
HETATM   13  C   UNL     1      18.457  35.251   0.621  1.00  0.00     0.190 C 
HETATM   14  C   UNL     1      16.376  41.549   0.667  1.00  0.00     0.190 C 
HETATM   15  C   UNL     1      15.825  37.982  -0.206  1.00  0.00     0.227 C 
HETATM   16  C   UNL     1      21.619  38.157   2.238  1.00  0.00     0.190 C 
HETATM   17  C   UNL     1      19.938  41.449   2.033  1.00  0.00     0.227 C 
HETATM   18  C   UNL     1      21.132  37.543  -0.638  1.00  0.00     0.227 C 
HETATM   19  C   UNL     1      16.941  37.217   0.515  1.00  0.00     0.250 C 
HETATM   20  C   UNL     1      16.546  40.264  -0.132  1.00  0.00     0.283 C 
HETATM   21  C   UNL     1      18.418  41.357   2.013  1.00  0.00     0.250 C 
HETATM   22  C   UNL     1      19.858  35.620   0.132  1.00  0.00     0.283 C 
HETATM   23  C   UNL     1      22.461  37.153   0.047  1.00  0.00     0.250 C 
HETATM   24  C   UNL     1      21.553  39.655   1.982  1.00  0.00     0.283 C 
HETATM   25  C   UNL     1      17.051  35.583  -1.427  1.00  0.00     0.153 C 
HETATM   26  C   UNL     1      18.375  42.993   0.084  1.00  0.00     0.153 C 
HETATM   27  C   UNL     1      24.000  37.402   1.943  1.00  0.00     0.153 C 
ENDROOT
BRANCH  15  28
HETATM   28  C   UNL     1      14.487  37.291   0.015  1.00  0.00     0.016 C 
HETATM   29  C   UNL     1      13.702  37.979   1.130  1.00  0.00     0.012 C 
HETATM   30  C   UNL     1      13.671  37.267  -1.277  1.00  0.00     0.012 C 
ENDBRANCH  15  28
BRANCH  14  31
HETATM   31  C   UNL     1      15.487  42.518  -0.100  1.00  0.00     0.014 C 
HETATM   32  C   UNL     1      14.346  41.752  -0.772  1.00  0.00     0.012 C 
BRANCH  31  33
HETATM   33  C   UNL     1      14.913  43.625   0.802  1.00  0.00     0.002 C 
HETATM   34  C   UNL     1      14.539  43.140   2.197  1.00  0.00     0.005 C 
ENDBRANCH  31  33
ENDBRANCH  14  31
BRANCH  13  35
HETATM   35  C   UNL     1      18.216  33.744   0.543  1.00  0.00     0.014 C 
HETATM   36  C   UNL     1      19.245  33.008   1.407  1.00  0.00     0.012 C 
BRANCH  35  37
HETATM   37  C   UNL     1      16.794  33.353   0.982  1.00  0.00     0.002 C 
HETATM   38  C   UNL     1      16.025  32.569  -0.071  1.00  0.00     0.005 C 
ENDBRANCH  35  37
ENDBRANCH  13  35
BRANCH  17  39
HETATM   39  C   UNL     1      20.405  42.408   3.113  1.00  0.00     0.016 C 
HETATM   40  C   UNL     1      19.219  43.158   3.714  1.00  0.00     0.012 C 
HETATM   41  C   UNL     1      21.432  43.390   2.552  1.00  0.00     0.012 C 
ENDBRANCH  17  39
BRANCH  18  42
HETATM   42  C   UNL     1      21.192  37.309  -2.148  1.00  0.00     0.016 C 
HETATM   43  C   UNL     1      19.795  37.387  -2.763  1.00  0.00     0.012 C 
HETATM   44  C   UNL     1      22.126  38.318  -2.814  1.00  0.00     0.012 C 
ENDBRANCH  18  42
BRANCH  16  45
HETATM   45  C   UNL     1      21.788  37.888   3.732  1.00  0.00     0.010 C 
HETATM   46  C   UNL     1      20.457  37.480   4.362  1.00  0.00     0.012 C 
HETATM   47  C   UNL     1      22.361  39.115   4.441  1.00  0.00     0.012 C 
ENDBRANCH  16  45
TORSDOF 8
ENDMDL
MODEL 12
REMARK VINA RESULT:    -5.072      1.961      6.529
REMARK INTER + INTRA:          -6.561
REMARK INTER:                  -7.812
REMARK INTRA:                   1.251
REMARK UNBOUND:                 0.884
REMARK  8 active torsions:
REMARK  status: ('A' for Active; 'I' for Inactive)
REMARK    1  A    between atoms: C_13  and  C_15 
REMARK    2  A    between atoms: C_14  and  C_16 
REMARK    3  A    between atoms: C_15  and  C_22 
REMARK    4  A    between atoms: C_16  and  C_23 
REMARK    5  A    between atoms: C_17  and  C_21 
REMARK    6  A    between atoms: C_18  and  C_24 
REMARK    7  A    between atoms: C_19  and  C_27 
REMARK    8  A    between atoms: C_20  and  C_30 
ROOT
HETATM    1  O   UNL     1      17.017  40.189   1.370  1.00  0.00    -0.304 OA
HETATM    2  O   UNL     1      21.397  38.321   2.249  1.00  0.00    -0.304 OA
HETATM    3  O   UNL     1      19.088  35.712   0.175  1.00  0.00    -0.304 OA
HETATM    4  O   UNL     1      19.321  39.627   0.223  1.00  0.00    -0.270 OA
HETATM    5  O   UNL     1      17.296  38.709   3.118  1.00  0.00    -0.263 OA
HETATM    6  O   UNL     1      17.163  37.260  -0.608  1.00  0.00    -0.270 OA
HETATM    7  O   UNL     1      23.617  38.795   1.868  1.00  0.00    -0.263 OA
HETATM    8  O   UNL     1      23.738  35.950   3.135  1.00  0.00    -0.270 OA
HETATM    9  O   UNL     1      20.154  34.044   1.360  1.00  0.00    -0.263 OA
HETATM   10  N   UNL     1      20.649  40.808   1.715  1.00  0.00    -0.340 N 
HETATM   11  N   UNL     1      16.030  36.900   1.385  1.00  0.00    -0.340 N 
HETATM   12  N   UNL     1      22.517  35.508   1.215  1.00  0.00    -0.340 N 
HETATM   13  C   UNL     1      21.899  40.326   1.079  1.00  0.00     0.190 C 
HETATM   14  C   UNL     1      15.589  38.308   1.428  1.00  0.00     0.190 C 
HETATM   15  C   UNL     1      18.141  40.978   1.809  1.00  0.00     0.227 C 
HETATM   16  C   UNL     1      21.421  35.833   0.277  1.00  0.00     0.190 C 
HETATM   17  C   UNL     1      17.774  35.290   0.597  1.00  0.00     0.227 C 
HETATM   18  C   UNL     1      21.636  37.105   2.964  1.00  0.00     0.227 C 
HETATM   19  C   UNL     1      19.416  40.405   1.179  1.00  0.00     0.250 C 
HETATM   20  C   UNL     1      16.728  39.067   2.095  1.00  0.00     0.283 C 
HETATM   21  C   UNL     1      16.948  36.553   0.383  1.00  0.00     0.250 C 
HETATM   22  C   UNL     1      22.430  39.091   1.807  1.00  0.00     0.283 C 
HETATM   23  C   UNL     1      22.735  36.153   2.443  1.00  0.00     0.250 C 
HETATM   24  C   UNL     1      20.175  35.063   0.685  1.00  0.00     0.283 C 
HETATM   25  C   UNL     1      20.804  41.625   2.923  1.00  0.00     0.153 C 
HETATM   26  C   UNL     1      15.609  35.991   2.454  1.00  0.00     0.153 C 
HETATM   27  C   UNL     1      23.440  34.439   0.833  1.00  0.00     0.153 C 
ENDROOT
BRANCH  15  28
HETATM   28  C   UNL     1      17.906  42.400   1.319  1.00  0.00     0.016 C 
HETATM   29  C   UNL     1      16.835  42.426   0.230  1.00  0.00     0.012 C 
HETATM   30  C   UNL     1      17.512  43.313   2.479  1.00  0.00     0.012 C 
ENDBRANCH  15  28
BRANCH  14  31
HETATM   31  C   UNL     1      14.284  38.590   2.159  1.00  0.00     0.014 C 
HETATM   32  C   UNL     1      14.304  40.013   2.721  1.00  0.00     0.012 C 
BRANCH  31  33
HETATM   33  C   UNL     1      13.054  38.405   1.252  1.00  0.00     0.002 C 
HETATM   34  C   UNL     1      13.357  38.581  -0.230  1.00  0.00     0.005 C 
ENDBRANCH  31  33
ENDBRANCH  14  31
BRANCH  13  35
HETATM   35  C   UNL     1      22.971  41.407   0.954  1.00  0.00     0.014 C 
HETATM   36  C   UNL     1      24.003  40.995  -0.100  1.00  0.00     0.012 C 
BRANCH  35  37
HETATM   37  C   UNL     1      22.380  42.782   0.592  1.00  0.00     0.002 C 
HETATM   38  C   UNL     1      23.285  43.949   0.959  1.00  0.00     0.005 C 
ENDBRANCH  35  37
ENDBRANCH  13  35
BRANCH  17  39
HETATM   39  C   UNL     1      17.274  34.165  -0.290  1.00  0.00     0.016 C 
HETATM   40  C   UNL     1      15.989  34.575  -1.005  1.00  0.00     0.012 C 
HETATM   41  C   UNL     1      17.050  32.895   0.529  1.00  0.00     0.012 C 
ENDBRANCH  17  39
BRANCH  18  42
HETATM   42  C   UNL     1      21.863  37.471   4.432  1.00  0.00     0.016 C 
HETATM   43  C   UNL     1      22.767  38.698   4.549  1.00  0.00     0.012 C 
HETATM   44  C   UNL     1      20.533  37.718   5.139  1.00  0.00     0.012 C 
ENDBRANCH  18  42
BRANCH  16  45
HETATM   45  C   UNL     1      21.734  35.580  -1.196  1.00  0.00     0.010 C 
HETATM   46  C   UNL     1      21.514  36.848  -2.021  1.00  0.00     0.012 C 
HETATM   47  C   UNL     1      20.883  34.434  -1.742  1.00  0.00     0.012 C 
ENDBRANCH  16  45
TORSDOF 8
ENDMDL
MODEL 13
REMARK VINA RESULT:    -5.056      2.846      7.737
REMARK INTER + INTRA:          -6.537
REMARK INTER:                  -7.703
REMARK INTRA:                   1.166
REMARK UNBOUND:                 0.884
REMARK  8 active torsions:
REMARK  status: ('A' for Active; 'I' for Inactive)
REMARK    1  A    between atoms: C_13  and  C_15 
REMARK    2  A    between atoms: C_14  and  C_16 
REMARK    3  A    between atoms: C_15  and  C_22 
REMARK    4  A    between atoms: C_16  and  C_23 
REMARK    5  A    between atoms: C_17  and  C_21 
REMARK    6  A    between atoms: C_18  and  C_24 
REMARK    7  A    between atoms: C_19  and  C_27 
REMARK    8  A    between atoms: C_20  and  C_30 
ROOT
HETATM    1  O   UNL     1      20.770  37.200  -3.552  1.00  0.00    -0.304 OA
HETATM    2  O   UNL     1      18.451  35.095   0.141  1.00  0.00    -0.304 OA
HETATM    3  O   UNL     1      16.843  38.717  -0.716  1.00  0.00    -0.304 OA
HETATM    4  O   UNL     1      18.537  35.951  -2.921  1.00  0.00    -0.270 OA
HETATM    5  O   UNL     1      21.271  37.822  -1.387  1.00  0.00    -0.263 OA
HETATM    6  O   UNL     1      17.894  39.196  -3.036  1.00  0.00    -0.270 OA
HETATM    7  O   UNL     1      17.301  33.159   0.618  1.00  0.00    -0.263 OA
HETATM    8  O   UNL     1      16.902  34.842   3.211  1.00  0.00    -0.270 OA
HETATM    9  O   UNL     1      16.456  38.925   1.549  1.00  0.00    -0.263 OA
HETATM   10  N   UNL     1      19.540  34.054  -2.040  1.00  0.00    -0.340 N 
HETATM   11  N   UNL     1      19.772  40.109  -2.024  1.00  0.00    -0.340 N 
HETATM   12  N   UNL     1      15.861  36.208   1.654  1.00  0.00    -0.340 N 
HETATM   13  C   UNL     1      18.240  33.495  -1.601  1.00  0.00     0.190 C 
HETATM   14  C   UNL     1      20.656  39.503  -3.039  1.00  0.00     0.190 C 
HETATM   15  C   UNL     1      20.908  35.803  -3.223  1.00  0.00     0.227 C 
HETATM   16  C   UNL     1      15.840  36.890   0.342  1.00  0.00     0.190 C 
HETATM   17  C   UNL     1      17.607  39.940  -0.785  1.00  0.00     0.227 C 
HETATM   18  C   UNL     1      18.319  35.660   1.449  1.00  0.00     0.227 C 
HETATM   19  C   UNL     1      19.558  35.285  -2.714  1.00  0.00     0.250 C 
HETATM   20  C   UNL     1      20.945  38.096  -2.534  1.00  0.00     0.283 C 
HETATM   21  C   UNL     1      18.420  39.739  -2.057  1.00  0.00     0.250 C 
HETATM   22  C   UNL     1      17.966  33.853  -0.140  1.00  0.00     0.283 C 
HETATM   23  C   UNL     1      16.964  35.515   2.177  1.00  0.00     0.250 C 
HETATM   24  C   UNL     1      16.402  38.293   0.504  1.00  0.00     0.283 C 
HETATM   25  C   UNL     1      20.738  33.296  -1.663  1.00  0.00     0.153 C 
HETATM   26  C   UNL     1      20.366  40.933  -0.967  1.00  0.00     0.153 C 
HETATM   27  C   UNL     1      14.642  36.259   2.462  1.00  0.00     0.153 C 
ENDROOT
BRANCH  15  28
HETATM   28  C   UNL     1      21.299  35.080  -4.504  1.00  0.00     0.016 C 
HETATM   29  C   UNL     1      20.884  35.892  -5.730  1.00  0.00     0.012 C 
HETATM   30  C   UNL     1      22.801  34.801  -4.530  1.00  0.00     0.012 C 
ENDBRANCH  15  28
BRANCH  14  31
HETATM   31  C   UNL     1      21.965  40.228  -3.321  1.00  0.00     0.014 C 
HETATM   32  C   UNL     1      22.951  39.270  -3.995  1.00  0.00     0.012 C 
BRANCH  31  33
HETATM   33  C   UNL     1      21.765  41.475  -4.201  1.00  0.00     0.002 C 
HETATM   34  C   UNL     1      23.054  42.238  -4.477  1.00  0.00     0.005 C 
ENDBRANCH  31  33
ENDBRANCH  14  31
BRANCH  13  35
HETATM   35  C   UNL     1      18.113  31.992  -1.842  1.00  0.00     0.014 C 
HETATM   36  C   UNL     1      16.661  31.640  -2.176  1.00  0.00     0.012 C 
BRANCH  35  37
HETATM   37  C   UNL     1      19.039  31.497  -2.968  1.00  0.00     0.002 C 
HETATM   38  C   UNL     1      18.938  30.001  -3.226  1.00  0.00     0.005 C 
ENDBRANCH  35  37
ENDBRANCH  13  35
BRANCH  17  39
HETATM   39  C   UNL     1      16.678  41.133  -0.923  1.00  0.00     0.016 C 
HETATM   40  C   UNL     1      16.717  41.992   0.338  1.00  0.00     0.012 C 
HETATM   41  C   UNL     1      15.252  40.671  -1.214  1.00  0.00     0.012 C 
ENDBRANCH  17  39
BRANCH  18  42
HETATM   42  C   UNL     1      19.471  35.124   2.300  1.00  0.00     0.016 C 
HETATM   43  C   UNL     1      20.681  34.794   1.426  1.00  0.00     0.012 C 
HETATM   44  C   UNL     1      19.854  36.128   3.386  1.00  0.00     0.012 C 
ENDBRANCH  18  42
BRANCH  16  45
HETATM   45  C   UNL     1      14.472  36.949  -0.335  1.00  0.00     0.010 C 
HETATM   46  C   UNL     1      13.503  37.806   0.479  1.00  0.00     0.012 C 
HETATM   47  C   UNL     1      13.905  35.543  -0.532  1.00  0.00     0.012 C 
ENDBRANCH  16  45
TORSDOF 8
ENDMDL
MODEL 14
REMARK VINA RESULT:    -5.055      2.801      7.070
REMARK INTER + INTRA:          -6.535
REMARK INTER:                  -7.136
REMARK INTRA:                   0.601
REMARK UNBOUND:                 0.884
REMARK  8 active torsions:
REMARK  status: ('A' for Active; 'I' for Inactive)
REMARK    1  A    between atoms: C_13  and  C_15 
REMARK    2  A    between atoms: C_14  and  C_16 
REMARK    3  A    between atoms: C_15  and  C_22 
REMARK    4  A    between atoms: C_16  and  C_23 
REMARK    5  A    between atoms: C_17  and  C_21 
REMARK    6  A    between atoms: C_18  and  C_24 
REMARK    7  A    between atoms: C_19  and  C_27 
REMARK    8  A    between atoms: C_20  and  C_30 
ROOT
HETATM    1  O   UNL     1      18.074  38.698   0.438  1.00  0.00    -0.304 OA
HETATM    2  O   UNL     1      22.010  36.110  -0.682  1.00  0.00    -0.304 OA
HETATM    3  O   UNL     1      18.636  33.913  -1.159  1.00  0.00    -0.304 OA
HETATM    4  O   UNL     1      19.430  37.729  -1.601  1.00  0.00    -0.270 OA
HETATM    5  O   UNL     1      18.942  37.216   1.980  1.00  0.00    -0.263 OA
HETATM    6  O   UNL     1      16.820  35.760  -1.083  1.00  0.00    -0.270 OA
HETATM    7  O   UNL     1      23.814  36.186  -2.110  1.00  0.00    -0.263 OA
HETATM    8  O   UNL     1      24.115  33.381  -0.785  1.00  0.00    -0.270 OA
HETATM    9  O   UNL     1      19.885  32.102  -0.465  1.00  0.00    -0.263 OA
HETATM   10  N   UNL     1      21.469  38.681  -1.035  1.00  0.00    -0.340 N 
HETATM   11  N   UNL     1      16.749  35.631   1.232  1.00  0.00    -0.340 N 
HETATM   12  N   UNL     1      22.070  33.131  -1.848  1.00  0.00    -0.340 N 
HETATM   13  C   UNL     1      22.172  37.981  -2.136  1.00  0.00     0.190 C 
HETATM   14  C   UNL     1      16.594  37.094   1.343  1.00  0.00     0.190 C 
HETATM   15  C   UNL     1      19.372  39.286   0.217  1.00  0.00     0.227 C 
HETATM   16  C   UNL     1      20.719  33.628  -2.183  1.00  0.00     0.190 C 
HETATM   17  C   UNL     1      17.642  33.732  -0.128  1.00  0.00     0.227 C 
HETATM   18  C   UNL     1      22.384  34.881  -0.051  1.00  0.00     0.227 C 
HETATM   19  C   UNL     1      20.087  38.492  -0.883  1.00  0.00     0.250 C 
HETATM   20  C   UNL     1      18.010  37.654   1.318  1.00  0.00     0.283 C 
HETATM   21  C   UNL     1      17.009  35.115  -0.046  1.00  0.00     0.250 C 
HETATM   22  C   UNL     1      22.802  36.683  -1.631  1.00  0.00     0.283 C 
HETATM   23  C   UNL     1      22.944  33.745  -0.936  1.00  0.00     0.250 C 
HETATM   24  C   UNL     1      19.726  33.092  -1.163  1.00  0.00     0.283 C 
HETATM   25  C   UNL     1      22.303  39.476  -0.128  1.00  0.00     0.153 C 
HETATM   26  C   UNL     1      16.768  34.824   2.455  1.00  0.00     0.153 C 
HETATM   27  C   UNL     1      22.527  31.913  -2.516  1.00  0.00     0.153 C 
ENDROOT
BRANCH  15  28
HETATM   28  C   UNL     1      19.139  40.720  -0.239  1.00  0.00     0.016 C 
HETATM   29  C   UNL     1      17.713  40.898  -0.756  1.00  0.00     0.012 C 
HETATM   30  C   UNL     1      19.422  41.700   0.899  1.00  0.00     0.012 C 
ENDBRANCH  15  28
BRANCH  14  31
HETATM   31  C   UNL     1      15.859  37.609   2.574  1.00  0.00     0.014 C 
HETATM   32  C   UNL     1      16.120  39.108   2.741  1.00  0.00     0.012 C 
BRANCH  31  33
HETATM   33  C   UNL     1      14.345  37.347   2.503  1.00  0.00     0.002 C 
HETATM   34  C   UNL     1      13.504  38.616   2.542  1.00  0.00     0.005 C 
ENDBRANCH  31  33
ENDBRANCH  14  31
BRANCH  13  35
HETATM   35  C   UNL     1      23.195  38.857  -2.856  1.00  0.00     0.014 C 
HETATM   36  C   UNL     1      23.512  38.262  -4.231  1.00  0.00     0.012 C 
BRANCH  35  37
HETATM   37  C   UNL     1      22.714  40.311  -3.017  1.00  0.00     0.002 C 
HETATM   38  C   UNL     1      21.760  40.510  -4.185  1.00  0.00     0.005 C 
ENDBRANCH  35  37
ENDBRANCH  13  35
BRANCH  17  39
HETATM   39  C   UNL     1      16.619  32.698  -0.560  1.00  0.00     0.016 C 
HETATM   40  C   UNL     1      16.496  32.668  -2.082  1.00  0.00     0.012 C 
HETATM   41  C   UNL     1      15.263  32.983   0.082  1.00  0.00     0.012 C 
ENDBRANCH  17  39
BRANCH  18  42
HETATM   42  C   UNL     1      23.341  35.223   1.092  1.00  0.00     0.016 C 
HETATM   43  C   UNL     1      22.834  36.432   1.878  1.00  0.00     0.012 C 
HETATM   44  C   UNL     1      23.526  34.022   2.018  1.00  0.00     0.012 C 
ENDBRANCH  18  42
BRANCH  16  45
HETATM   45  C   UNL     1      20.242  33.305  -3.597  1.00  0.00     0.010 C 
HETATM   46  C   UNL     1      19.403  34.451  -4.161  1.00  0.00     0.012 C 
HETATM   47  C   UNL     1      19.445  32.001  -3.615  1.00  0.00     0.012 C 
ENDBRANCH  16  45
TORSDOF 8
ENDMDL
MODEL 15
REMARK VINA RESULT:    -4.977      2.367      5.872
REMARK INTER + INTRA:          -6.421
REMARK INTER:                  -6.900
REMARK INTRA:                   0.479
REMARK UNBOUND:                 0.884
REMARK  8 active torsions:
REMARK  status: ('A' for Active; 'I' for Inactive)
REMARK    1  A    between atoms: C_13  and  C_15 
REMARK    2  A    between atoms: C_14  and  C_16 
REMARK    3  A    between atoms: C_15  and  C_22 
REMARK    4  A    between atoms: C_16  and  C_23 
REMARK    5  A    between atoms: C_17  and  C_21 
REMARK    6  A    between atoms: C_18  and  C_24 
REMARK    7  A    between atoms: C_19  and  C_27 
REMARK    8  A    between atoms: C_20  and  C_30 
ROOT
HETATM    1  O   UNL     1      17.704  34.887  -0.397  1.00  0.00    -0.304 OA
HETATM    2  O   UNL     1      18.266  39.497   0.974  1.00  0.00    -0.304 OA
HETATM    3  O   UNL     1      20.306  38.734  -2.446  1.00  0.00    -0.304 OA
HETATM    4  O   UNL     1      16.950  37.346  -0.965  1.00  0.00    -0.270 OA
HETATM    5  O   UNL     1      19.620  35.519   0.724  1.00  0.00    -0.263 OA
HETATM    6  O   UNL     1      19.275  36.462  -3.149  1.00  0.00    -0.270 OA
HETATM    7  O   UNL     1      16.995  41.361   1.429  1.00  0.00    -0.263 OA
HETATM    8  O   UNL     1      19.904  42.466   1.597  1.00  0.00    -0.270 OA
HETATM    9  O   UNL     1      21.886  40.225  -1.671  1.00  0.00    -0.263 OA
HETATM   10  N   UNL     1      16.175  37.878   1.156  1.00  0.00    -0.340 N 
HETATM   11  N   UNL     1      20.801  35.330  -1.817  1.00  0.00    -0.340 N 
HETATM   12  N   UNL     1      19.836  41.785  -0.618  1.00  0.00    -0.340 N 
HETATM   13  C   UNL     1      15.909  39.284   0.774  1.00  0.00     0.190 C 
HETATM   14  C   UNL     1      19.771  34.353  -1.409  1.00  0.00     0.190 C 
HETATM   15  C   UNL     1      16.871  35.527   0.590  1.00  0.00     0.227 C 
HETATM   16  C   UNL     1      19.505  40.782  -1.652  1.00  0.00     0.190 C 
HETATM   17  C   UNL     1      21.263  37.662  -2.590  1.00  0.00     0.227 C 
HETATM   18  C   UNL     1      19.525  40.116   1.254  1.00  0.00     0.227 C 
HETATM   19  C   UNL     1      16.676  36.994   0.188  1.00  0.00     0.250 C 
HETATM   20  C   UNL     1      19.057  34.989  -0.225  1.00  0.00     0.283 C 
HETATM   21  C   UNL     1      20.368  36.429  -2.572  1.00  0.00     0.250 C 
HETATM   22  C   UNL     1      17.096  40.175   1.142  1.00  0.00     0.283 C 
HETATM   23  C   UNL     1      19.754  41.564   0.766  1.00  0.00     0.250 C 
HETATM   24  C   UNL     1      20.728  39.916  -1.911  1.00  0.00     0.283 C 
HETATM   25  C   UNL     1      15.959  37.531   2.565  1.00  0.00     0.153 C 
HETATM   26  C   UNL     1      22.163  35.182  -1.299  1.00  0.00     0.153 C 
HETATM   27  C   UNL     1      20.279  43.104  -1.073  1.00  0.00     0.153 C 
ENDROOT
BRANCH  15  28
HETATM   28  C   UNL     1      15.534  34.799   0.584  1.00  0.00     0.016 C 
HETATM   29  C   UNL     1      15.475  33.789  -0.561  1.00  0.00     0.012 C 
HETATM   30  C   UNL     1      15.291  34.105   1.923  1.00  0.00     0.012 C 
ENDBRANCH  15  28
BRANCH  14  31
HETATM   31  C   UNL     1      20.265  32.964  -1.028  1.00  0.00     0.014 C 
HETATM   32  C   UNL     1      19.784  32.614   0.383  1.00  0.00     0.012 C 
BRANCH  31  33
HETATM   33  C   UNL     1      19.799  31.885  -2.021  1.00  0.00     0.002 C 
HETATM   34  C   UNL     1      18.285  31.790  -2.152  1.00  0.00     0.005 C 
ENDBRANCH  31  33
ENDBRANCH  14  31
BRANCH  13  35
HETATM   35  C   UNL     1      14.602  39.831   1.345  1.00  0.00     0.014 C 
HETATM   36  C   UNL     1      14.058  40.933   0.431  1.00  0.00     0.012 C 
BRANCH  35  37
HETATM   37  C   UNL     1      13.537  38.735   1.527  1.00  0.00     0.002 C 
HETATM   38  C   UNL     1      12.567  39.012   2.667  1.00  0.00     0.005 C 
ENDBRANCH  35  37
ENDBRANCH  13  35
BRANCH  17  39
HETATM   39  C   UNL     1      21.989  37.780  -3.918  1.00  0.00     0.016 C 
HETATM   40  C   UNL     1      21.692  36.571  -4.801  1.00  0.00     0.012 C 
HETATM   41  C   UNL     1      23.493  37.928  -3.696  1.00  0.00     0.012 C 
ENDBRANCH  17  39
BRANCH  18  42
HETATM   42  C   UNL     1      19.778  39.986   2.757  1.00  0.00     0.016 C 
HETATM   43  C   UNL     1      19.298  38.629   3.270  1.00  0.00     0.012 C 
HETATM   44  C   UNL     1      21.259  40.185   3.074  1.00  0.00     0.012 C 
ENDBRANCH  18  42
BRANCH  16  45
HETATM   45  C   UNL     1      18.982  41.356  -2.967  1.00  0.00     0.010 C 
HETATM   46  C   UNL     1      17.622  40.753  -3.316  1.00  0.00     0.012 C 
HETATM   47  C   UNL     1      19.980  41.112  -4.099  1.00  0.00     0.012 C 
ENDBRANCH  16  45
TORSDOF 8
ENDMDL
MODEL 16
REMARK VINA RESULT:    -4.801     13.759     16.564
REMARK INTER + INTRA:          -6.163
REMARK INTER:                  -6.581
REMARK INTRA:                   0.418
REMARK UNBOUND:                 0.884
REMARK  8 active torsions:
REMARK  status: ('A' for Active; 'I' for Inactive)
REMARK    1  A    between atoms: C_13  and  C_15 
REMARK    2  A    between atoms: C_14  and  C_16 
REMARK    3  A    between atoms: C_15  and  C_22 
REMARK    4  A    between atoms: C_16  and  C_23 
REMARK    5  A    between atoms: C_17  and  C_21 
REMARK    6  A    between atoms: C_18  and  C_24 
REMARK    7  A    between atoms: C_19  and  C_27 
REMARK    8  A    between atoms: C_20  and  C_30 
ROOT
HETATM    1  O   UNL     1       4.850  34.137  -3.038  1.00  0.00    -0.304 OA
HETATM    2  O   UNL     1       3.604  37.118  -6.645  1.00  0.00    -0.304 OA
HETATM    3  O   UNL     1       4.161  39.164  -3.189  1.00  0.00    -0.304 OA
HETATM    4  O   UNL     1       5.822  35.944  -4.691  1.00  0.00    -0.270 OA
HETATM    5  O   UNL     1       2.663  34.850  -3.225  1.00  0.00    -0.263 OA
HETATM    6  O   UNL     1       5.378  37.389  -1.746  1.00  0.00    -0.270 OA
HETATM    7  O   UNL     1       4.327  37.736  -8.741  1.00  0.00    -0.263 OA
HETATM    8  O   UNL     1       1.972  39.712  -8.224  1.00  0.00    -0.270 OA
HETATM    9  O   UNL     1       2.462  40.552  -3.902  1.00  0.00    -0.263 OA
HETATM   10  N   UNL     1       5.096  34.926  -6.645  1.00  0.00    -0.340 N 
HETATM   11  N   UNL     1       3.342  36.510  -1.065  1.00  0.00    -0.340 N 
HETATM   12  N   UNL     1       3.411  40.308  -6.507  1.00  0.00    -0.340 N 
HETATM   13  C   UNL     1       5.559  36.059  -7.480  1.00  0.00     0.190 C 
HETATM   14  C   UNL     1       3.874  35.135  -1.131  1.00  0.00     0.190 C 
HETATM   15  C   UNL     1       4.884  33.756  -4.428  1.00  0.00     0.227 C 
HETATM   16  C   UNL     1       4.306  39.947  -5.388  1.00  0.00     0.190 C 
HETATM   17  C   UNL     1       3.495  38.844  -1.949  1.00  0.00     0.227 C 
HETATM   18  C   UNL     1       2.456  37.972  -6.637  1.00  0.00     0.227 C 
HETATM   19  C   UNL     1       5.306  34.974  -5.258  1.00  0.00     0.250 C 
HETATM   20  C   UNL     1       3.692  34.700  -2.579  1.00  0.00     0.283 C 
HETATM   21  C   UNL     1       4.166  37.534  -1.554  1.00  0.00     0.250 C 
HETATM   22  C   UNL     1       4.415  37.041  -7.737  1.00  0.00     0.283 C 
HETATM   23  C   UNL     1       2.602  39.400  -7.208  1.00  0.00     0.250 C 
HETATM   24  C   UNL     1       3.509  39.952  -4.093  1.00  0.00     0.283 C 
HETATM   25  C   UNL     1       4.374  33.855  -7.339  1.00  0.00     0.153 C 
HETATM   26  C   UNL     1       1.956  36.714  -0.637  1.00  0.00     0.153 C 
HETATM   27  C   UNL     1       3.367  41.713  -6.912  1.00  0.00     0.153 C 
ENDROOT
BRANCH  15  28
HETATM   28  C   UNL     1       5.920  32.647  -4.560  1.00  0.00     0.016 C 
HETATM   29  C   UNL     1       7.330  33.231  -4.627  1.00  0.00     0.012 C 
HETATM   30  C   UNL     1       5.804  31.660  -3.400  1.00  0.00     0.012 C 
ENDBRANCH  15  28
BRANCH  14  31
HETATM   31  C   UNL     1       3.235  34.112  -0.202  1.00  0.00     0.014 C 
HETATM   32  C   UNL     1       3.664  32.701  -0.613  1.00  0.00     0.012 C 
BRANCH  31  33
HETATM   33  C   UNL     1       3.595  34.357   1.274  1.00  0.00     0.002 C 
HETATM   34  C   UNL     1       4.423  33.240   1.893  1.00  0.00     0.005 C 
ENDBRANCH  31  33
ENDBRANCH  14  31
BRANCH  13  35
HETATM   35  C   UNL     1       6.223  35.620  -8.784  1.00  0.00     0.014 C 
HETATM   36  C   UNL     1       6.922  36.815  -9.439  1.00  0.00     0.012 C 
BRANCH  35  37
HETATM   37  C   UNL     1       7.233  34.478  -8.573  1.00  0.00     0.002 C 
HETATM   38  C   UNL     1       8.474  34.898  -7.799  1.00  0.00     0.005 C 
ENDBRANCH  35  37
ENDBRANCH  13  35
BRANCH  17  39
HETATM   39  C   UNL     1       3.768  39.920  -0.914  1.00  0.00     0.016 C 
HETATM   40  C   UNL     1       4.648  39.375   0.208  1.00  0.00     0.012 C 
HETATM   41  C   UNL     1       2.457  40.467  -0.351  1.00  0.00     0.012 C 
ENDBRANCH  17  39
BRANCH  18  42
HETATM   42  C   UNL     1       1.313  37.213  -7.312  1.00  0.00     0.016 C 
HETATM   43  C   UNL     1       1.382  35.723  -6.980  1.00  0.00     0.012 C 
HETATM   44  C   UNL     1      -0.039  37.791  -6.897  1.00  0.00     0.012 C 
ENDBRANCH  18  42
BRANCH  16  45
HETATM   45  C   UNL     1       5.547  40.826  -5.242  1.00  0.00     0.010 C 
HETATM   46  C   UNL     1       6.819  39.981  -5.308  1.00  0.00     0.012 C 
HETATM   47  C   UNL     1       5.499  41.617  -3.936  1.00  0.00     0.012 C 
ENDBRANCH  16  45
TORSDOF 8
ENDMDL
MODEL 17
REMARK VINA RESULT:    -4.733      4.005      8.860
REMARK INTER + INTRA:          -6.063
REMARK INTER:                  -6.465
REMARK INTRA:                   0.402
REMARK UNBOUND:                 0.884
REMARK  8 active torsions:
REMARK  status: ('A' for Active; 'I' for Inactive)
REMARK    1  A    between atoms: C_13  and  C_15 
REMARK    2  A    between atoms: C_14  and  C_16 
REMARK    3  A    between atoms: C_15  and  C_22 
REMARK    4  A    between atoms: C_16  and  C_23 
REMARK    5  A    between atoms: C_17  and  C_21 
REMARK    6  A    between atoms: C_18  and  C_24 
REMARK    7  A    between atoms: C_19  and  C_27 
REMARK    8  A    between atoms: C_20  and  C_30 
ROOT
HETATM    1  O   UNL     1      15.203  45.138   4.971  1.00  0.00    -0.304 OA
HETATM    2  O   UNL     1      14.800  42.188   1.153  1.00  0.00    -0.304 OA
HETATM    3  O   UNL     1      18.645  42.416   2.420  1.00  0.00    -0.304 OA
HETATM    4  O   UNL     1      15.198  42.596   4.283  1.00  0.00    -0.270 OA
HETATM    5  O   UNL     1      15.745  45.915   2.866  1.00  0.00    -0.263 OA
HETATM    6  O   UNL     1      18.342  43.521   4.744  1.00  0.00    -0.270 OA
HETATM    7  O   UNL     1      13.673  40.284   0.516  1.00  0.00    -0.263 OA
HETATM    8  O   UNL     1      15.609  40.761  -1.880  1.00  0.00    -0.270 OA
HETATM    9  O   UNL     1      19.240  42.215   0.200  1.00  0.00    -0.263 OA
HETATM   10  N   UNL     1      13.155  42.628   3.184  1.00  0.00    -0.340 N 
HETATM   11  N   UNL     1      18.386  45.629   3.775  1.00  0.00    -0.340 N 
HETATM   12  N   UNL     1      17.132  40.436  -0.162  1.00  0.00    -0.340 N 
HETATM   13  C   UNL     1      13.307  41.226   2.729  1.00  0.00     0.190 C 
HETATM   14  C   UNL     1      17.339  46.111   4.697  1.00  0.00     0.190 C 
HETATM   15  C   UNL     1      13.943  44.624   4.497  1.00  0.00     0.227 C 
HETATM   16  C   UNL     1      17.606  40.704   1.212  1.00  0.00     0.190 C 
HETATM   17  C   UNL     1      19.363  43.656   2.590  1.00  0.00     0.227 C 
HETATM   18  C   UNL     1      15.494  42.359  -0.087  1.00  0.00     0.227 C 
HETATM   19  C   UNL     1      14.161  43.197   3.979  1.00  0.00     0.250 C 
HETATM   20  C   UNL     1      16.018  45.728   4.045  1.00  0.00     0.283 C 
HETATM   21  C   UNL     1      18.680  44.258   3.811  1.00  0.00     0.250 C 
HETATM   22  C   UNL     1      13.900  41.179   1.321  1.00  0.00     0.283 C 
HETATM   23  C   UNL     1      16.066  41.106  -0.785  1.00  0.00     0.250 C 
HETATM   24  C   UNL     1      18.601  41.854   1.177  1.00  0.00     0.283 C 
HETATM   25  C   UNL     1      11.973  43.348   2.697  1.00  0.00     0.153 C 
HETATM   26  C   UNL     1      18.947  46.557   2.791  1.00  0.00     0.153 C 
HETATM   27  C   UNL     1      17.822  39.396  -0.925  1.00  0.00     0.153 C 
ENDROOT
BRANCH  15  28
HETATM   28  C   UNL     1      12.992  44.609   5.687  1.00  0.00     0.016 C 
HETATM   29  C   UNL     1      13.770  44.673   7.000  1.00  0.00     0.012 C 
HETATM   30  C   UNL     1      11.999  45.767   5.598  1.00  0.00     0.012 C 
ENDBRANCH  15  28
BRANCH  14  31
HETATM   31  C   UNL     1      17.345  47.601   5.013  1.00  0.00     0.014 C 
HETATM   32  C   UNL     1      15.962  48.029   5.510  1.00  0.00     0.012 C 
BRANCH  31  33
HETATM   33  C   UNL     1      18.413  47.973   6.057  1.00  0.00     0.002 C 
HETATM   34  C   UNL     1      18.616  46.909   7.127  1.00  0.00     0.005 C 
ENDBRANCH  31  33
ENDBRANCH  14  31
BRANCH  13  35
HETATM   35  C   UNL     1      12.015  40.415   2.820  1.00  0.00     0.014 C 
HETATM   36  C   UNL     1      12.344  38.920   2.875  1.00  0.00     0.012 C 
BRANCH  35  37
HETATM   37  C   UNL     1      11.161  40.805   4.040  1.00  0.00     0.002 C 
HETATM   38  C   UNL     1       9.781  40.165   4.047  1.00  0.00     0.005 C 
ENDBRANCH  35  37
ENDBRANCH  13  35
BRANCH  17  39
HETATM   39  C   UNL     1      20.828  43.380   2.875  1.00  0.00     0.016 C 
HETATM   40  C   UNL     1      21.227  43.952   4.233  1.00  0.00     0.012 C 
HETATM   41  C   UNL     1      21.709  43.957   1.769  1.00  0.00     0.012 C 
ENDBRANCH  17  39
BRANCH  18  42
HETATM   42  C   UNL     1      14.578  43.151  -1.021  1.00  0.00     0.016 C 
HETATM   43  C   UNL     1      13.778  44.193  -0.239  1.00  0.00     0.012 C 
HETATM   44  C   UNL     1      15.387  43.820  -2.130  1.00  0.00     0.012 C 
ENDBRANCH  18  42
BRANCH  16  45
HETATM   45  C   UNL     1      18.219  39.504   1.931  1.00  0.00     0.010 C 
HETATM   46  C   UNL     1      17.199  38.858   2.869  1.00  0.00     0.012 C 
HETATM   47  C   UNL     1      19.470  39.918   2.705  1.00  0.00     0.012 C 
ENDBRANCH  16  45
TORSDOF 8
ENDMDL
MODEL 18
REMARK VINA RESULT:    -4.679      2.031      6.915
REMARK INTER + INTRA:          -5.984
REMARK INTER:                  -6.931
REMARK INTRA:                   0.947
REMARK UNBOUND:                 0.884
REMARK  8 active torsions:
REMARK  status: ('A' for Active; 'I' for Inactive)
REMARK    1  A    between atoms: C_13  and  C_15 
REMARK    2  A    between atoms: C_14  and  C_16 
REMARK    3  A    between atoms: C_15  and  C_22 
REMARK    4  A    between atoms: C_16  and  C_23 
REMARK    5  A    between atoms: C_17  and  C_21 
REMARK    6  A    between atoms: C_18  and  C_24 
REMARK    7  A    between atoms: C_19  and  C_27 
REMARK    8  A    between atoms: C_20  and  C_30 
ROOT
HETATM    1  O   UNL     1      17.415  41.369   0.153  1.00  0.00    -0.304 OA
HETATM    2  O   UNL     1      20.983  38.317   1.339  1.00  0.00    -0.304 OA
HETATM    3  O   UNL     1      17.538  36.314   0.591  1.00  0.00    -0.304 OA
HETATM    4  O   UNL     1      19.089  39.608  -0.867  1.00  0.00    -0.270 OA
HETATM    5  O   UNL     1      17.545  40.546   2.305  1.00  0.00    -0.263 OA
HETATM    6  O   UNL     1      16.131  38.153  -0.572  1.00  0.00    -0.270 OA
HETATM    7  O   UNL     1      23.095  37.728   0.639  1.00  0.00    -0.263 OA
HETATM    8  O   UNL     1      22.513  35.638   2.877  1.00  0.00    -0.270 OA
HETATM    9  O   UNL     1      18.203  34.839   2.235  1.00  0.00    -0.263 OA
HETATM   10  N   UNL     1      21.026  40.580  -0.040  1.00  0.00    -0.340 N 
HETATM   11  N   UNL     1      15.399  38.931   1.489  1.00  0.00    -0.340 N 
HETATM   12  N   UNL     1      20.832  35.121   1.367  1.00  0.00    -0.340 N 
HETATM   13  C   UNL     1      21.870  39.469  -0.538  1.00  0.00     0.190 C 
HETATM   14  C   UNL     1      15.482  40.330   1.028  1.00  0.00     0.190 C 
HETATM   15  C   UNL     1      18.807  41.746   0.173  1.00  0.00     0.227 C 
HETATM   16  C   UNL     1      19.737  35.531   0.463  1.00  0.00     0.190 C 
HETATM   17  C   UNL     1      16.281  36.604   1.240  1.00  0.00     0.227 C 
HETATM   18  C   UNL     1      20.943  37.406   2.442  1.00  0.00     0.227 C 
HETATM   19  C   UNL     1      19.645  40.548  -0.287  1.00  0.00     0.250 C 
HETATM   20  C   UNL     1      16.926  40.750   1.269  1.00  0.00     0.283 C 
HETATM   21  C   UNL     1      15.907  37.948   0.627  1.00  0.00     0.250 C 
HETATM   22  C   UNL     1      22.095  38.431   0.561  1.00  0.00     0.283 C 
HETATM   23  C   UNL     1      21.514  35.985   2.239  1.00  0.00     0.250 C 
HETATM   24  C   UNL     1      18.422  35.490   1.225  1.00  0.00     0.283 C 
HETATM   25  C   UNL     1      21.704  41.612   0.752  1.00  0.00     0.153 C 
HETATM   26  C   UNL     1      14.936  38.659   2.851  1.00  0.00     0.153 C 
HETATM   27  C   UNL     1      21.233  33.714   1.350  1.00  0.00     0.153 C 
ENDROOT
BRANCH  15  28
HETATM   28  C   UNL     1      18.969  42.905  -0.801  1.00  0.00     0.016 C 
HETATM   29  C   UNL     1      17.800  42.952  -1.783  1.00  0.00     0.012 C 
HETATM   30  C   UNL     1      19.087  44.230  -0.048  1.00  0.00     0.012 C 
ENDBRANCH  15  28
BRANCH  14  31
HETATM   31  C   UNL     1      14.539  41.323   1.694  1.00  0.00     0.014 C 
HETATM   32  C   UNL     1      14.924  42.750   1.294  1.00  0.00     0.012 C 
BRANCH  31  33
HETATM   33  C   UNL     1      13.066  41.060   1.337  1.00  0.00     0.002 C 
HETATM   34  C   UNL     1      12.128  41.126   2.534  1.00  0.00     0.005 C 
ENDBRANCH  31  33
ENDBRANCH  14  31
BRANCH  13  35
HETATM   35  C   UNL     1      23.192  39.937  -1.145  1.00  0.00     0.014 C 
HETATM   36  C   UNL     1      24.313  39.810  -0.110  1.00  0.00     0.012 C 
BRANCH  35  37
HETATM   37  C   UNL     1      23.566  39.150  -2.415  1.00  0.00     0.002 C 
HETATM   38  C   UNL     1      22.370  38.528  -3.120  1.00  0.00     0.005 C 
ENDBRANCH  35  37
ENDBRANCH  13  35
BRANCH  17  39
HETATM   39  C   UNL     1      15.251  35.547   0.887  1.00  0.00     0.016 C 
HETATM   40  C   UNL     1      15.258  34.425   1.923  1.00  0.00     0.012 C 
HETATM   41  C   UNL     1      15.511  34.989  -0.511  1.00  0.00     0.012 C 
ENDBRANCH  17  39
BRANCH  18  42
HETATM   42  C   UNL     1      21.591  38.103   3.639  1.00  0.00     0.016 C 
HETATM   43  C   UNL     1      21.567  39.621   3.458  1.00  0.00     0.012 C 
HETATM   44  C   UNL     1      20.890  37.709   4.938  1.00  0.00     0.012 C 
ENDBRANCH  18  42
BRANCH  16  45
HETATM   45  C   UNL     1      19.622  34.716  -0.824  1.00  0.00     0.010 C 
HETATM   46  C   UNL     1      19.227  35.612  -1.998  1.00  0.00     0.012 C 
HETATM   47  C   UNL     1      18.613  33.581  -0.657  1.00  0.00     0.012 C 
ENDBRANCH  16  45
TORSDOF 8
ENDMDL
MODEL 19
REMARK VINA RESULT:    -4.555      4.536      9.665
REMARK INTER + INTRA:          -5.802
REMARK INTER:                  -6.315
REMARK INTRA:                   0.513
REMARK UNBOUND:                 0.884
REMARK  8 active torsions:
REMARK  status: ('A' for Active; 'I' for Inactive)
REMARK    1  A    between atoms: C_13  and  C_15 
REMARK    2  A    between atoms: C_14  and  C_16 
REMARK    3  A    between atoms: C_15  and  C_22 
REMARK    4  A    between atoms: C_16  and  C_23 
REMARK    5  A    between atoms: C_17  and  C_21 
REMARK    6  A    between atoms: C_18  and  C_24 
REMARK    7  A    between atoms: C_19  and  C_27 
REMARK    8  A    between atoms: C_20  and  C_30 
ROOT
HETATM    1  O   UNL     1      12.959  40.806  -3.182  1.00  0.00    -0.304 OA
HETATM    2  O   UNL     1      14.709  40.944   1.331  1.00  0.00    -0.304 OA
HETATM    3  O   UNL     1      11.163  42.894   1.082  1.00  0.00    -0.304 OA
HETATM    4  O   UNL     1      12.638  39.772  -0.780  1.00  0.00    -0.270 OA
HETATM    5  O   UNL     1      14.060  42.694  -2.442  1.00  0.00    -0.263 OA
HETATM    6  O   UNL     1      10.301  42.075  -1.221  1.00  0.00    -0.270 OA
HETATM    7  O   UNL     1      15.373  39.506   3.002  1.00  0.00    -0.263 OA
HETATM    8  O   UNL     1      15.532  42.288   4.398  1.00  0.00    -0.270 OA
HETATM    9  O   UNL     1      12.009  44.342   2.666  1.00  0.00    -0.263 OA
HETATM   10  N   UNL     1      14.824  39.045  -0.515  1.00  0.00    -0.340 N 
HETATM   11  N   UNL     1      11.472  43.770  -2.289  1.00  0.00    -0.340 N 
HETATM   12  N   UNL     1      13.269  42.191   3.901  1.00  0.00    -0.340 N 
HETATM   13  C   UNL     1      14.578  38.615   0.882  1.00  0.00     0.190 C 
HETATM   14  C   UNL     1      11.828  42.869  -3.402  1.00  0.00     0.190 C 
HETATM   15  C   UNL     1      14.028  39.956  -2.720  1.00  0.00     0.227 C 
HETATM   16  C   UNL     1      12.164  41.920   2.958  1.00  0.00     0.190 C 
HETATM   17  C   UNL     1      10.891  43.950   0.136  1.00  0.00     0.227 C 
HETATM   18  C   UNL     1      14.997  42.142   2.057  1.00  0.00     0.227 C 
HETATM   19  C   UNL     1      13.764  39.590  -1.255  1.00  0.00     0.250 C 
HETATM   20  C   UNL     1      13.090  42.147  -2.948  1.00  0.00     0.283 C 
HETATM   21  C   UNL     1      10.832  43.191  -1.183  1.00  0.00     0.250 C 
HETATM   22  C   UNL     1      14.979  39.718   1.862  1.00  0.00     0.283 C 
HETATM   23  C   UNL     1      14.630  42.196   3.557  1.00  0.00     0.250 C 
HETATM   24  C   UNL     1      11.785  43.214   2.254  1.00  0.00     0.283 C 
HETATM   25  C   UNL     1      16.204  38.930  -1.000  1.00  0.00     0.153 C 
HETATM   26  C   UNL     1      11.924  45.163  -2.331  1.00  0.00     0.153 C 
HETATM   27  C   UNL     1      12.917  42.472   5.293  1.00  0.00     0.153 C 
ENDROOT
BRANCH  15  28
HETATM   28  C   UNL     1      14.006  38.703  -3.586  1.00  0.00     0.016 C 
HETATM   29  C   UNL     1      12.698  37.939  -3.396  1.00  0.00     0.012 C 
HETATM   30  C   UNL     1      14.208  39.061  -5.058  1.00  0.00     0.012 C 
ENDBRANCH  15  28
BRANCH  14  31
HETATM   31  C   UNL     1      12.068  43.522  -4.756  1.00  0.00     0.014 C 
HETATM   32  C   UNL     1      12.901  42.590  -5.639  1.00  0.00     0.012 C 
BRANCH  31  33
HETATM   33  C   UNL     1      10.754  43.883  -5.472  1.00  0.00     0.002 C 
HETATM   34  C   UNL     1       9.801  42.705  -5.626  1.00  0.00     0.005 C 
ENDBRANCH  31  33
ENDBRANCH  14  31
BRANCH  13  35
HETATM   35  C   UNL     1      15.242  37.285   1.234  1.00  0.00     0.014 C 
HETATM   36  C   UNL     1      14.549  36.666   2.451  1.00  0.00     0.012 C 
BRANCH  35  37
HETATM   37  C   UNL     1      15.220  36.289   0.061  1.00  0.00     0.002 C 
HETATM   38  C   UNL     1      13.817  35.870  -0.356  1.00  0.00     0.005 C 
ENDBRANCH  35  37
ENDBRANCH  13  35
BRANCH  17  39
HETATM   39  C   UNL     1       9.553  44.598   0.444  1.00  0.00     0.016 C 
HETATM   40  C   UNL     1       8.563  44.350  -0.692  1.00  0.00     0.012 C 
HETATM   41  C   UNL     1       9.726  46.096   0.688  1.00  0.00     0.012 C 
ENDBRANCH  17  39
BRANCH  18  42
HETATM   42  C   UNL     1      16.472  42.476   1.830  1.00  0.00     0.016 C 
HETATM   43  C   UNL     1      16.897  42.106   0.409  1.00  0.00     0.012 C 
HETATM   44  C   UNL     1      16.739  43.955   2.100  1.00  0.00     0.012 C 
ENDBRANCH  18  42
BRANCH  16  45
HETATM   45  C   UNL     1      10.924  41.280   3.580  1.00  0.00     0.010 C 
HETATM   46  C   UNL     1      11.003  39.756   3.496  1.00  0.00     0.012 C 
HETATM   47  C   UNL     1       9.654  41.787   2.898  1.00  0.00     0.012 C 
ENDBRANCH  16  45
TORSDOF 8
ENDMDL
MODEL 20
REMARK VINA RESULT:    -4.505      2.512      6.583
REMARK INTER + INTRA:          -5.729
REMARK INTER:                  -6.072
REMARK INTRA:                   0.343
REMARK UNBOUND:                 0.884
REMARK  8 active torsions:
REMARK  status: ('A' for Active; 'I' for Inactive)
REMARK    1  A    between atoms: C_13  and  C_15 
REMARK    2  A    between atoms: C_14  and  C_16 
REMARK    3  A    between atoms: C_15  and  C_22 
REMARK    4  A    between atoms: C_16  and  C_23 
REMARK    5  A    between atoms: C_17  and  C_21 
REMARK    6  A    between atoms: C_18  and  C_24 
REMARK    7  A    between atoms: C_19  and  C_27 
REMARK    8  A    between atoms: C_20  and  C_30 
ROOT
HETATM    1  O   UNL     1      17.708  39.602   1.656  1.00  0.00    -0.304 OA
HETATM    2  O   UNL     1      22.540  39.421   1.908  1.00  0.00    -0.304 OA
HETATM    3  O   UNL     1      21.060  36.194  -0.050  1.00  0.00    -0.304 OA
HETATM    4  O   UNL     1      19.892  39.928   0.220  1.00  0.00    -0.270 OA
HETATM    5  O   UNL     1      18.718  38.289   3.263  1.00  0.00    -0.263 OA
HETATM    6  O   UNL     1      18.627  36.958  -0.508  1.00  0.00    -0.270 OA
HETATM    7  O   UNL     1      24.378  40.669   1.308  1.00  0.00    -0.263 OA
HETATM    8  O   UNL     1      25.664  38.036   2.369  1.00  0.00    -0.270 OA
HETATM    9  O   UNL     1      22.792  35.000   0.897  1.00  0.00    -0.263 OA
HETATM   10  N   UNL     1      20.896  41.480   1.622  1.00  0.00    -0.340 N 
HETATM   11  N   UNL     1      17.963  36.178   1.574  1.00  0.00    -0.340 N 
HETATM   12  N   UNL     1      24.441  37.219   0.576  1.00  0.00    -0.340 N 
HETATM   13  C   UNL     1      22.141  41.493   0.819  1.00  0.00     0.190 C 
HETATM   14  C   UNL     1      17.061  37.332   1.756  1.00  0.00     0.190 C 
HETATM   15  C   UNL     1      18.525  40.734   2.013  1.00  0.00     0.227 C 
HETATM   16  C   UNL     1      23.190  37.145  -0.207  1.00  0.00     0.190 C 
HETATM   17  C   UNL     1      20.047  35.319   0.491  1.00  0.00     0.227 C 
HETATM   18  C   UNL     1      23.285  38.359   2.513  1.00  0.00     0.227 C 
HETATM   19  C   UNL     1      19.828  40.671   1.207  1.00  0.00     0.250 C 
HETATM   20  C   UNL     1      17.932  38.438   2.337  1.00  0.00     0.283 C 
HETATM   21  C   UNL     1      18.807  36.203   0.454  1.00  0.00     0.250 C 
HETATM   22  C   UNL     1      23.166  40.519   1.402  1.00  0.00     0.283 C 
HETATM   23  C   UNL     1      24.573  37.876   1.810  1.00  0.00     0.250 C 
HETATM   24  C   UNL     1      22.363  35.970   0.290  1.00  0.00     0.283 C 
HETATM   25  C   UNL     1      20.905  42.276   2.854  1.00  0.00     0.153 C 
HETATM   26  C   UNL     1      18.034  35.159   2.624  1.00  0.00     0.153 C 
HETATM   27  C   UNL     1      25.626  36.561   0.024  1.00  0.00     0.153 C 
ENDROOT
BRANCH  15  28
HETATM   28  C   UNL     1      17.740  41.985   1.644  1.00  0.00     0.016 C 
HETATM   29  C   UNL     1      16.595  41.642   0.692  1.00  0.00     0.012 C 
HETATM   30  C   UNL     1      17.204  42.676   2.897  1.00  0.00     0.012 C 
ENDBRANCH  15  28
BRANCH  14  31
HETATM   31  C   UNL     1      15.847  37.112   2.648  1.00  0.00     0.014 C 
HETATM   32  C   UNL     1      15.136  38.445   2.891  1.00  0.00     0.012 C 
BRANCH  31  33
HETATM   33  C   UNL     1      14.859  36.094   2.050  1.00  0.00     0.002 C 
HETATM   34  C   UNL     1      14.395  36.449   0.644  1.00  0.00     0.005 C 
ENDBRANCH  31  33
ENDBRANCH  14  31
BRANCH  13  35
HETATM   35  C   UNL     1      22.734  42.890   0.641  1.00  0.00     0.014 C 
HETATM   36  C   UNL     1      23.697  42.897  -0.550  1.00  0.00     0.012 C 
BRANCH  35  37
HETATM   37  C   UNL     1      21.652  43.966   0.441  1.00  0.00     0.002 C 
HETATM   38  C   UNL     1      22.201  45.297  -0.053  1.00  0.00     0.005 C 
ENDBRANCH  35  37
ENDBRANCH  13  35
BRANCH  17  39
HETATM   39  C   UNL     1      19.869  34.105  -0.402  1.00  0.00     0.016 C 
HETATM   40  C   UNL     1      18.451  34.058  -0.967  1.00  0.00     0.012 C 
HETATM   41  C   UNL     1      20.184  32.823   0.365  1.00  0.00     0.012 C 
ENDBRANCH  17  39
BRANCH  18  42
HETATM   42  C   UNL     1      23.556  38.756   3.965  1.00  0.00     0.016 C 
HETATM   43  C   UNL     1      22.330  39.432   4.578  1.00  0.00     0.012 C 
HETATM   44  C   UNL     1      23.963  37.537   4.791  1.00  0.00     0.012 C 
ENDBRANCH  18  42
BRANCH  16  45
HETATM   45  C   UNL     1      23.379  37.049  -1.720  1.00  0.00     0.010 C 
HETATM   46  C   UNL     1      22.639  38.182  -2.430  1.00  0.00     0.012 C 
HETATM   47  C   UNL     1      22.904  35.693  -2.240  1.00  0.00     0.012 C 
ENDBRANCH  16  45
TORSDOF 8
ENDMDL
