MODEL 1
REMARK VINA RESULT:    -5.976      0.000      0.000
REMARK INTER + INTRA:          -8.191
REMARK INTER:                  -8.771
REMARK INTRA:                   0.580
REMARK UNBOUND:                 0.580
REMARK  8 active torsions:
REMARK  status: ('A' for Active; 'I' for Inactive)
REMARK    1  A    between atoms: C_13  and  C_15 
REMARK    2  A    between atoms: C_14  and  C_16 
REMARK    3  A    between atoms: C_15  and  C_22 
REMARK    4  A    between atoms: C_16  and  C_23 
REMARK    5  A    between atoms: C_17  and  C_21 
REMARK    6  A    between atoms: C_18  and  C_24 
REMARK    7  A    between atoms: C_19  and  C_27 
REMARK    8  A    between atoms: C_20  and  C_30 
ROOT
HETATM    1  O   UNL     1      25.988  46.864  41.966  1.00  0.00    -0.304 OA
HETATM    2  O   UNL     1      27.164  51.285  43.556  1.00  0.00    -0.304 OA
HETATM    3  O   UNL     1      29.687  48.481  45.044  1.00  0.00    -0.304 OA
HETATM    4  O   UNL     1      27.744  48.803  41.652  1.00  0.00    -0.270 OA
HETATM    5  O   UNL     1      25.326  47.533  44.074  1.00  0.00    -0.263 OA
HETATM    6  O   UNL     1      29.139  46.456  43.523  1.00  0.00    -0.270 OA
HETATM    7  O   UNL     1      27.743  53.352  42.726  1.00  0.00    -0.263 OA
HETATM    8  O   UNL     1      28.129  53.720  45.797  1.00  0.00    -0.270 OA
HETATM    9  O   UNL     1      29.765  49.769  46.956  1.00  0.00    -0.263 OA
HETATM   10  N   UNL     1      26.204  50.482  41.219  1.00  0.00    -0.340 N 
HETATM   11  N   UNL     1      27.397  45.840  44.927  1.00  0.00    -0.340 N 
HETATM   12  N   UNL     1      29.684  52.054  45.370  1.00  0.00    -0.340 N 
HETATM   13  C   UNL     1      27.255  51.526  41.195  1.00  0.00     0.190 C 
HETATM   14  C   UNL     1      26.560  45.454  43.774  1.00  0.00     0.190 C 
HETATM   15  C   UNL     1      25.478  48.078  41.380  1.00  0.00     0.227 C 
HETATM   16  C   UNL     1      30.062  50.769  44.745  1.00  0.00     0.190 C 
HETATM   17  C   UNL     1      29.250  47.301  45.753  1.00  0.00     0.227 C 
HETATM   18  C   UNL     1      27.226  51.666  44.933  1.00  0.00     0.227 C 
HETATM   19  C   UNL     1      26.577  49.147  41.435  1.00  0.00     0.250 C 
HETATM   20  C   UNL     1      25.876  46.738  43.323  1.00  0.00     0.283 C 
HETATM   21  C   UNL     1      28.615  46.476  44.642  1.00  0.00     0.250 C 
HETATM   22  C   UNL     1      27.381  52.194  42.564  1.00  0.00     0.283 C 
HETATM   23  C   UNL     1      28.383  52.582  45.389  1.00  0.00     0.250 C 
HETATM   24  C   UNL     1      29.827  49.645  45.742  1.00  0.00     0.283 C 
HETATM   25  C   UNL     1      24.819  50.947  41.085  1.00  0.00     0.153 C 
HETATM   26  C   UNL     1      26.861  45.676  46.280  1.00  0.00     0.153 C 
HETATM   27  C   UNL     1      30.744  52.832  46.013  1.00  0.00     0.153 C 
ENDROOT
BRANCH  15  28
HETATM   28  C   UNL     1      25.127  47.761  39.933  1.00  0.00     0.016 C 
HETATM   29  C   UNL     1      26.283  48.127  39.004  1.00  0.00     0.012 C 
HETATM   30  C   UNL     1      24.763  46.286  39.777  1.00  0.00     0.012 C 
ENDBRANCH  15  28
BRANCH  14  31
HETATM   31  C   UNL     1      25.515  44.375  44.023  1.00  0.00     0.014 C 
HETATM   32  C   UNL     1      24.591  44.260  42.808  1.00  0.00     0.012 C 
BRANCH  31  33
HETATM   33  C   UNL     1      26.149  43.007  44.328  1.00  0.00     0.002 C 
HETATM   34  C   UNL     1      27.546  42.839  43.745  1.00  0.00     0.005 C 
ENDBRANCH  31  33
ENDBRANCH  14  31
BRANCH  13  35
HETATM   35  C   UNL     1      27.061  52.558  40.085  1.00  0.00     0.014 C 
HETATM   36  C   UNL     1      28.327  53.405  39.936  1.00  0.00     0.012 C 
BRANCH  35  37
HETATM   37  C   UNL     1      26.709  51.908  38.734  1.00  0.00     0.002 C 
HETATM   38  C   UNL     1      27.906  51.291  38.025  1.00  0.00     0.005 C 
ENDBRANCH  35  37
ENDBRANCH  13  35
BRANCH  17  39
HETATM   39  C   UNL     1      30.442  46.575  46.348  1.00  0.00     0.016 C 
HETATM   40  C   UNL     1      30.546  45.161  45.782  1.00  0.00     0.012 C 
HETATM   41  C   UNL     1      30.342  46.537  47.872  1.00  0.00     0.012 C 
ENDBRANCH  17  39
BRANCH  18  42
HETATM   42  C   UNL     1      25.865  52.255  45.309  1.00  0.00     0.016 C 
HETATM   43  C   UNL     1      24.742  51.548  44.551  1.00  0.00     0.012 C 
HETATM   44  C   UNL     1      25.634  52.163  46.816  1.00  0.00     0.012 C 
ENDBRANCH  18  42
BRANCH  16  45
HETATM   45  C   UNL     1      31.492  50.705  44.212  1.00  0.00     0.010 C 
HETATM   46  C   UNL     1      31.500  50.330  42.730  1.00  0.00     0.012 C 
HETATM   47  C   UNL     1      32.326  49.711  45.019  1.00  0.00     0.012 C 
ENDBRANCH  16  45
TORSDOF 8
ENDMDL
MODEL 2
REMARK VINA RESULT:    -5.924     13.508     17.261
REMARK INTER + INTRA:          -8.115
REMARK INTER:                  -8.448
REMARK INTRA:                   0.333
REMARK UNBOUND:                 0.580
REMARK  8 active torsions:
REMARK  status: ('A' for Active; 'I' for Inactive)
REMARK    1  A    between atoms: C_13  and  C_15 
REMARK    2  A    between atoms: C_14  and  C_16 
REMARK    3  A    between atoms: C_15  and  C_22 
REMARK    4  A    between atoms: C_16  and  C_23 
REMARK    5  A    between atoms: C_17  and  C_21 
REMARK    6  A    between atoms: C_18  and  C_24 
REMARK    7  A    between atoms: C_19  and  C_27 
REMARK    8  A    between atoms: C_20  and  C_30 
ROOT
HETATM    1  O   UNL     1      39.870  44.041  46.709  1.00  0.00    -0.304 OA
HETATM    2  O   UNL     1      43.992  42.788  44.499  1.00  0.00    -0.304 OA
HETATM    3  O   UNL     1      43.406  40.583  47.850  1.00  0.00    -0.304 OA
HETATM    4  O   UNL     1      40.959  42.159  45.222  1.00  0.00    -0.270 OA
HETATM    5  O   UNL     1      41.879  44.872  47.485  1.00  0.00    -0.263 OA
HETATM    6  O   UNL     1      40.914  41.087  48.353  1.00  0.00    -0.270 OA
HETATM    7  O   UNL     1      44.726  42.018  42.458  1.00  0.00    -0.263 OA
HETATM    8  O   UNL     1      47.314  41.918  44.192  1.00  0.00    -0.270 OA
HETATM    9  O   UNL     1      45.698  40.624  48.109  1.00  0.00    -0.263 OA
HETATM   10  N   UNL     1      41.657  43.555  43.505  1.00  0.00    -0.340 N 
HETATM   11  N   UNL     1      41.512  42.991  49.537  1.00  0.00    -0.340 N 
HETATM   12  N   UNL     1      45.972  40.422  45.347  1.00  0.00    -0.340 N 
HETATM   13  C   UNL     1      42.358  42.451  42.809  1.00  0.00     0.190 C 
HETATM   14  C   UNL     1      40.352  43.730  49.001  1.00  0.00     0.190 C 
HETATM   15  C   UNL     1      40.192  44.423  45.357  1.00  0.00     0.227 C 
HETATM   16  C   UNL     1      44.678  40.055  45.961  1.00  0.00     0.190 C 
HETATM   17  C   UNL     1      43.163  41.152  49.155  1.00  0.00     0.227 C 
HETATM   18  C   UNL     1      45.289  42.843  45.101  1.00  0.00     0.227 C 
HETATM   19  C   UNL     1      40.970  43.279  44.697  1.00  0.00     0.250 C 
HETATM   20  C   UNL     1      40.815  44.294  47.664  1.00  0.00     0.283 C 
HETATM   21  C   UNL     1      41.757  41.719  49.000  1.00  0.00     0.250 C 
HETATM   22  C   UNL     1      43.837  42.425  43.195  1.00  0.00     0.283 C 
HETATM   23  C   UNL     1      46.276  41.688  44.821  1.00  0.00     0.250 C 
HETATM   24  C   UNL     1      44.698  40.449  47.429  1.00  0.00     0.283 C 
HETATM   25  C   UNL     1      41.801  44.892  42.920  1.00  0.00     0.153 C 
HETATM   26  C   UNL     1      42.413  43.667  50.474  1.00  0.00     0.153 C 
HETATM   27  C   UNL     1      47.007  39.390  45.282  1.00  0.00     0.153 C 
ENDROOT
BRANCH  15  28
HETATM   28  C   UNL     1      38.872  44.646  44.631  1.00  0.00     0.016 C 
HETATM   29  C   UNL     1      37.694  44.253  45.520  1.00  0.00     0.012 C 
HETATM   30  C   UNL     1      38.741  46.101  44.183  1.00  0.00     0.012 C 
ENDBRANCH  15  28
BRANCH  14  31
HETATM   31  C   UNL     1      39.800  44.852  49.869  1.00  0.00     0.014 C 
HETATM   32  C   UNL     1      39.195  45.942  48.982  1.00  0.00     0.012 C 
BRANCH  31  33
HETATM   33  C   UNL     1      38.745  44.350  50.872  1.00  0.00     0.002 C 
HETATM   34  C   UNL     1      37.968  43.136  50.382  1.00  0.00     0.005 C 
ENDBRANCH  31  33
ENDBRANCH  14  31
BRANCH  13  35
HETATM   35  C   UNL     1      42.176  42.477  41.292  1.00  0.00     0.014 C 
HETATM   36  C   UNL     1      42.708  41.177  40.683  1.00  0.00     0.012 C 
BRANCH  35  37
HETATM   37  C   UNL     1      40.707  42.682  40.880  1.00  0.00     0.002 C 
HETATM   38  C   UNL     1      40.291  41.853  39.674  1.00  0.00     0.005 C 
ENDBRANCH  35  37
ENDBRANCH  13  35
BRANCH  17  39
HETATM   39  C   UNL     1      43.191  40.066  50.215  1.00  0.00     0.016 C 
HETATM   40  C   UNL     1      41.843  39.975  50.926  1.00  0.00     0.012 C 
HETATM   41  C   UNL     1      44.312  40.326  51.220  1.00  0.00     0.012 C 
ENDBRANCH  17  39
BRANCH  18  42
HETATM   42  C   UNL     1      45.902  44.200  44.750  1.00  0.00     0.016 C 
HETATM   43  C   UNL     1      44.828  45.287  44.720  1.00  0.00     0.012 C 
HETATM   44  C   UNL     1      47.005  44.566  45.741  1.00  0.00     0.012 C 
ENDBRANCH  18  42
BRANCH  16  45
HETATM   45  C   UNL     1      44.288  38.585  45.819  1.00  0.00     0.010 C 
HETATM   46  C   UNL     1      42.901  38.453  45.192  1.00  0.00     0.012 C 
HETATM   47  C   UNL     1      44.331  37.880  47.174  1.00  0.00     0.012 C 
ENDBRANCH  16  45
TORSDOF 8
ENDMDL
MODEL 3
REMARK VINA RESULT:    -5.594      1.627      2.306
REMARK INTER + INTRA:          -7.631
REMARK INTER:                  -8.261
REMARK INTRA:                   0.631
REMARK UNBOUND:                 0.580
REMARK  8 active torsions:
REMARK  status: ('A' for Active; 'I' for Inactive)
REMARK    1  A    between atoms: C_13  and  C_15 
REMARK    2  A    between atoms: C_14  and  C_16 
REMARK    3  A    between atoms: C_15  and  C_22 
REMARK    4  A    between atoms: C_16  and  C_23 
REMARK    5  A    between atoms: C_17  and  C_21 
REMARK    6  A    between atoms: C_18  and  C_24 
REMARK    7  A    between atoms: C_19  and  C_27 
REMARK    8  A    between atoms: C_20  and  C_30 
ROOT
HETATM    1  O   UNL     1      26.570  48.093  40.659  1.00  0.00    -0.304 OA
HETATM    2  O   UNL     1      27.520  51.353  44.112  1.00  0.00    -0.304 OA
HETATM    3  O   UNL     1      28.674  47.638  45.256  1.00  0.00    -0.304 OA
HETATM    4  O   UNL     1      28.535  49.445  41.778  1.00  0.00    -0.270 OA
HETATM    5  O   UNL     1      25.133  48.309  42.452  1.00  0.00    -0.263 OA
HETATM    6  O   UNL     1      28.588  46.369  42.999  1.00  0.00    -0.270 OA
HETATM    7  O   UNL     1      28.698  53.309  44.404  1.00  0.00    -0.263 OA
HETATM    8  O   UNL     1      27.708  52.675  47.291  1.00  0.00    -0.270 OA
HETATM    9  O   UNL     1      28.065  48.260  47.393  1.00  0.00    -0.263 OA
HETATM   10  N   UNL     1      27.612  51.550  41.470  1.00  0.00    -0.340 N 
HETATM   11  N   UNL     1      26.333  45.920  43.308  1.00  0.00    -0.340 N 
HETATM   12  N   UNL     1      29.034  50.818  46.879  1.00  0.00    -0.340 N 
HETATM   13  C   UNL     1      28.698  52.207  42.235  1.00  0.00     0.190 C 
HETATM   14  C   UNL     1      26.059  46.132  41.873  1.00  0.00     0.190 C 
HETATM   15  C   UNL     1      26.558  49.516  40.430  1.00  0.00     0.227 C 
HETATM   16  C   UNL     1      29.465  49.707  46.006  1.00  0.00     0.190 C 
HETATM   17  C   UNL     1      27.801  46.488  45.250  1.00  0.00     0.227 C 
HETATM   18  C   UNL     1      27.008  51.299  45.447  1.00  0.00     0.227 C 
HETATM   19  C   UNL     1      27.653  50.160  41.289  1.00  0.00     0.250 C 
HETATM   20  C   UNL     1      25.843  47.631  41.721  1.00  0.00     0.283 C 
HETATM   21  C   UNL     1      27.625  46.228  43.760  1.00  0.00     0.250 C 
HETATM   22  C   UNL     1      28.287  52.399  43.695  1.00  0.00     0.283 C 
HETATM   23  C   UNL     1      27.953  51.674  46.610  1.00  0.00     0.250 C 
HETATM   24  C   UNL     1      28.649  48.468  46.339  1.00  0.00     0.283 C 
HETATM   25  C   UNL     1      26.518  52.415  41.015  1.00  0.00     0.153 C 
HETATM   26  C   UNL     1      25.227  45.547  44.194  1.00  0.00     0.153 C 
HETATM   27  C   UNL     1      29.789  51.042  48.112  1.00  0.00     0.153 C 
ENDROOT
BRANCH  15  28
HETATM   28  C   UNL     1      26.855  49.732  38.952  1.00  0.00     0.016 C 
HETATM   29  C   UNL     1      27.190  48.407  38.270  1.00  0.00     0.012 C 
HETATM   30  C   UNL     1      25.674  50.408  38.258  1.00  0.00     0.012 C 
ENDBRANCH  15  28
BRANCH  14  31
HETATM   31  C   UNL     1      24.872  45.378  41.288  1.00  0.00     0.014 C 
HETATM   32  C   UNL     1      24.535  45.940  39.905  1.00  0.00     0.012 C 
BRANCH  31  33
HETATM   33  C   UNL     1      25.133  43.865  41.188  1.00  0.00     0.002 C 
HETATM   34  C   UNL     1      23.860  43.029  41.158  1.00  0.00     0.005 C 
ENDBRANCH  31  33
ENDBRANCH  14  31
BRANCH  13  35
HETATM   35  C   UNL     1      29.174  53.518  41.610  1.00  0.00     0.014 C 
HETATM   36  C   UNL     1      30.499  53.945  42.246  1.00  0.00     0.012 C 
BRANCH  35  37
HETATM   37  C   UNL     1      29.339  53.415  40.083  1.00  0.00     0.002 C 
HETATM   38  C   UNL     1      30.449  52.467  39.653  1.00  0.00     0.005 C 
ENDBRANCH  35  37
ENDBRANCH  13  35
BRANCH  17  39
HETATM   39  C   UNL     1      28.481  45.310  45.924  1.00  0.00     0.016 C 
HETATM   40  C   UNL     1      28.141  45.274  47.412  1.00  0.00     0.012 C 
HETATM   41  C   UNL     1      29.993  45.375  45.721  1.00  0.00     0.012 C 
ENDBRANCH  17  39
BRANCH  18  42
HETATM   42  C   UNL     1      25.724  52.129  45.481  1.00  0.00     0.016 C 
HETATM   43  C   UNL     1      24.949  51.980  44.171  1.00  0.00     0.012 C 
HETATM   44  C   UNL     1      24.850  51.724  46.667  1.00  0.00     0.012 C 
ENDBRANCH  18  42
BRANCH  16  45
HETATM   45  C   UNL     1      30.956  49.381  46.062  1.00  0.00     0.010 C 
HETATM   46  C   UNL     1      31.477  48.992  44.678  1.00  0.00     0.012 C 
HETATM   47  C   UNL     1      31.229  48.264  47.068  1.00  0.00     0.012 C 
ENDBRANCH  16  45
TORSDOF 8
ENDMDL
MODEL 4
REMARK VINA RESULT:    -5.368      3.032      7.578
REMARK INTER + INTRA:          -7.299
REMARK INTER:                  -7.629
REMARK INTRA:                   0.330
REMARK UNBOUND:                 0.580
REMARK  8 active torsions:
REMARK  status: ('A' for Active; 'I' for Inactive)
REMARK    1  A    between atoms: C_13  and  C_15 
REMARK    2  A    between atoms: C_14  and  C_16 
REMARK    3  A    between atoms: C_15  and  C_22 
REMARK    4  A    between atoms: C_16  and  C_23 
REMARK    5  A    between atoms: C_17  and  C_21 
REMARK    6  A    between atoms: C_18  and  C_24 
REMARK    7  A    between atoms: C_19  and  C_27 
REMARK    8  A    between atoms: C_20  and  C_30 
ROOT
HETATM    1  O   UNL     1      27.055  50.268  46.632  1.00  0.00    -0.304 OA
HETATM    2  O   UNL     1      30.048  46.537  45.879  1.00  0.00    -0.304 OA
HETATM    3  O   UNL     1      29.680  47.336  49.838  1.00  0.00    -0.304 OA
HETATM    4  O   UNL     1      27.213  47.644  46.804  1.00  0.00    -0.270 OA
HETATM    5  O   UNL     1      29.337  50.610  46.673  1.00  0.00    -0.263 OA
HETATM    6  O   UNL     1      27.607  48.891  49.844  1.00  0.00    -0.270 OA
HETATM    7  O   UNL     1      30.049  44.458  44.891  1.00  0.00    -0.263 OA
HETATM    8  O   UNL     1      32.842  44.554  46.272  1.00  0.00    -0.270 OA
HETATM    9  O   UNL     1      31.891  46.705  50.027  1.00  0.00    -0.263 OA
HETATM   10  N   UNL     1      27.846  47.277  44.602  1.00  0.00    -0.340 N 
HETATM   11  N   UNL     1      28.960  50.736  49.452  1.00  0.00    -0.340 N 
HETATM   12  N   UNL     1      31.449  44.730  48.118  1.00  0.00    -0.340 N 
HETATM   13  C   UNL     1      28.038  45.826  44.835  1.00  0.00     0.190 C 
HETATM   14  C   UNL     1      27.954  51.323  48.546  1.00  0.00     0.190 C 
HETATM   15  C   UNL     1      27.145  49.566  45.377  1.00  0.00     0.227 C 
HETATM   16  C   UNL     1      30.284  45.327  48.805  1.00  0.00     0.190 C 
HETATM   17  C   UNL     1      29.911  48.636  50.420  1.00  0.00     0.227 C 
HETATM   18  C   UNL     1      31.414  46.489  46.303  1.00  0.00     0.227 C 
HETATM   19  C   UNL     1      27.407  48.082  45.664  1.00  0.00     0.250 C 
HETATM   20  C   UNL     1      28.229  50.705  47.181  1.00  0.00     0.283 C 
HETATM   21  C   UNL     1      28.717  49.433  49.910  1.00  0.00     0.250 C 
HETATM   22  C   UNL     1      29.502  45.521  45.155  1.00  0.00     0.283 C 
HETATM   23  C   UNL     1      31.956  45.163  46.882  1.00  0.00     0.250 C 
HETATM   24  C   UNL     1      30.751  46.516  49.630  1.00  0.00     0.283 C 
HETATM   25  C   UNL     1      28.209  47.779  43.273  1.00  0.00     0.153 C 
HETATM   26  C   UNL     1      30.203  51.469  49.703  1.00  0.00     0.153 C 
HETATM   27  C   UNL     1      32.119  43.607  48.773  1.00  0.00     0.153 C 
ENDROOT
BRANCH  15  28
HETATM   28  C   UNL     1      25.805  49.735  44.674  1.00  0.00     0.016 C 
HETATM   29  C   UNL     1      24.813  50.469  45.575  1.00  0.00     0.012 C 
HETATM   30  C   UNL     1      25.979  50.480  43.352  1.00  0.00     0.012 C 
ENDBRANCH  15  28
BRANCH  14  31
HETATM   31  C   UNL     1      27.945  52.842  48.431  1.00  0.00     0.014 C 
HETATM   32  C   UNL     1      27.451  53.252  47.042  1.00  0.00     0.012 C 
BRANCH  31  33
HETATM   33  C   UNL     1      27.075  53.505  49.512  1.00  0.00     0.002 C 
HETATM   34  C   UNL     1      25.916  52.635  49.981  1.00  0.00     0.005 C 
ENDBRANCH  31  33
ENDBRANCH  14  31
BRANCH  13  35
HETATM   35  C   UNL     1      27.522  44.955  43.690  1.00  0.00     0.014 C 
HETATM   36  C   UNL     1      27.248  43.537  44.200  1.00  0.00     0.012 C 
BRANCH  35  37
HETATM   37  C   UNL     1      26.250  45.529  43.042  1.00  0.00     0.002 C 
HETATM   38  C   UNL     1      25.841  44.813  41.763  1.00  0.00     0.005 C 
ENDBRANCH  35  37
ENDBRANCH  13  35
BRANCH  17  39
HETATM   39  C   UNL     1      29.888  48.544  51.935  1.00  0.00     0.016 C 
HETATM   40  C   UNL     1      28.756  49.394  52.507  1.00  0.00     0.012 C 
HETATM   41  C   UNL     1      31.232  48.975  52.520  1.00  0.00     0.012 C 
ENDBRANCH  17  39
BRANCH  18  42
HETATM   42  C   UNL     1      32.275  46.985  45.141  1.00  0.00     0.016 C 
HETATM   43  C   UNL     1      31.578  48.126  44.400  1.00  0.00     0.012 C 
HETATM   44  C   UNL     1      33.649  47.430  45.637  1.00  0.00     0.012 C 
ENDBRANCH  18  42
BRANCH  16  45
HETATM   45  C   UNL     1      29.487  44.363  49.681  1.00  0.00     0.010 C 
HETATM   46  C   UNL     1      27.992  44.469  49.380  1.00  0.00     0.012 C 
HETATM   47  C   UNL     1      29.753  44.631  51.162  1.00  0.00     0.012 C 
ENDBRANCH  16  45
TORSDOF 8
ENDMDL
MODEL 5
REMARK VINA RESULT:    -5.226      1.929      4.349
REMARK INTER + INTRA:          -7.090
REMARK INTER:                  -7.545
REMARK INTRA:                   0.455
REMARK UNBOUND:                 0.580
REMARK  8 active torsions:
REMARK  status: ('A' for Active; 'I' for Inactive)
REMARK    1  A    between atoms: C_13  and  C_15 
REMARK    2  A    between atoms: C_14  and  C_16 
REMARK    3  A    between atoms: C_15  and  C_22 
REMARK    4  A    between atoms: C_16  and  C_23 
REMARK    5  A    between atoms: C_17  and  C_21 
REMARK    6  A    between atoms: C_18  and  C_24 
REMARK    7  A    between atoms: C_19  and  C_27 
REMARK    8  A    between atoms: C_20  and  C_30 
ROOT
HETATM    1  O   UNL     1      28.784  45.851  45.252  1.00  0.00    -0.304 OA
HETATM    2  O   UNL     1      26.880  49.851  43.298  1.00  0.00    -0.304 OA
HETATM    3  O   UNL     1      30.777  50.414  44.267  1.00  0.00    -0.304 OA
HETATM    4  O   UNL     1      28.747  47.288  43.045  1.00  0.00    -0.270 OA
HETATM    5  O   UNL     1      28.089  47.572  46.624  1.00  0.00    -0.263 OA
HETATM    6  O   UNL     1      31.552  47.973  44.662  1.00  0.00    -0.270 OA
HETATM    7  O   UNL     1      25.832  50.534  41.366  1.00  0.00    -0.263 OA
HETATM    8  O   UNL     1      26.220  53.213  42.911  1.00  0.00    -0.270 OA
HETATM    9  O   UNL     1      30.192  52.588  44.771  1.00  0.00    -0.263 OA
HETATM   10  N   UNL     1      26.443  47.290  42.774  1.00  0.00    -0.340 N 
HETATM   11  N   UNL     1      30.840  48.077  46.868  1.00  0.00    -0.340 N 
HETATM   12  N   UNL     1      28.428  52.568  42.619  1.00  0.00    -0.340 N 
HETATM   13  C   UNL     1      26.518  48.214  41.617  1.00  0.00     0.190 C 
HETATM   14  C   UNL     1      30.350  46.686  46.811  1.00  0.00     0.190 C 
HETATM   15  C   UNL     1      27.531  45.865  44.538  1.00  0.00     0.227 C 
HETATM   16  C   UNL     1      29.492  51.544  42.674  1.00  0.00     0.190 C 
HETATM   17  C   UNL     1      31.323  50.165  45.580  1.00  0.00     0.227 C 
HETATM   18  C   UNL     1      26.827  51.128  43.943  1.00  0.00     0.227 C 
HETATM   19  C   UNL     1      27.633  46.879  43.393  1.00  0.00     0.250 C 
HETATM   20  C   UNL     1      28.939  46.777  46.246  1.00  0.00     0.283 C 
HETATM   21  C   UNL     1      31.280  48.645  45.663  1.00  0.00     0.250 C 
HETATM   22  C   UNL     1      26.320  49.660  42.071  1.00  0.00     0.283 C 
HETATM   23  C   UNL     1      27.120  52.388  43.098  1.00  0.00     0.250 C 
HETATM   24  C   UNL     1      30.182  51.619  44.027  1.00  0.00     0.283 C 
HETATM   25  C   UNL     1      25.098  46.929  43.235  1.00  0.00     0.153 C 
HETATM   26  C   UNL     1      30.709  48.825  48.121  1.00  0.00     0.153 C 
HETATM   27  C   UNL     1      28.762  53.861  42.021  1.00  0.00     0.153 C 
ENDROOT
BRANCH  15  28
HETATM   28  C   UNL     1      27.320  44.463  43.981  1.00  0.00     0.016 C 
HETATM   29  C   UNL     1      28.645  43.707  43.908  1.00  0.00     0.012 C 
HETATM   30  C   UNL     1      26.310  43.692  44.830  1.00  0.00     0.012 C 
ENDBRANCH  15  28
BRANCH  14  31
HETATM   31  C   UNL     1      30.330  45.917  48.125  1.00  0.00     0.014 C 
HETATM   32  C   UNL     1      28.955  45.277  48.328  1.00  0.00     0.012 C 
BRANCH  31  33
HETATM   33  C   UNL     1      31.424  44.837  48.188  1.00  0.00     0.002 C 
HETATM   34  C   UNL     1      32.128  44.605  46.858  1.00  0.00     0.005 C 
ENDBRANCH  31  33
ENDBRANCH  14  31
BRANCH  13  35
HETATM   35  C   UNL     1      25.560  47.847  40.484  1.00  0.00     0.014 C 
HETATM   36  C   UNL     1      26.096  48.387  39.156  1.00  0.00     0.012 C 
BRANCH  35  37
HETATM   37  C   UNL     1      25.335  46.328  40.375  1.00  0.00     0.002 C 
HETATM   38  C   UNL     1      24.062  45.953  39.629  1.00  0.00     0.005 C 
ENDBRANCH  35  37
ENDBRANCH  13  35
BRANCH  17  39
HETATM   39  C   UNL     1      32.753  50.667  45.658  1.00  0.00     0.016 C 
HETATM   40  C   UNL     1      33.725  49.498  45.799  1.00  0.00     0.012 C 
HETATM   41  C   UNL     1      32.917  51.644  46.821  1.00  0.00     0.012 C 
ENDBRANCH  17  39
BRANCH  18  42
HETATM   42  C   UNL     1      25.476  51.231  44.651  1.00  0.00     0.016 C 
HETATM   43  C   UNL     1      25.070  49.880  45.241  1.00  0.00     0.012 C 
HETATM   44  C   UNL     1      25.516  52.300  45.740  1.00  0.00     0.012 C 
ENDBRANCH  18  42
BRANCH  16  45
HETATM   45  C   UNL     1      30.527  51.626  41.553  1.00  0.00     0.010 C 
HETATM   46  C   UNL     1      30.414  50.419  40.623  1.00  0.00     0.012 C 
HETATM   47  C   UNL     1      31.940  51.727  42.128  1.00  0.00     0.012 C 
ENDBRANCH  16  45
TORSDOF 8
ENDMDL
MODEL 6
REMARK VINA RESULT:    -4.889     12.005     15.849
REMARK INTER + INTRA:          -6.595
REMARK INTER:                  -6.970
REMARK INTRA:                   0.374
REMARK UNBOUND:                 0.580
REMARK  8 active torsions:
REMARK  status: ('A' for Active; 'I' for Inactive)
REMARK    1  A    between atoms: C_13  and  C_15 
REMARK    2  A    between atoms: C_14  and  C_16 
REMARK    3  A    between atoms: C_15  and  C_22 
REMARK    4  A    between atoms: C_16  and  C_23 
REMARK    5  A    between atoms: C_17  and  C_21 
REMARK    6  A    between atoms: C_18  and  C_24 
REMARK    7  A    between atoms: C_19  and  C_27 
REMARK    8  A    between atoms: C_20  and  C_30 
ROOT
HETATM    1  O   UNL     1      41.560  41.925  48.038  1.00  0.00    -0.304 OA
HETATM    2  O   UNL     1      41.448  46.509  46.482  1.00  0.00    -0.304 OA
HETATM    3  O   UNL     1      41.073  43.911  43.392  1.00  0.00    -0.304 OA
HETATM    4  O   UNL     1      39.932  43.792  47.143  1.00  0.00    -0.270 OA
HETATM    5  O   UNL     1      43.464  42.873  47.142  1.00  0.00    -0.263 OA
HETATM    6  O   UNL     1      40.559  41.705  44.652  1.00  0.00    -0.270 OA
HETATM    7  O   UNL     1      40.243  48.444  46.804  1.00  0.00    -0.263 OA
HETATM    8  O   UNL     1      42.152  49.215  44.463  1.00  0.00    -0.270 OA
HETATM    9  O   UNL     1      42.265  45.441  42.144  1.00  0.00    -0.263 OA
HETATM   10  N   UNL     1      40.506  45.410  48.703  1.00  0.00    -0.340 N 
HETATM   11  N   UNL     1      42.829  41.294  44.909  1.00  0.00    -0.340 N 
HETATM   12  N   UNL     1      40.946  47.496  43.480  1.00  0.00    -0.340 N 
HETATM   13  C   UNL     1      39.661  46.434  48.044  1.00  0.00     0.190 C 
HETATM   14  C   UNL     1      42.613  40.765  46.270  1.00  0.00     0.190 C 
HETATM   15  C   UNL     1      41.365  43.054  48.913  1.00  0.00     0.227 C 
HETATM   16  C   UNL     1      40.368  46.136  43.520  1.00  0.00     0.190 C 
HETATM   17  C   UNL     1      42.004  42.839  43.125  1.00  0.00     0.227 C 
HETATM   18  C   UNL     1      42.359  47.070  45.532  1.00  0.00     0.227 C 
HETATM   19  C   UNL     1      40.542  44.113  48.169  1.00  0.00     0.250 C 
HETATM   20  C   UNL     1      42.627  41.982  47.185  1.00  0.00     0.283 C 
HETATM   21  C   UNL     1      41.723  41.878  44.273  1.00  0.00     0.250 C 
HETATM   22  C   UNL     1      40.493  47.277  47.078  1.00  0.00     0.283 C 
HETATM   23  C   UNL     1      41.800  48.030  44.459  1.00  0.00     0.250 C 
HETATM   24  C   UNL     1      41.361  45.157  42.915  1.00  0.00     0.283 C 
HETATM   25  C   UNL     1      41.313  45.862  49.841  1.00  0.00     0.153 C 
HETATM   26  C   UNL     1      44.188  41.315  44.363  1.00  0.00     0.153 C 
HETATM   27  C   UNL     1      40.603  48.344  42.338  1.00  0.00     0.153 C 
ENDROOT
BRANCH  15  28
HETATM   28  C   UNL     1      40.596  42.550  50.127  1.00  0.00     0.016 C 
HETATM   29  C   UNL     1      40.091  41.127  49.892  1.00  0.00     0.012 C 
HETATM   30  C   UNL     1      41.468  42.608  51.380  1.00  0.00     0.012 C 
ENDBRANCH  15  28
BRANCH  14  31
HETATM   31  C   UNL     1      43.619  39.735  46.767  1.00  0.00     0.014 C 
HETATM   32  C   UNL     1      43.422  39.503  48.267  1.00  0.00     0.012 C 
BRANCH  31  33
HETATM   33  C   UNL     1      43.509  38.399  46.013  1.00  0.00     0.002 C 
HETATM   34  C   UNL     1      44.605  37.404  46.373  1.00  0.00     0.005 C 
ENDBRANCH  31  33
ENDBRANCH  14  31
BRANCH  13  35
HETATM   35  C   UNL     1      38.890  47.310  49.031  1.00  0.00     0.014 C 
HETATM   36  C   UNL     1      37.732  48.005  48.311  1.00  0.00     0.012 C 
BRANCH  35  37
HETATM   37  C   UNL     1      38.352  46.510  50.231  1.00  0.00     0.002 C 
HETATM   38  C   UNL     1      38.039  47.371  51.446  1.00  0.00     0.005 C 
ENDBRANCH  35  37
ENDBRANCH  13  35
BRANCH  17  39
HETATM   39  C   UNL     1      41.687  42.190  41.790  1.00  0.00     0.016 C 
HETATM   40  C   UNL     1      41.420  40.697  41.970  1.00  0.00     0.012 C 
HETATM   41  C   UNL     1      42.828  42.415  40.800  1.00  0.00     0.012 C 
ENDBRANCH  17  39
BRANCH  18  42
HETATM   42  C   UNL     1      43.504  47.714  46.316  1.00  0.00     0.016 C 
HETATM   43  C   UNL     1      43.832  46.894  47.564  1.00  0.00     0.012 C 
HETATM   44  C   UNL     1      44.742  47.867  45.436  1.00  0.00     0.012 C 
ENDBRANCH  18  42
BRANCH  16  45
HETATM   45  C   UNL     1      39.009  45.991  42.838  1.00  0.00     0.010 C 
HETATM   46  C   UNL     1      37.968  45.449  43.817  1.00  0.00     0.012 C 
HETATM   47  C   UNL     1      39.112  45.084  41.613  1.00  0.00     0.012 C 
ENDBRANCH  16  45
TORSDOF 8
ENDMDL
MODEL 7
REMARK VINA RESULT:    -4.889      6.033     11.565
REMARK INTER + INTRA:          -6.595
REMARK INTER:                  -6.943
REMARK INTRA:                   0.348
REMARK UNBOUND:                 0.580
REMARK  8 active torsions:
REMARK  status: ('A' for Active; 'I' for Inactive)
REMARK    1  A    between atoms: C_13  and  C_15 
REMARK    2  A    between atoms: C_14  and  C_16 
REMARK    3  A    between atoms: C_15  and  C_22 
REMARK    4  A    between atoms: C_16  and  C_23 
REMARK    5  A    between atoms: C_17  and  C_21 
REMARK    6  A    between atoms: C_18  and  C_24 
REMARK    7  A    between atoms: C_19  and  C_27 
REMARK    8  A    between atoms: C_20  and  C_30 
ROOT
HETATM    1  O   UNL     1      34.347  43.720  50.109  1.00  0.00    -0.304 OA
HETATM    2  O   UNL     1      31.081  46.250  52.634  1.00  0.00    -0.304 OA
HETATM    3  O   UNL     1      29.947  45.860  48.761  1.00  0.00    -0.304 OA
HETATM    4  O   UNL     1      31.959  43.547  51.206  1.00  0.00    -0.270 OA
HETATM    5  O   UNL     1      34.344  46.025  49.983  1.00  0.00    -0.263 OA
HETATM    6  O   UNL     1      31.556  43.998  47.952  1.00  0.00    -0.270 OA
HETATM    7  O   UNL     1      29.737  46.024  54.489  1.00  0.00    -0.263 OA
HETATM    8  O   UNL     1      28.820  48.763  53.316  1.00  0.00    -0.270 OA
HETATM    9  O   UNL     1      29.034  47.970  48.962  1.00  0.00    -0.263 OA
HETATM   10  N   UNL     1      32.603  44.198  53.338  1.00  0.00    -0.340 N 
HETATM   11  N   UNL     1      33.183  45.580  47.466  1.00  0.00    -0.340 N 
HETATM   12  N   UNL     1      28.271  47.346  51.565  1.00  0.00    -0.340 N 
HETATM   13  C   UNL     1      31.204  44.201  53.827  1.00  0.00     0.190 C 
HETATM   14  C   UNL     1      34.249  44.682  47.953  1.00  0.00     0.190 C 
HETATM   15  C   UNL     1      34.318  43.761  51.549  1.00  0.00     0.227 C 
HETATM   16  C   UNL     1      28.610  46.244  50.640  1.00  0.00     0.190 C 
HETATM   17  C   UNL     1      30.776  46.233  47.639  1.00  0.00     0.227 C 
HETATM   18  C   UNL     1      30.669  47.586  52.327  1.00  0.00     0.227 C 
HETATM   19  C   UNL     1      32.857  43.828  52.008  1.00  0.00     0.250 C 
HETATM   20  C   UNL     1      34.323  44.921  49.455  1.00  0.00     0.283 C 
HETATM   21  C   UNL     1      31.860  45.163  47.673  1.00  0.00     0.250 C 
HETATM   22  C   UNL     1      30.606  45.605  53.736  1.00  0.00     0.283 C 
HETATM   23  C   UNL     1      29.172  47.941  52.463  1.00  0.00     0.250 C 
HETATM   24  C   UNL     1      29.198  46.828  49.366  1.00  0.00     0.283 C 
HETATM   25  C   UNL     1      33.626  44.660  54.281  1.00  0.00     0.153 C 
HETATM   26  C   UNL     1      33.550  46.895  46.937  1.00  0.00     0.153 C 
HETATM   27  C   UNL     1      26.898  47.851  51.541  1.00  0.00     0.153 C 
ENDROOT
BRANCH  15  28
HETATM   28  C   UNL     1      34.965  42.475  52.045  1.00  0.00     0.016 C 
HETATM   29  C   UNL     1      34.767  41.347  51.034  1.00  0.00     0.012 C 
HETATM   30  C   UNL     1      36.452  42.690  52.321  1.00  0.00     0.012 C 
ENDBRANCH  15  28
BRANCH  14  31
HETATM   31  C   UNL     1      35.628  44.866  47.334  1.00  0.00     0.014 C 
HETATM   32  C   UNL     1      36.694  44.285  48.267  1.00  0.00     0.012 C 
BRANCH  31  33
HETATM   33  C   UNL     1      35.737  44.213  45.945  1.00  0.00     0.002 C 
HETATM   34  C   UNL     1      37.153  44.207  45.384  1.00  0.00     0.005 C 
ENDBRANCH  31  33
ENDBRANCH  14  31
BRANCH  13  35
HETATM   35  C   UNL     1      31.051  43.617  55.231  1.00  0.00     0.014 C 
HETATM   36  C   UNL     1      29.597  43.197  55.462  1.00  0.00     0.012 C 
BRANCH  35  37
HETATM   37  C   UNL     1      31.983  42.416  55.472  1.00  0.00     0.002 C 
HETATM   38  C   UNL     1      31.402  41.374  56.417  1.00  0.00     0.005 C 
ENDBRANCH  35  37
ENDBRANCH  13  35
BRANCH  17  39
HETATM   39  C   UNL     1      29.980  46.151  46.349  1.00  0.00     0.016 C 
HETATM   40  C   UNL     1      30.492  45.009  45.474  1.00  0.00     0.012 C 
HETATM   41  C   UNL     1      30.046  47.477  45.593  1.00  0.00     0.012 C 
ENDBRANCH  17  39
BRANCH  18  42
HETATM   42  C   UNL     1      31.546  48.537  53.142  1.00  0.00     0.016 C 
HETATM   43  C   UNL     1      32.968  47.991  53.264  1.00  0.00     0.012 C 
HETATM   44  C   UNL     1      31.560  49.930  52.515  1.00  0.00     0.012 C 
ENDBRANCH  18  42
BRANCH  16  45
HETATM   45  C   UNL     1      27.453  45.306  50.301  1.00  0.00     0.010 C 
HETATM   46  C   UNL     1      27.804  43.862  50.661  1.00  0.00     0.012 C 
HETATM   47  C   UNL     1      27.086  45.413  48.821  1.00  0.00     0.012 C 
ENDBRANCH  16  45
TORSDOF 8
ENDMDL
MODEL 8
REMARK VINA RESULT:    -4.884      2.075      7.016
REMARK INTER + INTRA:          -6.588
REMARK INTER:                  -7.553
REMARK INTRA:                   0.965
REMARK UNBOUND:                 0.580
REMARK  8 active torsions:
REMARK  status: ('A' for Active; 'I' for Inactive)
REMARK    1  A    between atoms: C_13  and  C_15 
REMARK    2  A    between atoms: C_14  and  C_16 
REMARK    3  A    between atoms: C_15  and  C_22 
REMARK    4  A    between atoms: C_16  and  C_23 
REMARK    5  A    between atoms: C_17  and  C_21 
REMARK    6  A    between atoms: C_18  and  C_24 
REMARK    7  A    between atoms: C_19  and  C_27 
REMARK    8  A    between atoms: C_20  and  C_30 
ROOT
HETATM    1  O   UNL     1      26.754  46.425  43.972  1.00  0.00    -0.304 OA
HETATM    2  O   UNL     1      29.899  48.397  47.082  1.00  0.00    -0.304 OA
HETATM    3  O   UNL     1      27.112  51.101  45.914  1.00  0.00    -0.304 OA
HETATM    4  O   UNL     1      27.007  47.220  46.471  1.00  0.00    -0.270 OA
HETATM    5  O   UNL     1      28.490  47.719  43.173  1.00  0.00    -0.263 OA
HETATM    6  O   UNL     1      25.342  49.557  44.821  1.00  0.00    -0.270 OA
HETATM    7  O   UNL     1      30.691  48.076  49.218  1.00  0.00    -0.263 OA
HETATM    8  O   UNL     1      32.028  50.769  48.397  1.00  0.00    -0.270 OA
HETATM    9  O   UNL     1      28.788  52.680  46.057  1.00  0.00    -0.263 OA
HETATM   10  N   UNL     1      28.886  45.951  46.959  1.00  0.00    -0.340 N 
HETATM   11  N   UNL     1      26.479  49.642  42.800  1.00  0.00    -0.340 N 
HETATM   12  N   UNL     1      29.788  51.357  48.291  1.00  0.00    -0.340 N 
HETATM   13  C   UNL     1      29.024  46.558  48.303  1.00  0.00     0.190 C 
HETATM   14  C   UNL     1      26.192  48.218  42.540  1.00  0.00     0.190 C 
HETATM   15  C   UNL     1      27.657  45.649  44.785  1.00  0.00     0.227 C 
HETATM   16  C   UNL     1      28.399  51.083  47.866  1.00  0.00     0.190 C 
HETATM   17  C   UNL     1      26.819  51.410  44.535  1.00  0.00     0.227 C 
HETATM   18  C   UNL     1      30.715  49.538  46.801  1.00  0.00     0.227 C 
HETATM   19  C   UNL     1      27.819  46.348  46.140  1.00  0.00     0.250 C 
HETATM   20  C   UNL     1      27.299  47.447  43.245  1.00  0.00     0.283 C 
HETATM   21  C   UNL     1      26.124  50.140  44.062  1.00  0.00     0.250 C 
HETATM   22  C   UNL     1      30.004  47.731  48.265  1.00  0.00     0.283 C 
HETATM   23  C   UNL     1      30.904  50.594  47.913  1.00  0.00     0.250 C 
HETATM   24  C   UNL     1      28.154  51.743  46.519  1.00  0.00     0.283 C 
HETATM   25  C   UNL     1      29.941  45.015  46.553  1.00  0.00     0.153 C 
HETATM   26  C   UNL     1      27.235  50.407  41.806  1.00  0.00     0.153 C 
HETATM   27  C   UNL     1      30.013  52.505  49.170  1.00  0.00     0.153 C 
ENDROOT
BRANCH  15  28
HETATM   28  C   UNL     1      27.020  44.279  44.974  1.00  0.00     0.016 C 
HETATM   29  C   UNL     1      25.497  44.376  44.895  1.00  0.00     0.012 C 
HETATM   30  C   UNL     1      27.547  43.291  43.935  1.00  0.00     0.012 C 
ENDBRANCH  15  28
BRANCH  14  31
HETATM   31  C   UNL     1      26.119  47.795  41.079  1.00  0.00     0.014 C 
HETATM   32  C   UNL     1      25.622  46.351  40.983  1.00  0.00     0.012 C 
BRANCH  31  33
HETATM   33  C   UNL     1      25.210  48.717  40.247  1.00  0.00     0.002 C 
HETATM   34  C   UNL     1      25.730  48.976  38.839  1.00  0.00     0.005 C 
ENDBRANCH  31  33
ENDBRANCH  14  31
BRANCH  13  35
HETATM   35  C   UNL     1      29.399  45.551  49.389  1.00  0.00     0.014 C 
HETATM   36  C   UNL     1      29.496  46.259  50.743  1.00  0.00     0.012 C 
BRANCH  35  37
HETATM   37  C   UNL     1      28.396  44.387  49.482  1.00  0.00     0.002 C 
HETATM   38  C   UNL     1      28.032  44.009  50.910  1.00  0.00     0.005 C 
ENDBRANCH  35  37
ENDBRANCH  13  35
BRANCH  17  39
HETATM   39  C   UNL     1      25.881  52.600  44.451  1.00  0.00     0.016 C 
HETATM   40  C   UNL     1      24.560  52.197  43.800  1.00  0.00     0.012 C 
HETATM   41  C   UNL     1      26.533  53.745  43.677  1.00  0.00     0.012 C 
ENDBRANCH  17  39
BRANCH  18  42
HETATM   42  C   UNL     1      32.059  49.026  46.282  1.00  0.00     0.016 C 
HETATM   43  C   UNL     1      31.868  47.768  45.435  1.00  0.00     0.012 C 
HETATM   44  C   UNL     1      32.775  50.109  45.477  1.00  0.00     0.012 C 
ENDBRANCH  18  42
BRANCH  16  45
HETATM   45  C   UNL     1      27.322  51.510  48.862  1.00  0.00     0.010 C 
HETATM   46  C   UNL     1      27.077  50.412  49.896  1.00  0.00     0.012 C 
HETATM   47  C   UNL     1      26.023  51.860  48.137  1.00  0.00     0.012 C 
ENDBRANCH  16  45
TORSDOF 8
ENDMDL
MODEL 9
REMARK VINA RESULT:    -4.871     11.509     14.633
REMARK INTER + INTRA:          -6.569
REMARK INTER:                  -7.042
REMARK INTRA:                   0.474
REMARK UNBOUND:                 0.580
REMARK  8 active torsions:
REMARK  status: ('A' for Active; 'I' for Inactive)
REMARK    1  A    between atoms: C_13  and  C_15 
REMARK    2  A    between atoms: C_14  and  C_16 
REMARK    3  A    between atoms: C_15  and  C_22 
REMARK    4  A    between atoms: C_16  and  C_23 
REMARK    5  A    between atoms: C_17  and  C_21 
REMARK    6  A    between atoms: C_18  and  C_24 
REMARK    7  A    between atoms: C_19  and  C_27 
REMARK    8  A    between atoms: C_20  and  C_30 
ROOT
HETATM    1  O   UNL     1      42.041  42.397  43.089  1.00  0.00    -0.304 OA
HETATM    2  O   UNL     1      39.557  46.089  45.000  1.00  0.00    -0.304 OA
HETATM    3  O   UNL     1      42.715  45.090  47.339  1.00  0.00    -0.304 OA
HETATM    4  O   UNL     1      42.122  45.003  43.462  1.00  0.00    -0.270 OA
HETATM    5  O   UNL     1      40.528  41.998  44.787  1.00  0.00    -0.263 OA
HETATM    6  O   UNL     1      44.078  43.587  45.726  1.00  0.00    -0.270 OA
HETATM    7  O   UNL     1      38.873  48.216  44.450  1.00  0.00    -0.263 OA
HETATM    8  O   UNL     1      38.016  47.979  47.437  1.00  0.00    -0.270 OA
HETATM    9  O   UNL     1      41.384  45.655  49.136  1.00  0.00    -0.263 OA
HETATM   10  N   UNL     1      40.076  45.472  42.475  1.00  0.00    -0.340 N 
HETATM   11  N   UNL     1      42.836  41.734  46.364  1.00  0.00    -0.340 N 
HETATM   12  N   UNL     1      40.313  47.739  47.634  1.00  0.00    -0.340 N 
HETATM   13  C   UNL     1      40.152  46.903  42.850  1.00  0.00     0.190 C 
HETATM   14  C   UNL     1      42.828  41.220  44.981  1.00  0.00     0.190 C 
HETATM   15  C   UNL     1      41.067  43.163  42.352  1.00  0.00     0.227 C 
HETATM   16  C   UNL     1      41.591  47.135  47.202  1.00  0.00     0.190 C 
HETATM   17  C   UNL     1      42.962  43.755  47.830  1.00  0.00     0.227 C 
HETATM   18  C   UNL     1      38.954  46.080  46.297  1.00  0.00     0.227 C 
HETATM   19  C   UNL     1      41.138  44.622  42.818  1.00  0.00     0.250 C 
HETATM   20  C   UNL     1      41.648  41.903  44.302  1.00  0.00     0.283 C 
HETATM   21  C   UNL     1      43.368  43.016  46.562  1.00  0.00     0.250 C 
HETATM   22  C   UNL     1      39.412  47.154  44.164  1.00  0.00     0.283 C 
HETATM   23  C   UNL     1      39.048  47.360  47.157  1.00  0.00     0.250 C 
HETATM   24  C   UNL     1      41.860  45.893  48.036  1.00  0.00     0.283 C 
HETATM   25  C   UNL     1      38.837  45.032  41.824  1.00  0.00     0.153 C 
HETATM   26  C   UNL     1      42.169  40.958  47.413  1.00  0.00     0.153 C 
HETATM   27  C   UNL     1      40.374  48.809  48.630  1.00  0.00     0.153 C 
ENDROOT
BRANCH  15  28
HETATM   28  C   UNL     1      41.445  43.064  40.880  1.00  0.00     0.016 C 
HETATM   29  C   UNL     1      42.949  42.847  40.722  1.00  0.00     0.012 C 
HETATM   30  C   UNL     1      40.668  41.938  40.198  1.00  0.00     0.012 C 
ENDBRANCH  15  28
BRANCH  14  31
HETATM   31  C   UNL     1      42.714  39.711  44.816  1.00  0.00     0.014 C 
HETATM   32  C   UNL     1      42.085  39.385  43.459  1.00  0.00     0.012 C 
BRANCH  31  33
HETATM   33  C   UNL     1      44.075  39.004  44.943  1.00  0.00     0.002 C 
HETATM   34  C   UNL     1      44.153  38.040  46.119  1.00  0.00     0.005 C 
ENDBRANCH  31  33
ENDBRANCH  14  31
BRANCH  13  35
HETATM   35  C   UNL     1      39.672  47.846  41.748  1.00  0.00     0.014 C 
HETATM   36  C   UNL     1      38.216  48.245  42.004  1.00  0.00     0.012 C 
BRANCH  35  37
HETATM   37  C   UNL     1      40.545  49.109  41.634  1.00  0.00     0.002 C 
HETATM   38  C   UNL     1      41.994  48.886  42.041  1.00  0.00     0.005 C 
ENDBRANCH  35  37
ENDBRANCH  13  35
BRANCH  17  39
HETATM   39  C   UNL     1      44.100  43.767  48.834  1.00  0.00     0.016 C 
HETATM   40  C   UNL     1      45.266  42.918  48.333  1.00  0.00     0.012 C 
HETATM   41  C   UNL     1      43.620  43.269  50.196  1.00  0.00     0.012 C 
ENDBRANCH  17  39
BRANCH  18  42
HETATM   42  C   UNL     1      37.503  45.626  46.128  1.00  0.00     0.016 C 
HETATM   43  C   UNL     1      37.398  44.545  45.053  1.00  0.00     0.012 C 
HETATM   44  C   UNL     1      36.938  45.120  47.453  1.00  0.00     0.012 C 
ENDBRANCH  18  42
BRANCH  16  45
HETATM   45  C   UNL     1      42.798  48.070  47.251  1.00  0.00     0.010 C 
HETATM   46  C   UNL     1      43.470  48.158  45.881  1.00  0.00     0.012 C 
HETATM   47  C   UNL     1      43.799  47.606  48.308  1.00  0.00     0.012 C 
ENDBRANCH  16  45
TORSDOF 8
ENDMDL
MODEL 10
REMARK VINA RESULT:    -4.862      4.847      7.548
REMARK INTER + INTRA:          -6.555
REMARK INTER:                  -7.278
REMARK INTRA:                   0.722
REMARK UNBOUND:                 0.580
REMARK  8 active torsions:
REMARK  status: ('A' for Active; 'I' for Inactive)
REMARK    1  A    between atoms: C_13  and  C_15 
REMARK    2  A    between atoms: C_14  and  C_16 
REMARK    3  A    between atoms: C_15  and  C_22 
REMARK    4  A    between atoms: C_16  and  C_23 
REMARK    5  A    between atoms: C_17  and  C_21 
REMARK    6  A    between atoms: C_18  and  C_24 
REMARK    7  A    between atoms: C_19  and  C_27 
REMARK    8  A    between atoms: C_20  and  C_30 
ROOT
HETATM    1  O   UNL     1      29.796  45.770  46.854  1.00  0.00    -0.304 OA
HETATM    2  O   UNL     1      33.874  48.375  46.693  1.00  0.00    -0.304 OA
HETATM    3  O   UNL     1      34.347  45.067  48.989  1.00  0.00    -0.304 OA
HETATM    4  O   UNL     1      32.205  45.822  45.791  1.00  0.00    -0.270 OA
HETATM    5  O   UNL     1      30.318  47.182  48.604  1.00  0.00    -0.263 OA
HETATM    6  O   UNL     1      32.253  43.692  48.324  1.00  0.00    -0.270 OA
HETATM    7  O   UNL     1      35.369  49.203  45.150  1.00  0.00    -0.263 OA
HETATM    8  O   UNL     1      36.729  49.915  47.863  1.00  0.00    -0.270 OA
HETATM    9  O   UNL     1      35.744  46.349  50.302  1.00  0.00    -0.263 OA
HETATM   10  N   UNL     1      32.027  47.932  44.844  1.00  0.00    -0.340 N 
HETATM   11  N   UNL     1      30.988  44.797  49.925  1.00  0.00    -0.340 N 
HETATM   12  N   UNL     1      36.689  47.601  48.003  1.00  0.00    -0.340 N 
HETATM   13  C   UNL     1      33.441  47.921  44.402  1.00  0.00     0.190 C 
HETATM   14  C   UNL     1      29.820  44.835  49.024  1.00  0.00     0.190 C 
HETATM   15  C   UNL     1      30.030  46.817  45.891  1.00  0.00     0.227 C 
HETATM   16  C   UNL     1      35.980  46.311  47.869  1.00  0.00     0.190 C 
HETATM   17  C   UNL     1      33.482  44.724  50.092  1.00  0.00     0.227 C 
HETATM   18  C   UNL     1      34.539  48.920  47.836  1.00  0.00     0.227 C 
HETATM   19  C   UNL     1      31.515  46.809  45.512  1.00  0.00     0.250 C 
HETATM   20  C   UNL     1      30.009  46.081  48.168  1.00  0.00     0.283 C 
HETATM   21  C   UNL     1      32.194  44.331  49.380  1.00  0.00     0.250 C 
HETATM   22  C   UNL     1      34.331  48.617  45.432  1.00  0.00     0.283 C 
HETATM   23  C   UNL     1      36.082  48.862  47.883  1.00  0.00     0.250 C 
HETATM   24  C   UNL     1      35.376  45.935  49.213  1.00  0.00     0.283 C 
HETATM   25  C   UNL     1      31.278  49.171  44.608  1.00  0.00     0.153 C 
HETATM   26  C   UNL     1      30.869  45.372  51.267  1.00  0.00     0.153 C 
HETATM   27  C   UNL     1      38.125  47.559  48.279  1.00  0.00     0.153 C 
ENDROOT
BRANCH  15  28
HETATM   28  C   UNL     1      29.175  46.498  44.671  1.00  0.00     0.016 C 
HETATM   29  C   UNL     1      28.968  44.991  44.536  1.00  0.00     0.012 C 
HETATM   30  C   UNL     1      27.830  47.218  44.752  1.00  0.00     0.012 C 
ENDBRANCH  15  28
BRANCH  14  31
HETATM   31  C   UNL     1      28.450  44.870  49.688  1.00  0.00     0.014 C 
HETATM   32  C   UNL     1      27.382  45.229  48.651  1.00  0.00     0.012 C 
BRANCH  31  33
HETATM   33  C   UNL     1      28.094  43.535  50.364  1.00  0.00     0.002 C 
HETATM   34  C   UNL     1      27.540  43.695  51.774  1.00  0.00     0.005 C 
ENDBRANCH  31  33
ENDBRANCH  14  31
BRANCH  13  35
HETATM   35  C   UNL     1      33.645  48.502  43.003  1.00  0.00     0.014 C 
HETATM   36  C   UNL     1      35.110  48.348  42.586  1.00  0.00     0.012 C 
BRANCH  35  37
HETATM   37  C   UNL     1      32.733  47.840  41.955  1.00  0.00     0.002 C 
HETATM   38  C   UNL     1      33.381  47.701  40.585  1.00  0.00     0.005 C 
ENDBRANCH  35  37
ENDBRANCH  13  35
BRANCH  17  39
HETATM   39  C   UNL     1      34.053  43.545  50.860  1.00  0.00     0.016 C 
HETATM   40  C   UNL     1      34.521  43.984  52.246  1.00  0.00     0.012 C 
HETATM   41  C   UNL     1      35.201  42.904  50.083  1.00  0.00     0.012 C 
ENDBRANCH  17  39
BRANCH  18  42
HETATM   42  C   UNL     1      34.028  50.348  48.029  1.00  0.00     0.016 C 
HETATM   43  C   UNL     1      32.547  50.447  47.661  1.00  0.00     0.012 C 
HETATM   44  C   UNL     1      34.253  50.813  49.466  1.00  0.00     0.012 C 
ENDBRANCH  18  42
BRANCH  16  45
HETATM   45  C   UNL     1      36.829  45.158  47.337  1.00  0.00     0.010 C 
HETATM   46  C   UNL     1      36.010  44.270  46.402  1.00  0.00     0.012 C 
HETATM   47  C   UNL     1      37.405  44.334  48.488  1.00  0.00     0.012 C 
ENDBRANCH  16  45
TORSDOF 8
ENDMDL
MODEL 11
REMARK VINA RESULT:    -4.806      2.334      4.411
REMARK INTER + INTRA:          -6.473
REMARK INTER:                  -7.037
REMARK INTRA:                   0.564
REMARK UNBOUND:                 0.580
REMARK  8 active torsions:
REMARK  status: ('A' for Active; 'I' for Inactive)
REMARK    1  A    between atoms: C_13  and  C_15 
REMARK    2  A    between atoms: C_14  and  C_16 
REMARK    3  A    between atoms: C_15  and  C_22 
REMARK    4  A    between atoms: C_16  and  C_23 
REMARK    5  A    between atoms: C_17  and  C_21 
REMARK    6  A    between atoms: C_18  and  C_24 
REMARK    7  A    between atoms: C_19  and  C_27 
REMARK    8  A    between atoms: C_20  and  C_30 
ROOT
HETATM    1  O   UNL     1      28.228  45.797  46.324  1.00  0.00    -0.304 OA
HETATM    2  O   UNL     1      28.897  50.007  44.028  1.00  0.00    -0.304 OA
HETATM    3  O   UNL     1      32.437  48.381  45.153  1.00  0.00    -0.304 OA
HETATM    4  O   UNL     1      29.014  46.828  44.031  1.00  0.00    -0.270 OA
HETATM    5  O   UNL     1      28.606  47.717  47.548  1.00  0.00    -0.263 OA
HETATM    6  O   UNL     1      31.714  45.962  45.740  1.00  0.00    -0.270 OA
HETATM    7  O   UNL     1      28.422  51.000  42.007  1.00  0.00    -0.263 OA
HETATM    8  O   UNL     1      30.231  53.123  43.397  1.00  0.00    -0.270 OA
HETATM    9  O   UNL     1      33.164  50.544  45.488  1.00  0.00    -0.263 OA
HETATM   10  N   UNL     1      27.106  48.091  43.646  1.00  0.00    -0.340 N 
HETATM   11  N   UNL     1      31.168  46.622  47.896  1.00  0.00    -0.340 N 
HETATM   12  N   UNL     1      31.703  51.337  43.257  1.00  0.00    -0.340 N 
HETATM   13  C   UNL     1      27.692  48.720  42.438  1.00  0.00     0.190 C 
HETATM   14  C   UNL     1      29.985  45.740  47.903  1.00  0.00     0.190 C 
HETATM   15  C   UNL     1      27.202  46.448  45.549  1.00  0.00     0.227 C 
HETATM   16  C   UNL     1      32.013  49.903  43.429  1.00  0.00     0.190 C 
HETATM   17  C   UNL     1      32.743  47.977  46.505  1.00  0.00     0.227 C 
HETATM   18  C   UNL     1      29.563  51.144  44.587  1.00  0.00     0.227 C 
HETATM   19  C   UNL     1      27.860  47.138  44.348  1.00  0.00     0.250 C 
HETATM   20  C   UNL     1      28.869  46.556  47.264  1.00  0.00     0.283 C 
HETATM   21  C   UNL     1      31.857  46.750  46.681  1.00  0.00     0.250 C 
HETATM   22  C   UNL     1      28.334  50.062  42.789  1.00  0.00     0.283 C 
HETATM   23  C   UNL     1      30.515  51.954  43.680  1.00  0.00     0.250 C 
HETATM   24  C   UNL     1      32.619  49.688  44.807  1.00  0.00     0.283 C 
HETATM   25  C   UNL     1      25.787  48.578  44.062  1.00  0.00     0.153 C 
HETATM   26  C   UNL     1      31.470  47.414  49.091  1.00  0.00     0.153 C 
HETATM   27  C   UNL     1      32.707  52.172  42.596  1.00  0.00     0.153 C 
ENDROOT
BRANCH  15  28
HETATM   28  C   UNL     1      26.247  45.362  45.072  1.00  0.00     0.016 C 
HETATM   29  C   UNL     1      27.011  44.085  44.728  1.00  0.00     0.012 C 
HETATM   30  C   UNL     1      25.180  45.079  46.129  1.00  0.00     0.012 C 
ENDBRANCH  15  28
BRANCH  14  31
HETATM   31  C   UNL     1      29.530  45.222  49.261  1.00  0.00     0.014 C 
HETATM   32  C   UNL     1      28.090  44.714  49.164  1.00  0.00     0.012 C 
BRANCH  31  33
HETATM   33  C   UNL     1      30.443  44.105  49.796  1.00  0.00     0.002 C 
HETATM   34  C   UNL     1      30.756  44.233  51.281  1.00  0.00     0.005 C 
ENDBRANCH  31  33
ENDBRANCH  14  31
BRANCH  13  35
HETATM   35  C   UNL     1      26.699  48.858  41.285  1.00  0.00     0.014 C 
HETATM   36  C   UNL     1      27.442  49.254  40.006  1.00  0.00     0.012 C 
BRANCH  35  37
HETATM   37  C   UNL     1      25.897  47.567  41.042  1.00  0.00     0.002 C 
HETATM   38  C   UNL     1      25.158  47.551  39.711  1.00  0.00     0.005 C 
ENDBRANCH  35  37
ENDBRANCH  13  35
BRANCH  17  39
HETATM   39  C   UNL     1      34.209  47.602  46.622  1.00  0.00     0.016 C 
HETATM   40  C   UNL     1      34.676  46.865  45.369  1.00  0.00     0.012 C 
HETATM   41  C   UNL     1      34.447  46.748  47.866  1.00  0.00     0.012 C 
ENDBRANCH  17  39
BRANCH  18  42
HETATM   42  C   UNL     1      28.495  52.038  45.219  1.00  0.00     0.016 C 
HETATM   43  C   UNL     1      27.384  51.195  45.844  1.00  0.00     0.012 C 
HETATM   44  C   UNL     1      29.115  52.964  46.263  1.00  0.00     0.012 C 
ENDBRANCH  18  42
BRANCH  16  45
HETATM   45  C   UNL     1      32.924  49.304  42.359  1.00  0.00     0.010 C 
HETATM   46  C   UNL     1      32.542  47.852  42.074  1.00  0.00     0.012 C 
HETATM   47  C   UNL     1      34.390  49.398  42.781  1.00  0.00     0.012 C 
ENDBRANCH  16  45
TORSDOF 8
ENDMDL
MODEL 12
REMARK VINA RESULT:    -4.488      5.444      9.255
REMARK INTER + INTRA:          -6.006
REMARK INTER:                  -6.637
REMARK INTRA:                   0.631
REMARK UNBOUND:                 0.580
REMARK  8 active torsions:
REMARK  status: ('A' for Active; 'I' for Inactive)
REMARK    1  A    between atoms: C_13  and  C_15 
REMARK    2  A    between atoms: C_14  and  C_16 
REMARK    3  A    between atoms: C_15  and  C_22 
REMARK    4  A    between atoms: C_16  and  C_23 
REMARK    5  A    between atoms: C_17  and  C_21 
REMARK    6  A    between atoms: C_18  and  C_24 
REMARK    7  A    between atoms: C_19  and  C_27 
REMARK    8  A    between atoms: C_20  and  C_30 
ROOT
HETATM    1  O   UNL     1      29.365  44.380  52.382  1.00  0.00    -0.304 OA
HETATM    2  O   UNL     1      30.535  47.640  48.998  1.00  0.00    -0.304 OA
HETATM    3  O   UNL     1      33.695  45.260  49.885  1.00  0.00    -0.304 OA
HETATM    4  O   UNL     1      29.822  44.646  49.801  1.00  0.00    -0.270 OA
HETATM    5  O   UNL     1      30.506  46.293  52.986  1.00  0.00    -0.263 OA
HETATM    6  O   UNL     1      32.532  43.348  51.190  1.00  0.00    -0.270 OA
HETATM    7  O   UNL     1      29.865  48.311  46.900  1.00  0.00    -0.263 OA
HETATM    8  O   UNL     1      32.439  50.006  47.366  1.00  0.00    -0.270 OA
HETATM    9  O   UNL     1      35.016  47.117  49.521  1.00  0.00    -0.263 OA
HETATM   10  N   UNL     1      28.271  46.331  49.434  1.00  0.00    -0.340 N 
HETATM   11  N   UNL     1      32.705  44.556  53.163  1.00  0.00    -0.340 N 
HETATM   12  N   UNL     1      33.322  47.864  47.443  1.00  0.00    -0.340 N 
HETATM   13  C   UNL     1      28.695  46.499  48.023  1.00  0.00     0.190 C 
HETATM   14  C   UNL     1      31.370  44.100  53.599  1.00  0.00     0.190 C 
HETATM   15  C   UNL     1      28.388  45.149  51.652  1.00  0.00     0.227 C 
HETATM   16  C   UNL     1      33.282  46.467  47.925  1.00  0.00     0.190 C 
HETATM   17  C   UNL     1      34.199  45.058  51.223  1.00  0.00     0.227 C 
HETATM   18  C   UNL     1      31.585  48.604  49.123  1.00  0.00     0.227 C 
HETATM   19  C   UNL     1      28.897  45.352  50.219  1.00  0.00     0.250 C 
HETATM   20  C   UNL     1      30.385  45.076  52.970  1.00  0.00     0.283 C 
HETATM   21  C   UNL     1      33.094  44.223  51.858  1.00  0.00     0.250 C 
HETATM   22  C   UNL     1      29.726  47.620  47.901  1.00  0.00     0.283 C 
HETATM   23  C   UNL     1      32.470  48.887  47.889  1.00  0.00     0.250 C 
HETATM   24  C   UNL     1      34.122  46.354  49.187  1.00  0.00     0.283 C 
HETATM   25  C   UNL     1      27.261  47.272  49.928  1.00  0.00     0.153 C 
HETATM   26  C   UNL     1      33.476  45.437  54.044  1.00  0.00     0.153 C 
HETATM   27  C   UNL     1      34.320  48.202  46.428  1.00  0.00     0.153 C 
ENDROOT
BRANCH  15  28
HETATM   28  C   UNL     1      27.100  44.338  51.641  1.00  0.00     0.016 C 
HETATM   29  C   UNL     1      27.299  42.999  52.349  1.00  0.00     0.012 C 
HETATM   30  C   UNL     1      25.962  45.123  52.292  1.00  0.00     0.012 C 
ENDBRANCH  15  28
BRANCH  14  31
HETATM   31  C   UNL     1      31.134  44.025  55.101  1.00  0.00     0.014 C 
HETATM   32  C   UNL     1      29.646  44.223  55.400  1.00  0.00     0.012 C 
BRANCH  31  33
HETATM   33  C   UNL     1      31.615  42.694  55.704  1.00  0.00     0.002 C 
HETATM   34  C   UNL     1      32.820  42.841  56.623  1.00  0.00     0.005 C 
ENDBRANCH  31  33
ENDBRANCH  14  31
BRANCH  13  35
HETATM   35  C   UNL     1      27.527  46.705  47.060  1.00  0.00     0.014 C 
HETATM   36  C   UNL     1      28.038  46.695  45.616  1.00  0.00     0.012 C 
BRANCH  35  37
HETATM   37  C   UNL     1      26.429  45.639  47.230  1.00  0.00     0.002 C 
HETATM   38  C   UNL     1      25.879  45.116  45.912  1.00  0.00     0.005 C 
ENDBRANCH  35  37
ENDBRANCH  13  35
BRANCH  17  39
HETATM   39  C   UNL     1      35.502  44.281  51.181  1.00  0.00     0.016 C 
HETATM   40  C   UNL     1      35.360  43.041  50.302  1.00  0.00     0.012 C 
HETATM   41  C   UNL     1      35.941  43.892  52.591  1.00  0.00     0.012 C 
ENDBRANCH  17  39
BRANCH  18  42
HETATM   42  C   UNL     1      30.967  49.890  49.674  1.00  0.00     0.016 C 
HETATM   43  C   UNL     1      29.856  49.570  50.674  1.00  0.00     0.012 C 
HETATM   44  C   UNL     1      32.035  50.767  50.325  1.00  0.00     0.012 C 
ENDBRANCH  18  42
BRANCH  16  45
HETATM   45  C   UNL     1      33.726  45.419  46.906  1.00  0.00     0.010 C 
HETATM   46  C   UNL     1      32.720  44.270  46.840  1.00  0.00     0.012 C 
HETATM   47  C   UNL     1      35.119  44.890  47.245  1.00  0.00     0.012 C 
ENDBRANCH  16  45
TORSDOF 8
ENDMDL
MODEL 13
REMARK VINA RESULT:    -4.253      4.059      9.269
REMARK INTER + INTRA:          -5.661
REMARK INTER:                  -5.946
REMARK INTRA:                   0.285
REMARK UNBOUND:                 0.580
REMARK  8 active torsions:
REMARK  status: ('A' for Active; 'I' for Inactive)
REMARK    1  A    between atoms: C_13  and  C_15 
REMARK    2  A    between atoms: C_14  and  C_16 
REMARK    3  A    between atoms: C_15  and  C_22 
REMARK    4  A    between atoms: C_16  and  C_23 
REMARK    5  A    between atoms: C_17  and  C_21 
REMARK    6  A    between atoms: C_18  and  C_24 
REMARK    7  A    between atoms: C_19  and  C_27 
REMARK    8  A    between atoms: C_20  and  C_30 
ROOT
HETATM    1  O   UNL     1      29.533  47.710  52.088  1.00  0.00    -0.304 OA
HETATM    2  O   UNL     1      29.261  46.341  47.451  1.00  0.00    -0.304 OA
HETATM    3  O   UNL     1      29.039  50.375  47.797  1.00  0.00    -0.304 OA
HETATM    4  O   UNL     1      30.919  47.612  49.850  1.00  0.00    -0.270 OA
HETATM    5  O   UNL     1      27.473  47.583  51.054  1.00  0.00    -0.263 OA
HETATM    6  O   UNL     1      29.829  50.713  50.241  1.00  0.00    -0.270 OA
HETATM    7  O   UNL     1      30.478  45.160  45.895  1.00  0.00    -0.263 OA
HETATM    8  O   UNL     1      28.124  46.295  44.197  1.00  0.00    -0.270 OA
HETATM    9  O   UNL     1      27.597  50.308  45.997  1.00  0.00    -0.263 OA
HETATM   10  N   UNL     1      30.649  45.339  49.475  1.00  0.00    -0.340 N 
HETATM   11  N   UNL     1      27.665  50.384  51.012  1.00  0.00    -0.340 N 
HETATM   12  N   UNL     1      29.129  48.263  44.897  1.00  0.00    -0.340 N 
HETATM   13  C   UNL     1      31.329  45.412  48.160  1.00  0.00     0.190 C 
HETATM   14  C   UNL     1      28.160  49.630  52.181  1.00  0.00     0.190 C 
HETATM   15  C   UNL     1      29.885  46.389  51.630  1.00  0.00     0.227 C 
HETATM   16  C   UNL     1      29.723  49.104  45.957  1.00  0.00     0.190 C 
HETATM   17  C   UNL     1      28.089  51.058  48.642  1.00  0.00     0.227 C 
HETATM   18  C   UNL     1      28.168  46.637  46.577  1.00  0.00     0.227 C 
HETATM   19  C   UNL     1      30.525  46.508  50.242  1.00  0.00     0.250 C 
HETATM   20  C   UNL     1      28.314  48.194  51.700  1.00  0.00     0.283 C 
HETATM   21  C   UNL     1      28.610  50.734  50.036  1.00  0.00     0.250 C 
HETATM   22  C   UNL     1      30.306  45.572  47.035  1.00  0.00     0.283 C 
HETATM   23  C   UNL     1      28.485  47.035  45.118  1.00  0.00     0.250 C 
HETATM   24  C   UNL     1      28.642  49.996  46.547  1.00  0.00     0.283 C 
HETATM   25  C   UNL     1      30.084  44.038  49.847  1.00  0.00     0.153 C 
HETATM   26  C   UNL     1      26.223  50.595  50.863  1.00  0.00     0.153 C 
HETATM   27  C   UNL     1      29.222  48.746  43.519  1.00  0.00     0.153 C 
ENDROOT
BRANCH  15  28
HETATM   28  C   UNL     1      30.891  45.826  52.625  1.00  0.00     0.016 C 
HETATM   29  C   UNL     1      31.527  46.949  53.443  1.00  0.00     0.012 C 
HETATM   30  C   UNL     1      30.226  44.804  53.545  1.00  0.00     0.012 C 
ENDBRANCH  15  28
BRANCH  14  31
HETATM   31  C   UNL     1      27.290  49.664  53.431  1.00  0.00     0.014 C 
HETATM   32  C   UNL     1      27.636  48.477  54.333  1.00  0.00     0.012 C 
BRANCH  31  33
HETATM   33  C   UNL     1      27.445  50.979  54.215  1.00  0.00     0.002 C 
HETATM   34  C   UNL     1      27.997  50.788  55.621  1.00  0.00     0.005 C 
ENDBRANCH  31  33
ENDBRANCH  14  31
BRANCH  13  35
HETATM   35  C   UNL     1      32.271  44.238  47.898  1.00  0.00     0.014 C 
HETATM   36  C   UNL     1      33.321  44.638  46.858  1.00  0.00     0.012 C 
BRANCH  35  37
HETATM   37  C   UNL     1      32.968  43.747  49.179  1.00  0.00     0.002 C 
HETATM   38  C   UNL     1      34.215  44.542  49.537  1.00  0.00     0.005 C 
ENDBRANCH  35  37
ENDBRANCH  13  35
BRANCH  17  39
HETATM   39  C   UNL     1      28.137  52.553  48.385  1.00  0.00     0.016 C 
HETATM   40  C   UNL     1      28.561  53.301  49.647  1.00  0.00     0.012 C 
HETATM   41  C   UNL     1      26.783  53.057  47.891  1.00  0.00     0.012 C 
ENDBRANCH  17  39
BRANCH  18  42
HETATM   42  C   UNL     1      27.198  45.457  46.636  1.00  0.00     0.016 C 
HETATM   43  C   UNL     1      26.985  45.004  48.081  1.00  0.00     0.012 C 
HETATM   44  C   UNL     1      25.863  45.822  45.988  1.00  0.00     0.012 C 
ENDBRANCH  18  42
BRANCH  16  45
HETATM   45  C   UNL     1      30.918  49.949  45.520  1.00  0.00     0.010 C 
HETATM   46  C   UNL     1      32.134  49.663  46.400  1.00  0.00     0.012 C 
HETATM   47  C   UNL     1      30.571  51.437  45.556  1.00  0.00     0.012 C 
ENDBRANCH  16  45
TORSDOF 8
ENDMDL
MODEL 14
REMARK VINA RESULT:    -4.238      2.151      6.374
REMARK INTER + INTRA:          -5.640
REMARK INTER:                  -6.678
REMARK INTRA:                   1.038
REMARK UNBOUND:                 0.580
REMARK  8 active torsions:
REMARK  status: ('A' for Active; 'I' for Inactive)
REMARK    1  A    between atoms: C_13  and  C_15 
REMARK    2  A    between atoms: C_14  and  C_16 
REMARK    3  A    between atoms: C_15  and  C_22 
REMARK    4  A    between atoms: C_16  and  C_23 
REMARK    5  A    between atoms: C_17  and  C_21 
REMARK    6  A    between atoms: C_18  and  C_24 
REMARK    7  A    between atoms: C_19  and  C_27 
REMARK    8  A    between atoms: C_20  and  C_30 
ROOT
HETATM    1  O   UNL     1      27.398  46.356  45.476  1.00  0.00    -0.304 OA
HETATM    2  O   UNL     1      30.597  49.635  43.905  1.00  0.00    -0.304 OA
HETATM    3  O   UNL     1      27.028  50.063  42.029  1.00  0.00    -0.304 OA
HETATM    4  O   UNL     1      28.032  48.908  45.640  1.00  0.00    -0.270 OA
HETATM    5  O   UNL     1      28.515  46.000  43.488  1.00  0.00    -0.263 OA
HETATM    6  O   UNL     1      25.493  48.620  43.537  1.00  0.00    -0.270 OA
HETATM    7  O   UNL     1      31.929  51.322  44.727  1.00  0.00    -0.263 OA
HETATM    8  O   UNL     1      32.316  51.591  41.646  1.00  0.00    -0.270 OA
HETATM    9  O   UNL     1      28.241  50.679  40.166  1.00  0.00    -0.263 OA
HETATM   10  N   UNL     1      30.229  48.589  46.313  1.00  0.00    -0.340 N 
HETATM   11  N   UNL     1      26.058  46.718  42.334  1.00  0.00    -0.340 N 
HETATM   12  N   UNL     1      30.041  52.002  41.825  1.00  0.00    -0.340 N 
HETATM   13  C   UNL     1      30.526  50.039  46.244  1.00  0.00     0.190 C 
HETATM   14  C   UNL     1      26.082  45.905  43.567  1.00  0.00     0.190 C 
HETATM   15  C   UNL     1      28.633  46.650  46.160  1.00  0.00     0.227 C 
HETATM   16  C   UNL     1      28.705  51.660  42.356  1.00  0.00     0.190 C 
HETATM   17  C   UNL     1      26.349  48.993  41.339  1.00  0.00     0.227 C 
HETATM   18  C   UNL     1      31.012  49.781  42.544  1.00  0.00     0.227 C 
HETATM   19  C   UNL     1      28.932  48.146  46.009  1.00  0.00     0.250 C 
HETATM   20  C   UNL     1      27.482  46.082  44.140  1.00  0.00     0.283 C 
HETATM   21  C   UNL     1      25.901  48.103  42.491  1.00  0.00     0.250 C 
HETATM   22  C   UNL     1      31.144  50.397  44.893  1.00  0.00     0.283 C 
HETATM   23  C   UNL     1      31.190  51.209  41.982  1.00  0.00     0.250 C 
HETATM   24  C   UNL     1      27.990  50.763  41.358  1.00  0.00     0.283 C 
HETATM   25  C   UNL     1      31.356  47.705  46.630  1.00  0.00     0.153 C 
HETATM   26  C   UNL     1      26.341  46.070  41.052  1.00  0.00     0.153 C 
HETATM   27  C   UNL     1      30.175  53.257  41.085  1.00  0.00     0.153 C 
ENDROOT
BRANCH  15  28
HETATM   28  C   UNL     1      28.422  46.303  47.628  1.00  0.00     0.016 C 
HETATM   29  C   UNL     1      27.020  45.740  47.854  1.00  0.00     0.012 C 
HETATM   30  C   UNL     1      29.480  45.310  48.105  1.00  0.00     0.012 C 
ENDBRANCH  15  28
BRANCH  14  31
HETATM   31  C   UNL     1      25.773  44.423  43.410  1.00  0.00     0.014 C 
HETATM   32  C   UNL     1      26.283  43.656  44.633  1.00  0.00     0.012 C 
BRANCH  31  33
HETATM   33  C   UNL     1      24.270  44.156  43.216  1.00  0.00     0.002 C 
HETATM   34  C   UNL     1      23.940  43.451  41.907  1.00  0.00     0.005 C 
ENDBRANCH  31  33
ENDBRANCH  14  31
BRANCH  13  35
HETATM   35  C   UNL     1      31.387  50.537  47.404  1.00  0.00     0.014 C 
HETATM   36  C   UNL     1      31.278  52.061  47.514  1.00  0.00     0.012 C 
BRANCH  35  37
HETATM   37  C   UNL     1      30.998  49.890  48.745  1.00  0.00     0.002 C 
HETATM   38  C   UNL     1      29.705  50.437  49.333  1.00  0.00     0.005 C 
ENDBRANCH  35  37
ENDBRANCH  13  35
BRANCH  17  39
HETATM   39  C   UNL     1      25.151  49.534  40.580  1.00  0.00     0.016 C 
HETATM   40  C   UNL     1      25.390  49.457  39.074  1.00  0.00     0.012 C 
HETATM   41  C   UNL     1      24.852  50.970  41.003  1.00  0.00     0.012 C 
ENDBRANCH  17  39
BRANCH  18  42
HETATM   42  C   UNL     1      32.278  48.944  42.356  1.00  0.00     0.016 C 
HETATM   43  C   UNL     1      32.166  47.618  43.108  1.00  0.00     0.012 C 
HETATM   44  C   UNL     1      32.546  48.697  40.873  1.00  0.00     0.012 C 
ENDBRANCH  18  42
BRANCH  16  45
HETATM   45  C   UNL     1      27.824  52.856  42.710  1.00  0.00     0.010 C 
HETATM   46  C   UNL     1      27.406  53.611  41.449  1.00  0.00     0.012 C 
HETATM   47  C   UNL     1      28.546  53.793  43.678  1.00  0.00     0.012 C 
ENDBRANCH  16  45
TORSDOF 8
ENDMDL
MODEL 15
REMARK VINA RESULT:    -4.155      9.056     13.422
REMARK INTER + INTRA:          -5.518
REMARK INTER:                  -6.200
REMARK INTRA:                   0.683
REMARK UNBOUND:                 0.580
REMARK  8 active torsions:
REMARK  status: ('A' for Active; 'I' for Inactive)
REMARK    1  A    between atoms: C_13  and  C_15 
REMARK    2  A    between atoms: C_14  and  C_16 
REMARK    3  A    between atoms: C_15  and  C_22 
REMARK    4  A    between atoms: C_16  and  C_23 
REMARK    5  A    between atoms: C_17  and  C_21 
REMARK    6  A    between atoms: C_18  and  C_24 
REMARK    7  A    between atoms: C_19  and  C_27 
REMARK    8  A    between atoms: C_20  and  C_30 
ROOT
HETATM    1  O   UNL     1      26.384  47.262  51.514  1.00  0.00    -0.304 OA
HETATM    2  O   UNL     1      25.079  46.009  56.006  1.00  0.00    -0.304 OA
HETATM    3  O   UNL     1      22.664  48.919  54.544  1.00  0.00    -0.304 OA
HETATM    4  O   UNL     1      24.563  45.924  52.868  1.00  0.00    -0.270 OA
HETATM    5  O   UNL     1      27.044  48.566  53.300  1.00  0.00    -0.263 OA
HETATM    6  O   UNL     1      23.263  48.848  52.024  1.00  0.00    -0.270 OA
HETATM    7  O   UNL     1      24.425  44.146  57.189  1.00  0.00    -0.263 OA
HETATM    8  O   UNL     1      24.056  46.436  59.271  1.00  0.00    -0.270 OA
HETATM    9  O   UNL     1      22.561  49.723  56.704  1.00  0.00    -0.263 OA
HETATM   10  N   UNL     1      26.043  44.552  54.012  1.00  0.00    -0.340 N 
HETATM   11  N   UNL     1      25.038  50.301  52.379  1.00  0.00    -0.340 N 
HETATM   12  N   UNL     1      22.552  47.102  57.636  1.00  0.00    -0.340 N 
HETATM   13  C   UNL     1      24.958  43.953  54.823  1.00  0.00     0.190 C 
HETATM   14  C   UNL     1      25.876  49.567  51.412  1.00  0.00     0.190 C 
HETATM   15  C   UNL     1      26.849  46.064  52.169  1.00  0.00     0.227 C 
HETATM   16  C   UNL     1      22.211  47.353  56.220  1.00  0.00     0.190 C 
HETATM   17  C   UNL     1      23.146  50.170  54.009  1.00  0.00     0.227 C 
HETATM   18  C   UNL     1      25.018  46.907  57.118  1.00  0.00     0.227 C 
HETATM   19  C   UNL     1      25.716  45.516  53.046  1.00  0.00     0.250 C 
HETATM   20  C   UNL     1      26.513  48.434  52.206  1.00  0.00     0.283 C 
HETATM   21  C   UNL     1      23.798  49.731  52.704  1.00  0.00     0.250 C 
HETATM   22  C   UNL     1      24.823  44.680  56.162  1.00  0.00     0.283 C 
HETATM   23  C   UNL     1      23.836  46.775  58.103  1.00  0.00     0.250 C 
HETATM   24  C   UNL     1      22.492  48.811  55.894  1.00  0.00     0.283 C 
HETATM   25  C   UNL     1      27.411  44.135  54.340  1.00  0.00     0.153 C 
HETATM   26  C   UNL     1      25.592  51.481  53.046  1.00  0.00     0.153 C 
HETATM   27  C   UNL     1      21.474  47.199  58.620  1.00  0.00     0.153 C 
ENDROOT
BRANCH  15  28
HETATM   28  C   UNL     1      27.197  45.064  51.075  1.00  0.00     0.016 C 
HETATM   29  C   UNL     1      26.971  45.676  49.693  1.00  0.00     0.012 C 
HETATM   30  C   UNL     1      28.641  44.587  51.219  1.00  0.00     0.012 C 
ENDBRANCH  15  28
BRANCH  14  31
HETATM   31  C   UNL     1      26.958  50.370  50.702  1.00  0.00     0.014 C 
HETATM   32  C   UNL     1      27.960  49.418  50.044  1.00  0.00     0.012 C 
BRANCH  31  33
HETATM   33  C   UNL     1      26.378  51.329  49.648  1.00  0.00     0.002 C 
HETATM   34  C   UNL     1      27.075  52.682  49.606  1.00  0.00     0.005 C 
ENDBRANCH  31  33
ENDBRANCH  14  31
BRANCH  13  35
HETATM   35  C   UNL     1      25.108  42.445  55.018  1.00  0.00     0.014 C 
HETATM   36  C   UNL     1      23.731  41.810  55.231  1.00  0.00     0.012 C 
BRANCH  35  37
HETATM   37  C   UNL     1      25.815  41.767  53.830  1.00  0.00     0.002 C 
HETATM   38  C   UNL     1      26.525  40.473  54.202  1.00  0.00     0.005 C 
ENDBRANCH  35  37
ENDBRANCH  13  35
BRANCH  17  39
HETATM   39  C   UNL     1      21.984  51.109  53.740  1.00  0.00     0.016 C 
HETATM   40  C   UNL     1      20.823  50.355  53.096  1.00  0.00     0.012 C 
HETATM   41  C   UNL     1      22.427  52.272  52.854  1.00  0.00     0.012 C 
ENDBRANCH  17  39
BRANCH  18  42
HETATM   42  C   UNL     1      26.362  46.833  57.844  1.00  0.00     0.016 C 
HETATM   43  C   UNL     1      27.505  46.641  56.848  1.00  0.00     0.012 C 
HETATM   44  C   UNL     1      26.591  48.086  58.686  1.00  0.00     0.012 C 
ENDBRANCH  18  42
BRANCH  16  45
HETATM   45  C   UNL     1      20.779  46.996  55.826  1.00  0.00     0.010 C 
HETATM   46  C   UNL     1      20.743  46.364  54.435  1.00  0.00     0.012 C 
HETATM   47  C   UNL     1      19.880  48.230  55.875  1.00  0.00     0.012 C 
ENDBRANCH  16  45
TORSDOF 8
ENDMDL
MODEL 16
REMARK VINA RESULT:    -3.901     14.736     18.233
REMARK INTER + INTRA:          -5.146
REMARK INTER:                  -5.477
REMARK INTRA:                   0.331
REMARK UNBOUND:                 0.580
REMARK  8 active torsions:
REMARK  status: ('A' for Active; 'I' for Inactive)
REMARK    1  A    between atoms: C_13  and  C_15 
REMARK    2  A    between atoms: C_14  and  C_16 
REMARK    3  A    between atoms: C_15  and  C_22 
REMARK    4  A    between atoms: C_16  and  C_23 
REMARK    5  A    between atoms: C_17  and  C_21 
REMARK    6  A    between atoms: C_18  and  C_24 
REMARK    7  A    between atoms: C_19  and  C_27 
REMARK    8  A    between atoms: C_20  and  C_30 
ROOT
HETATM    1  O   UNL     1      42.845  41.723  46.533  1.00  0.00    -0.304 OA
HETATM    2  O   UNL     1      40.985  42.547  50.928  1.00  0.00    -0.304 OA
HETATM    3  O   UNL     1      44.559  40.651  51.189  1.00  0.00    -0.304 OA
HETATM    4  O   UNL     1      43.094  43.263  48.656  1.00  0.00    -0.270 OA
HETATM    5  O   UNL     1      41.748  40.024  47.645  1.00  0.00    -0.263 OA
HETATM    6  O   UNL     1      45.468  40.960  48.782  1.00  0.00    -0.270 OA
HETATM    7  O   UNL     1      40.263  44.304  52.228  1.00  0.00    -0.263 OA
HETATM    8  O   UNL     1      40.103  41.893  54.196  1.00  0.00    -0.270 OA
HETATM    9  O   UNL     1      43.692  39.570  53.033  1.00  0.00    -0.263 OA
HETATM   10  N   UNL     1      40.893  43.994  48.708  1.00  0.00    -0.340 N 
HETATM   11  N   UNL     1      44.344  39.052  48.086  1.00  0.00    -0.340 N 
HETATM   12  N   UNL     1      42.376  41.918  53.739  1.00  0.00    -0.340 N 
HETATM   13  C   UNL     1      41.100  44.723  49.982  1.00  0.00     0.190 C 
HETATM   14  C   UNL     1      44.004  39.682  46.795  1.00  0.00     0.190 C 
HETATM   15  C   UNL     1      41.754  42.635  46.774  1.00  0.00     0.227 C 
HETATM   16  C   UNL     1      43.501  41.994  52.783  1.00  0.00     0.190 C 
HETATM   17  C   UNL     1      44.868  39.418  50.504  1.00  0.00     0.227 C 
HETATM   18  C   UNL     1      40.694  41.532  51.893  1.00  0.00     0.227 C 
HETATM   19  C   UNL     1      41.977  43.318  48.129  1.00  0.00     0.250 C 
HETATM   20  C   UNL     1      42.724  40.464  47.052  1.00  0.00     0.283 C 
HETATM   21  C   UNL     1      44.950  39.871  49.052  1.00  0.00     0.250 C 
HETATM   22  C   UNL     1      40.688  43.854  51.171  1.00  0.00     0.283 C 
HETATM   23  C   UNL     1      41.024  41.815  53.375  1.00  0.00     0.250 C 
HETATM   24  C   UNL     1      43.913  40.585  52.389  1.00  0.00     0.283 C 
HETATM   25  C   UNL     1      39.524  43.976  48.181  1.00  0.00     0.153 C 
HETATM   26  C   UNL     1      43.910  37.677  48.341  1.00  0.00     0.153 C 
HETATM   27  C   UNL     1      42.697  41.955  55.166  1.00  0.00     0.153 C 
ENDROOT
BRANCH  15  28
HETATM   28  C   UNL     1      41.782  43.668  45.655  1.00  0.00     0.016 C 
HETATM   29  C   UNL     1      43.210  43.891  45.162  1.00  0.00     0.012 C 
HETATM   30  C   UNL     1      40.879  43.237  44.501  1.00  0.00     0.012 C 
ENDBRANCH  15  28
BRANCH  14  31
HETATM   31  C   UNL     1      43.806  38.744  45.612  1.00  0.00     0.014 C 
HETATM   32  C   UNL     1      43.105  39.489  44.474  1.00  0.00     0.012 C 
BRANCH  31  33
HETATM   33  C   UNL     1      45.134  38.150  45.108  1.00  0.00     0.002 C 
HETATM   34  C   UNL     1      46.268  39.164  45.041  1.00  0.00     0.005 C 
ENDBRANCH  31  33
ENDBRANCH  14  31
BRANCH  13  35
HETATM   35  C   UNL     1      40.411  46.086  50.019  1.00  0.00     0.014 C 
HETATM   36  C   UNL     1      41.004  46.936  51.146  1.00  0.00     0.012 C 
BRANCH  35  37
HETATM   37  C   UNL     1      40.529  46.841  48.682  1.00  0.00     0.002 C 
HETATM   38  C   UNL     1      40.834  48.323  48.844  1.00  0.00     0.005 C 
ENDBRANCH  35  37
ENDBRANCH  13  35
BRANCH  17  39
HETATM   39  C   UNL     1      46.205  38.876  50.974  1.00  0.00     0.016 C 
HETATM   40  C   UNL     1      47.119  38.597  49.784  1.00  0.00     0.012 C 
HETATM   41  C   UNL     1      46.008  37.612  51.809  1.00  0.00     0.012 C 
ENDBRANCH  17  39
BRANCH  18  42
HETATM   42  C   UNL     1      39.229  41.132  51.713  1.00  0.00     0.016 C 
HETATM   43  C   UNL     1      38.854  41.105  50.231  1.00  0.00     0.012 C 
HETATM   44  C   UNL     1      38.957  39.774  52.357  1.00  0.00     0.012 C 
ENDBRANCH  18  42
BRANCH  16  45
HETATM   45  C   UNL     1      44.717  42.776  53.276  1.00  0.00     0.010 C 
HETATM   46  C   UNL     1      45.071  43.898  52.300  1.00  0.00     0.012 C 
HETATM   47  C   UNL     1      45.913  41.847  53.477  1.00  0.00     0.012 C 
ENDBRANCH  16  45
TORSDOF 8
ENDMDL
MODEL 17
REMARK VINA RESULT:    -3.873      9.646     13.480
REMARK INTER + INTRA:          -5.105
REMARK INTER:                  -5.692
REMARK INTRA:                   0.587
REMARK UNBOUND:                 0.580
REMARK  8 active torsions:
REMARK  status: ('A' for Active; 'I' for Inactive)
REMARK    1  A    between atoms: C_13  and  C_15 
REMARK    2  A    between atoms: C_14  and  C_16 
REMARK    3  A    between atoms: C_15  and  C_22 
REMARK    4  A    between atoms: C_16  and  C_23 
REMARK    5  A    between atoms: C_17  and  C_21 
REMARK    6  A    between atoms: C_18  and  C_24 
REMARK    7  A    between atoms: C_19  and  C_27 
REMARK    8  A    between atoms: C_20  and  C_30 
ROOT
HETATM    1  O   UNL     1      23.753  47.894  54.297  1.00  0.00    -0.304 OA
HETATM    2  O   UNL     1      27.734  45.138  54.318  1.00  0.00    -0.304 OA
HETATM    3  O   UNL     1      24.745  43.398  56.435  1.00  0.00    -0.304 OA
HETATM    4  O   UNL     1      24.787  45.704  53.262  1.00  0.00    -0.270 OA
HETATM    5  O   UNL     1      25.160  47.936  56.126  1.00  0.00    -0.263 OA
HETATM    6  O   UNL     1      22.708  44.807  55.676  1.00  0.00    -0.270 OA
HETATM    7  O   UNL     1      29.157  44.097  52.838  1.00  0.00    -0.263 OA
HETATM    8  O   UNL     1      30.190  43.085  55.599  1.00  0.00    -0.270 OA
HETATM    9  O   UNL     1      26.395  42.589  57.830  1.00  0.00    -0.263 OA
HETATM   10  N   UNL     1      26.713  46.693  52.430  1.00  0.00    -0.340 N 
HETATM   11  N   UNL     1      23.151  46.381  57.322  1.00  0.00    -0.340 N 
HETATM   12  N   UNL     1      28.036  42.227  55.612  1.00  0.00    -0.340 N 
HETATM   13  C   UNL     1      27.273  45.390  52.002  1.00  0.00     0.190 C 
HETATM   14  C   UNL     1      22.784  47.485  56.413  1.00  0.00     0.190 C 
HETATM   15  C   UNL     1      24.859  48.093  53.395  1.00  0.00     0.227 C 
HETATM   16  C   UNL     1      26.582  42.385  55.401  1.00  0.00     0.190 C 
HETATM   17  C   UNL     1      24.036  44.051  57.510  1.00  0.00     0.227 C 
HETATM   18  C   UNL     1      28.431  44.721  55.497  1.00  0.00     0.227 C 
HETATM   19  C   UNL     1      25.446  46.724  53.031  1.00  0.00     0.250 C 
HETATM   20  C   UNL     1      24.050  47.801  55.629  1.00  0.00     0.283 C 
HETATM   21  C   UNL     1      23.216  45.096  56.765  1.00  0.00     0.250 C 
HETATM   22  C   UNL     1      28.202  44.825  53.078  1.00  0.00     0.283 C 
HETATM   23  C   UNL     1      28.970  43.275  55.556  1.00  0.00     0.250 C 
HETATM   24  C   UNL     1      25.930  42.782  56.717  1.00  0.00     0.283 C 
HETATM   25  C   UNL     1      27.578  47.865  52.254  1.00  0.00     0.153 C 
HETATM   26  C   UNL     1      23.562  46.697  58.692  1.00  0.00     0.153 C 
HETATM   27  C   UNL     1      28.537  40.883  55.899  1.00  0.00     0.153 C 
ENDROOT
BRANCH  15  28
HETATM   28  C   UNL     1      24.302  48.773  52.151  1.00  0.00     0.016 C 
HETATM   29  C   UNL     1      22.779  48.862  52.221  1.00  0.00     0.012 C 
HETATM   30  C   UNL     1      24.911  50.163  51.978  1.00  0.00     0.012 C 
ENDBRANCH  15  28
BRANCH  14  31
HETATM   31  C   UNL     1      22.251  48.754  57.065  1.00  0.00     0.014 C 
HETATM   32  C   UNL     1      22.518  49.954  56.152  1.00  0.00     0.012 C 
BRANCH  31  33
HETATM   33  C   UNL     1      20.748  48.662  57.382  1.00  0.00     0.002 C 
HETATM   34  C   UNL     1      19.888  48.343  56.167  1.00  0.00     0.005 C 
ENDBRANCH  31  33
ENDBRANCH  14  31
BRANCH  13  35
HETATM   35  C   UNL     1      27.962  45.443  50.639  1.00  0.00     0.014 C 
HETATM   36  C   UNL     1      28.141  44.024  50.093  1.00  0.00     0.012 C 
BRANCH  35  37
HETATM   37  C   UNL     1      27.185  46.297  49.622  1.00  0.00     0.002 C 
HETATM   38  C   UNL     1      27.000  45.619  48.272  1.00  0.00     0.005 C 
ENDBRANCH  35  37
ENDBRANCH  13  35
BRANCH  17  39
HETATM   39  C   UNL     1      23.130  43.060  58.218  1.00  0.00     0.016 C 
HETATM   40  C   UNL     1      23.747  42.619  59.543  1.00  0.00     0.012 C 
HETATM   41  C   UNL     1      22.854  41.852  57.326  1.00  0.00     0.012 C 
ENDBRANCH  17  39
BRANCH  18  42
HETATM   42  C   UNL     1      29.538  45.742  55.762  1.00  0.00     0.016 C 
HETATM   43  C   UNL     1      29.079  47.149  55.382  1.00  0.00     0.012 C 
HETATM   44  C   UNL     1      29.974  45.698  57.225  1.00  0.00     0.012 C 
ENDBRANCH  18  42
BRANCH  16  45
HETATM   45  C   UNL     1      25.877  41.163  54.816  1.00  0.00     0.010 C 
HETATM   46  C   UNL     1      24.739  41.588  53.888  1.00  0.00     0.012 C 
HETATM   47  C   UNL     1      25.349  40.258  55.928  1.00  0.00     0.012 C 
ENDBRANCH  16  45
TORSDOF 8
ENDMDL
MODEL 18
REMARK VINA RESULT:    -3.803      2.953      6.771
REMARK INTER + INTRA:          -5.001
REMARK INTER:                  -5.322
REMARK INTRA:                   0.321
REMARK UNBOUND:                 0.580
REMARK  8 active torsions:
REMARK  status: ('A' for Active; 'I' for Inactive)
REMARK    1  A    between atoms: C_13  and  C_15 
REMARK    2  A    between atoms: C_14  and  C_16 
REMARK    3  A    between atoms: C_15  and  C_22 
REMARK    4  A    between atoms: C_16  and  C_23 
REMARK    5  A    between atoms: C_17  and  C_21 
REMARK    6  A    between atoms: C_18  and  C_24 
REMARK    7  A    between atoms: C_19  and  C_27 
REMARK    8  A    between atoms: C_20  and  C_30 
ROOT
HETATM    1  O   UNL     1      28.126  48.214  49.789  1.00  0.00    -0.304 OA
HETATM    2  O   UNL     1      29.720  51.109  46.250  1.00  0.00    -0.304 OA
HETATM    3  O   UNL     1      28.329  47.607  44.754  1.00  0.00    -0.304 OA
HETATM    4  O   UNL     1      27.304  49.792  47.846  1.00  0.00    -0.270 OA
HETATM    5  O   UNL     1      30.228  47.876  48.899  1.00  0.00    -0.263 OA
HETATM    6  O   UNL     1      27.046  46.663  46.799  1.00  0.00    -0.270 OA
HETATM    7  O   UNL     1      29.342  53.214  45.399  1.00  0.00    -0.263 OA
HETATM    8  O   UNL     1      31.352  52.003  43.347  1.00  0.00    -0.270 OA
HETATM    9  O   UNL     1      29.984  47.793  43.158  1.00  0.00    -0.263 OA
HETATM   10  N   UNL     1      28.479  51.674  48.523  1.00  0.00    -0.340 N 
HETATM   11  N   UNL     1      28.998  45.705  47.612  1.00  0.00    -0.340 N 
HETATM   12  N   UNL     1      29.566  50.543  43.105  1.00  0.00    -0.340 N 
HETATM   13  C   UNL     1      28.070  52.438  47.322  1.00  0.00     0.190 C 
HETATM   14  C   UNL     1      28.626  46.045  48.999  1.00  0.00     0.190 C 
HETATM   15  C   UNL     1      28.389  49.620  49.973  1.00  0.00     0.227 C 
HETATM   16  C   UNL     1      28.518  49.677  43.684  1.00  0.00     0.190 C 
HETATM   17  C   UNL     1      28.780  46.308  45.195  1.00  0.00     0.227 C 
HETATM   18  C   UNL     1      30.756  50.769  45.323  1.00  0.00     0.227 C 
HETATM   19  C   UNL     1      28.011  50.361  48.686  1.00  0.00     0.250 C 
HETATM   20  C   UNL     1      29.117  47.470  49.212  1.00  0.00     0.283 C 
HETATM   21  C   UNL     1      28.182  46.218  46.593  1.00  0.00     0.250 C 
HETATM   22  C   UNL     1      29.138  52.341  46.233  1.00  0.00     0.283 C 
HETATM   23  C   UNL     1      30.578  51.177  43.844  1.00  0.00     0.250 C 
HETATM   24  C   UNL     1      29.056  48.260  43.801  1.00  0.00     0.283 C 
HETATM   25  C   UNL     1      29.420  52.338  49.431  1.00  0.00     0.153 C 
HETATM   26  C   UNL     1      30.253  44.990  47.368  1.00  0.00     0.153 C 
HETATM   27  C   UNL     1      29.545  50.756  41.657  1.00  0.00     0.153 C 
ENDROOT
BRANCH  15  28
HETATM   28  C   UNL     1      27.512  50.090  51.126  1.00  0.00     0.016 C 
HETATM   29  C   UNL     1      26.379  49.098  51.381  1.00  0.00     0.012 C 
HETATM   30  C   UNL     1      28.345  50.288  52.392  1.00  0.00     0.012 C 
ENDBRANCH  15  28
BRANCH  14  31
HETATM   31  C   UNL     1      29.179  45.140  50.092  1.00  0.00     0.014 C 
HETATM   32  C   UNL     1      29.267  45.916  51.409  1.00  0.00     0.012 C 
BRANCH  31  33
HETATM   33  C   UNL     1      28.329  43.873  50.289  1.00  0.00     0.002 C 
HETATM   34  C   UNL     1      27.690  43.776  51.668  1.00  0.00     0.005 C 
ENDBRANCH  31  33
ENDBRANCH  14  31
BRANCH  13  35
HETATM   35  C   UNL     1      27.707  53.892  47.622  1.00  0.00     0.014 C 
HETATM   36  C   UNL     1      26.912  54.480  46.454  1.00  0.00     0.012 C 
BRANCH  35  37
HETATM   37  C   UNL     1      26.902  54.039  48.926  1.00  0.00     0.002 C 
HETATM   38  C   UNL     1      27.132  55.365  49.637  1.00  0.00     0.005 C 
ENDBRANCH  35  37
ENDBRANCH  13  35
BRANCH  17  39
HETATM   39  C   UNL     1      28.215  45.223  44.297  1.00  0.00     0.016 C 
HETATM   40  C   UNL     1      27.163  44.405  45.042  1.00  0.00     0.012 C 
HETATM   41  C   UNL     1      29.331  44.318  43.780  1.00  0.00     0.012 C 
ENDBRANCH  17  39
BRANCH  18  42
HETATM   42  C   UNL     1      32.075  51.293  45.893  1.00  0.00     0.016 C 
HETATM   43  C   UNL     1      32.098  51.155  47.416  1.00  0.00     0.012 C 
HETATM   44  C   UNL     1      33.261  50.560  45.271  1.00  0.00     0.012 C 
ENDBRANCH  18  42
BRANCH  16  45
HETATM   45  C   UNL     1      27.191  49.673  42.928  1.00  0.00     0.010 C 
HETATM   46  C   UNL     1      26.042  50.076  43.851  1.00  0.00     0.012 C 
HETATM   47  C   UNL     1      26.925  48.300  42.311  1.00  0.00     0.012 C 
ENDBRANCH  16  45
TORSDOF 8
ENDMDL
MODEL 19
REMARK VINA RESULT:    -3.789      9.065     12.128
REMARK INTER + INTRA:          -4.980
REMARK INTER:                  -5.706
REMARK INTRA:                   0.726
REMARK UNBOUND:                 0.580
REMARK  8 active torsions:
REMARK  status: ('A' for Active; 'I' for Inactive)
REMARK    1  A    between atoms: C_13  and  C_15 
REMARK    2  A    between atoms: C_14  and  C_16 
REMARK    3  A    between atoms: C_15  and  C_22 
REMARK    4  A    between atoms: C_16  and  C_23 
REMARK    5  A    between atoms: C_17  and  C_21 
REMARK    6  A    between atoms: C_18  and  C_24 
REMARK    7  A    between atoms: C_19  and  C_27 
REMARK    8  A    between atoms: C_20  and  C_30 
ROOT
HETATM    1  O   UNL     1      23.217  44.390  54.913  1.00  0.00    -0.304 OA
HETATM    2  O   UNL     1      25.041  48.843  55.457  1.00  0.00    -0.304 OA
HETATM    3  O   UNL     1      27.191  46.704  52.765  1.00  0.00    -0.304 OA
HETATM    4  O   UNL     1      23.391  46.739  53.733  1.00  0.00    -0.270 OA
HETATM    5  O   UNL     1      25.053  44.713  56.274  1.00  0.00    -0.263 OA
HETATM    6  O   UNL     1      25.591  44.718  52.310  1.00  0.00    -0.270 OA
HETATM    7  O   UNL     1      24.392  51.042  55.261  1.00  0.00    -0.263 OA
HETATM    8  O   UNL     1      27.447  51.284  55.832  1.00  0.00    -0.270 OA
HETATM    9  O   UNL     1      29.041  47.832  53.558  1.00  0.00    -0.263 OA
HETATM   10  N   UNL     1      22.535  47.980  55.497  1.00  0.00    -0.340 N 
HETATM   11  N   UNL     1      26.459  43.570  54.130  1.00  0.00    -0.340 N 
HETATM   12  N   UNL     1      27.480  50.120  53.827  1.00  0.00    -0.340 N 
HETATM   13  C   UNL     1      22.798  49.263  54.803  1.00  0.00     0.190 C 
HETATM   14  C   UNL     1      25.122  43.058  54.489  1.00  0.00     0.190 C 
HETATM   15  C   UNL     1      22.504  45.465  55.556  1.00  0.00     0.227 C 
HETATM   16  C   UNL     1      26.994  49.026  52.960  1.00  0.00     0.190 C 
HETATM   17  C   UNL     1      27.759  45.405  53.039  1.00  0.00     0.227 C 
HETATM   18  C   UNL     1      26.379  49.130  55.875  1.00  0.00     0.227 C 
HETATM   19  C   UNL     1      22.855  46.779  54.847  1.00  0.00     0.250 C 
HETATM   20  C   UNL     1      24.490  44.145  55.348  1.00  0.00     0.283 C 
HETATM   21  C   UNL     1      26.520  44.522  53.102  1.00  0.00     0.250 C 
HETATM   22  C   UNL     1      24.144  49.843  55.237  1.00  0.00     0.283 C 
HETATM   23  C   UNL     1      27.133  50.284  55.178  1.00  0.00     0.250 C 
HETATM   24  C   UNL     1      27.893  47.814  53.140  1.00  0.00     0.283 C 
HETATM   25  C   UNL     1      22.018  48.072  56.866  1.00  0.00     0.153 C 
HETATM   26  C   UNL     1      27.611  43.176  54.946  1.00  0.00     0.153 C 
HETATM   27  C   UNL     1      28.387  51.102  53.232  1.00  0.00     0.153 C 
ENDROOT
BRANCH  15  28
HETATM   28  C   UNL     1      21.018  45.168  55.405  1.00  0.00     0.016 C 
HETATM   29  C   UNL     1      20.488  45.730  54.087  1.00  0.00     0.012 C 
HETATM   30  C   UNL     1      20.757  43.665  55.489  1.00  0.00     0.012 C 
ENDBRANCH  15  28
BRANCH  14  31
HETATM   31  C   UNL     1      25.077  41.727  55.227  1.00  0.00     0.014 C 
HETATM   32  C   UNL     1      23.769  41.616  56.013  1.00  0.00     0.012 C 
BRANCH  31  33
HETATM   33  C   UNL     1      25.220  40.526  54.277  1.00  0.00     0.002 C 
HETATM   34  C   UNL     1      26.424  39.646  54.583  1.00  0.00     0.005 C 
ENDBRANCH  31  33
ENDBRANCH  14  31
BRANCH  13  35
HETATM   35  C   UNL     1      21.670  50.282  54.964  1.00  0.00     0.014 C 
HETATM   36  C   UNL     1      21.823  51.394  53.923  1.00  0.00     0.012 C 
BRANCH  35  37
HETATM   37  C   UNL     1      20.277  49.641  54.839  1.00  0.00     0.002 C 
HETATM   38  C   UNL     1      19.260  50.197  55.824  1.00  0.00     0.005 C 
ENDBRANCH  35  37
ENDBRANCH  13  35
BRANCH  17  39
HETATM   39  C   UNL     1      28.667  44.978  51.900  1.00  0.00     0.016 C 
HETATM   40  C   UNL     1      28.061  43.798  51.144  1.00  0.00     0.012 C 
HETATM   41  C   UNL     1      30.056  44.623  52.425  1.00  0.00     0.012 C 
ENDBRANCH  17  39
BRANCH  18  42
HETATM   42  C   UNL     1      26.358  49.313  57.393  1.00  0.00     0.016 C 
HETATM   43  C   UNL     1      25.352  48.360  58.039  1.00  0.00     0.012 C 
HETATM   44  C   UNL     1      27.751  49.100  57.983  1.00  0.00     0.012 C 
ENDBRANCH  18  42
BRANCH  16  45
HETATM   45  C   UNL     1      26.879  49.377  51.478  1.00  0.00     0.010 C 
HETATM   46  C   UNL     1      25.474  49.880  51.148  1.00  0.00     0.012 C 
HETATM   47  C   UNL     1      27.233  48.172  50.607  1.00  0.00     0.012 C 
ENDBRANCH  16  45
TORSDOF 8
ENDMDL
MODEL 20
REMARK VINA RESULT:    -3.673      1.706      6.758
REMARK INTER + INTRA:          -4.810
REMARK INTER:                  -6.982
REMARK INTRA:                   2.172
REMARK UNBOUND:                 0.580
REMARK  8 active torsions:
REMARK  status: ('A' for Active; 'I' for Inactive)
REMARK    1  A    between atoms: C_13  and  C_15 
REMARK    2  A    between atoms: C_14  and  C_16 
REMARK    3  A    between atoms: C_15  and  C_22 
REMARK    4  A    between atoms: C_16  and  C_23 
REMARK    5  A    between atoms: C_17  and  C_21 
REMARK    6  A    between atoms: C_18  and  C_24 
REMARK    7  A    between atoms: C_19  and  C_27 
REMARK    8  A    between atoms: C_20  and  C_30 
ROOT
HETATM    1  O   UNL     1      26.054  47.872  42.419  1.00  0.00    -0.304 OA
HETATM    2  O   UNL     1      29.018  49.295  45.974  1.00  0.00    -0.304 OA
HETATM    3  O   UNL     1      26.501  52.284  44.890  1.00  0.00    -0.304 OA
HETATM    4  O   UNL     1      26.130  48.381  45.002  1.00  0.00    -0.270 OA
HETATM    5  O   UNL     1      27.924  49.127  41.912  1.00  0.00    -0.263 OA
HETATM    6  O   UNL     1      24.751  50.982  43.491  1.00  0.00    -0.270 OA
HETATM    7  O   UNL     1      29.599  48.699  48.119  1.00  0.00    -0.263 OA
HETATM    8  O   UNL     1      31.153  51.370  47.713  1.00  0.00    -0.270 OA
HETATM    9  O   UNL     1      28.244  53.726  45.342  1.00  0.00    -0.263 OA
HETATM   10  N   UNL     1      27.885  46.946  45.498  1.00  0.00    -0.340 N 
HETATM   11  N   UNL     1      26.065  51.206  41.592  1.00  0.00    -0.340 N 
HETATM   12  N   UNL     1      28.967  52.112  47.491  1.00  0.00    -0.340 N 
HETATM   13  C   UNL     1      27.937  47.398  46.909  1.00  0.00     0.190 C 
HETATM   14  C   UNL     1      25.722  49.839  41.152  1.00  0.00     0.190 C 
HETATM   15  C   UNL     1      26.837  46.958  43.211  1.00  0.00     0.227 C 
HETATM   16  C   UNL     1      27.608  51.976  46.926  1.00  0.00     0.190 C 
HETATM   17  C   UNL     1      26.350  52.755  43.533  1.00  0.00     0.227 C 
HETATM   18  C   UNL     1      29.919  50.404  45.889  1.00  0.00     0.227 C 
HETATM   19  C   UNL     1      26.918  47.497  44.644  1.00  0.00     0.250 C 
HETATM   20  C   UNL     1      26.718  48.927  41.856  1.00  0.00     0.283 C 
HETATM   21  C   UNL     1      25.628  51.590  42.868  1.00  0.00     0.250 C 
HETATM   22  C   UNL     1      28.981  48.502  47.081  1.00  0.00     0.283 C 
HETATM   23  C   UNL     1      30.068  51.322  47.123  1.00  0.00     0.250 C 
HETATM   24  C   UNL     1      27.520  52.789  45.644  1.00  0.00     0.283 C 
HETATM   25  C   UNL     1      28.917  45.992  45.079  1.00  0.00     0.153 C 
HETATM   26  C   UNL     1      26.947  52.021  40.753  1.00  0.00     0.153 C 
HETATM   27  C   UNL     1      29.178  53.143  48.507  1.00  0.00     0.153 C 
ENDROOT
BRANCH  15  28
HETATM   28  C   UNL     1      26.110  45.619  43.195  1.00  0.00     0.016 C 
HETATM   29  C   UNL     1      27.031  44.511  42.688  1.00  0.00     0.012 C 
HETATM   30  C   UNL     1      25.577  45.278  44.586  1.00  0.00     0.012 C 
ENDBRANCH  15  28
BRANCH  14  31
HETATM   31  C   UNL     1      25.756  49.578  39.653  1.00  0.00     0.014 C 
HETATM   32  C   UNL     1      25.620  48.077  39.386  1.00  0.00     0.012 C 
BRANCH  31  33
HETATM   33  C   UNL     1      24.653  50.344  38.901  1.00  0.00     0.002 C 
HETATM   34  C   UNL     1      25.138  51.013  37.622  1.00  0.00     0.005 C 
ENDBRANCH  31  33
ENDBRANCH  14  31
BRANCH  13  35
HETATM   35  C   UNL     1      28.158  46.260  47.903  1.00  0.00     0.014 C 
HETATM   36  C   UNL     1      26.953  45.315  47.886  1.00  0.00     0.012 C 
BRANCH  35  37
HETATM   37  C   UNL     1      29.444  45.466  47.612  1.00  0.00     0.002 C 
HETATM   38  C   UNL     1      30.326  45.265  48.836  1.00  0.00     0.005 C 
ENDBRANCH  35  37
ENDBRANCH  13  35
BRANCH  17  39
HETATM   39  C   UNL     1      25.491  54.006  43.505  1.00  0.00     0.016 C 
HETATM   40  C   UNL     1      26.335  55.229  43.158  1.00  0.00     0.012 C 
HETATM   41  C   UNL     1      24.786  54.204  44.846  1.00  0.00     0.012 C 
ENDBRANCH  17  39
BRANCH  18  42
HETATM   42  C   UNL     1      31.273  49.863  45.428  1.00  0.00     0.016 C 
HETATM   43  C   UNL     1      31.086  48.709  44.442  1.00  0.00     0.012 C 
HETATM   44  C   UNL     1      32.112  50.973  44.799  1.00  0.00     0.012 C 
ENDBRANCH  18  42
BRANCH  16  45
HETATM   45  C   UNL     1      26.473  52.364  47.871  1.00  0.00     0.010 C 
HETATM   46  C   UNL     1      26.484  53.868  48.140  1.00  0.00     0.012 C 
HETATM   47  C   UNL     1      26.571  51.587  49.183  1.00  0.00     0.012 C 
ENDBRANCH  16  45
TORSDOF 8
ENDMDL
