MODEL 1
REMARK VINA RESULT:    -6.767      0.000      0.000
REMARK INTER + INTRA:          -9.153
REMARK INTER:                  -8.796
REMARK INTRA:                  -0.358
REMARK UNBOUND:                -0.606
REMARK  5 active torsions:
REMARK  status: ('A' for Active; 'I' for Inactive)
REMARK    1  A    between atoms: C_1  and  C_6 
REMARK    2  A    between atoms: C_1  and  O_14 
REMARK    3  A    between atoms: C_2  and  C_3 
REMARK    4  A    between atoms: C_2  and  C_11 
REMARK    5  A    between atoms: C_6  and  C_8 
ROOT
HETATM    1  C   UNL     1      32.764  32.607  36.572  1.00  0.00    -0.044 A 
HETATM    2  C   UNL     1      32.926  32.540  37.944  1.00  0.00     0.008 A 
HETATM    3  C   UNL     1      34.194  32.484  38.487  1.00  0.00     0.007 A 
HETATM    4  C   UNL     1      35.301  32.493  37.660  1.00  0.00    -0.058 A 
HETATM    5  C   UNL     1      35.140  32.565  36.290  1.00  0.00     0.007 A 
HETATM    6  C   UNL     1      33.870  32.616  35.746  1.00  0.00     0.008 A 
ENDROOT
BRANCH   1   7
HETATM    7  C   UNL     1      31.380  32.666  35.979  1.00  0.00     0.112 C 
HETATM    8  C   UNL     1      30.344  32.712  37.103  1.00  0.00     0.026 C 
BRANCH   7   9
HETATM    9  C   UNL     1      31.145  31.445  35.129  1.00  0.00     0.148 C 
HETATM   10  O   UNL     1      30.582  31.549  34.065  1.00  0.00    -0.649 OA
BRANCH   9  11
HETATM   11  O   UNL     1      31.560  30.241  35.553  1.00  0.00    -0.776 OA
HETATM   12  H   UNL     1      31.044  29.757  36.213  1.00  0.00     0.167 HD
ENDBRANCH   9  11
ENDBRANCH   7   9
ENDBRANCH   1   7
BRANCH   4  13
HETATM   13  C   UNL     1      36.686  32.432  38.253  1.00  0.00     0.042 C 
BRANCH  13  14
HETATM   14  C   UNL     1      37.724  32.587  37.142  1.00  0.00    -0.019 C 
HETATM   15  C   UNL     1      38.048  34.071  36.950  1.00  0.00     0.010 C 
HETATM   16  C   UNL     1      38.998  31.833  37.524  1.00  0.00     0.010 C 
ENDBRANCH  13  14
ENDBRANCH   4  13
TORSDOF 5
ENDMDL
MODEL 2
REMARK VINA RESULT:    -6.745      0.064      1.238
REMARK INTER + INTRA:          -9.126
REMARK INTER:                  -8.719
REMARK INTRA:                  -0.407
REMARK UNBOUND:                -0.606
REMARK  5 active torsions:
REMARK  status: ('A' for Active; 'I' for Inactive)
REMARK    1  A    between atoms: C_1  and  C_6 
REMARK    2  A    between atoms: C_1  and  O_14 
REMARK    3  A    between atoms: C_2  and  C_3 
REMARK    4  A    between atoms: C_2  and  C_11 
REMARK    5  A    between atoms: C_6  and  C_8 
ROOT
HETATM    1  C   UNL     1      32.753  32.613  36.591  1.00  0.00    -0.044 A 
HETATM    2  C   UNL     1      33.869  32.616  35.775  1.00  0.00     0.008 A 
HETATM    3  C   UNL     1      35.131  32.548  36.332  1.00  0.00     0.007 A 
HETATM    4  C   UNL     1      35.278  32.477  37.704  1.00  0.00    -0.058 A 
HETATM    5  C   UNL     1      34.163  32.468  38.519  1.00  0.00     0.007 A 
HETATM    6  C   UNL     1      32.900  32.541  37.962  1.00  0.00     0.008 A 
ENDROOT
BRANCH   1   7
HETATM    7  C   UNL     1      31.376  32.689  35.984  1.00  0.00     0.112 C 
HETATM    8  C   UNL     1      30.329  32.744  37.098  1.00  0.00     0.026 C 
BRANCH   7   9
HETATM    9  C   UNL     1      31.136  31.473  35.128  1.00  0.00     0.148 C 
HETATM   10  O   UNL     1      30.605  31.589  34.049  1.00  0.00    -0.649 OA
BRANCH   9  11
HETATM   11  O   UNL     1      31.510  30.260  35.565  1.00  0.00    -0.776 OA
HETATM   12  H   UNL     1      31.271  29.972  36.457  1.00  0.00     0.167 HD
ENDBRANCH   9  11
ENDBRANCH   7   9
ENDBRANCH   1   7
BRANCH   4  13
HETATM   13  C   UNL     1      36.656  32.402  38.311  1.00  0.00     0.042 C 
BRANCH  13  14
HETATM   14  C   UNL     1      37.707  32.560  37.212  1.00  0.00    -0.019 C 
HETATM   15  C   UNL     1      38.090  34.036  37.080  1.00  0.00     0.010 C 
HETATM   16  C   UNL     1      38.948  31.742  37.571  1.00  0.00     0.010 C 
ENDBRANCH  13  14
ENDBRANCH   4  13
TORSDOF 5
ENDMDL
MODEL 3
REMARK VINA RESULT:    -6.467      3.142      4.397
REMARK INTER + INTRA:          -8.775
REMARK INTER:                  -8.190
REMARK INTRA:                  -0.585
REMARK UNBOUND:                -0.606
REMARK  5 active torsions:
REMARK  status: ('A' for Active; 'I' for Inactive)
REMARK    1  A    between atoms: C_1  and  C_6 
REMARK    2  A    between atoms: C_1  and  O_14 
REMARK    3  A    between atoms: C_2  and  C_3 
REMARK    4  A    between atoms: C_2  and  C_11 
REMARK    5  A    between atoms: C_6  and  C_8 
ROOT
HETATM    1  C   UNL     1      34.274  31.730  33.372  1.00  0.00    -0.044 A 
HETATM    2  C   UNL     1      35.136  32.564  34.060  1.00  0.00     0.008 A 
HETATM    3  C   UNL     1      34.897  32.860  35.387  1.00  0.00     0.007 A 
HETATM    4  C   UNL     1      33.796  32.324  36.028  1.00  0.00    -0.058 A 
HETATM    5  C   UNL     1      32.937  31.487  35.341  1.00  0.00     0.007 A 
HETATM    6  C   UNL     1      33.173  31.195  34.012  1.00  0.00     0.008 A 
ENDROOT
BRANCH   1   7
HETATM    7  C   UNL     1      34.533  31.408  31.923  1.00  0.00     0.112 C 
HETATM    8  C   UNL     1      33.211  31.407  31.155  1.00  0.00     0.026 C 
BRANCH   7   9
HETATM    9  C   UNL     1      35.176  30.050  31.817  1.00  0.00     0.148 C 
HETATM   10  O   UNL     1      36.367  29.932  31.983  1.00  0.00    -0.649 OA
BRANCH   9  11
HETATM   11  O   UNL     1      34.427  28.972  31.538  1.00  0.00    -0.776 OA
HETATM   12  H   UNL     1      33.496  29.079  31.297  1.00  0.00     0.167 HD
ENDBRANCH   9  11
ENDBRANCH   7   9
ENDBRANCH   1   7
BRANCH   4  13
HETATM   13  C   UNL     1      33.535  32.648  37.477  1.00  0.00     0.042 C 
BRANCH  13  14
HETATM   14  C   UNL     1      34.706  32.155  38.327  1.00  0.00    -0.019 C 
HETATM   15  C   UNL     1      35.349  33.343  39.047  1.00  0.00     0.010 C 
HETATM   16  C   UNL     1      34.199  31.147  39.360  1.00  0.00     0.010 C 
ENDBRANCH  13  14
ENDBRANCH   4  13
TORSDOF 5
ENDMDL
MODEL 4
REMARK VINA RESULT:    -6.403      4.686      6.278
REMARK INTER + INTRA:          -8.694
REMARK INTER:                  -8.404
REMARK INTRA:                  -0.290
REMARK UNBOUND:                -0.606
REMARK  5 active torsions:
REMARK  status: ('A' for Active; 'I' for Inactive)
REMARK    1  A    between atoms: C_1  and  C_6 
REMARK    2  A    between atoms: C_1  and  O_14 
REMARK    3  A    between atoms: C_2  and  C_3 
REMARK    4  A    between atoms: C_2  and  C_11 
REMARK    5  A    between atoms: C_6  and  C_8 
ROOT
HETATM    1  C   UNL     1      33.958  30.506  31.200  1.00  0.00    -0.044 A 
HETATM    2  C   UNL     1      33.500  29.876  32.342  1.00  0.00     0.008 A 
HETATM    3  C   UNL     1      33.469  30.560  33.542  1.00  0.00     0.007 A 
HETATM    4  C   UNL     1      33.896  31.873  33.601  1.00  0.00    -0.058 A 
HETATM    5  C   UNL     1      34.348  32.504  32.458  1.00  0.00     0.007 A 
HETATM    6  C   UNL     1      34.384  31.819  31.259  1.00  0.00     0.008 A 
ENDROOT
BRANCH   1   7
HETATM    7  C   UNL     1      33.994  29.761  29.891  1.00  0.00     0.112 C 
HETATM    8  C   UNL     1      34.955  28.577  30.004  1.00  0.00     0.026 C 
BRANCH   7   9
HETATM    9  C   UNL     1      34.462  30.686  28.799  1.00  0.00     0.148 C 
HETATM   10  O   UNL     1      35.627  30.707  28.483  1.00  0.00    -0.649 OA
BRANCH   9  11
HETATM   11  O   UNL     1      33.584  31.489  28.177  1.00  0.00    -0.776 OA
HETATM   12  H   UNL     1      33.892  32.116  27.508  1.00  0.00     0.167 HD
ENDBRANCH   9  11
ENDBRANCH   7   9
ENDBRANCH   1   7
BRANCH   4  13
HETATM   13  C   UNL     1      33.861  32.618  34.911  1.00  0.00     0.042 C 
BRANCH  13  14
HETATM   14  C   UNL     1      33.033  31.829  35.925  1.00  0.00    -0.019 C 
HETATM   15  C   UNL     1      33.723  31.871  37.290  1.00  0.00     0.010 C 
HETATM   16  C   UNL     1      31.640  32.449  36.039  1.00  0.00     0.010 C 
ENDBRANCH  13  14
ENDBRANCH   4  13
TORSDOF 5
ENDMDL
MODEL 5
REMARK VINA RESULT:    -6.378      4.682      6.338
REMARK INTER + INTRA:          -8.663
REMARK INTER:                  -8.363
REMARK INTRA:                  -0.300
REMARK UNBOUND:                -0.606
REMARK  5 active torsions:
REMARK  status: ('A' for Active; 'I' for Inactive)
REMARK    1  A    between atoms: C_1  and  C_6 
REMARK    2  A    between atoms: C_1  and  O_14 
REMARK    3  A    between atoms: C_2  and  C_3 
REMARK    4  A    between atoms: C_2  and  C_11 
REMARK    5  A    between atoms: C_6  and  C_8 
ROOT
HETATM    1  C   UNL     1      33.956  30.496  31.210  1.00  0.00    -0.044 A 
HETATM    2  C   UNL     1      34.365  31.816  31.260  1.00  0.00     0.008 A 
HETATM    3  C   UNL     1      34.351  32.497  32.462  1.00  0.00     0.007 A 
HETATM    4  C   UNL     1      33.928  31.860  33.613  1.00  0.00    -0.058 A 
HETATM    5  C   UNL     1      33.524  30.540  33.563  1.00  0.00     0.007 A 
HETATM    6  C   UNL     1      33.534  29.860  32.360  1.00  0.00     0.008 A 
ENDROOT
BRANCH   1   7
HETATM    7  C   UNL     1      33.970  29.753  29.899  1.00  0.00     0.112 C 
HETATM    8  C   UNL     1      34.907  28.550  30.004  1.00  0.00     0.026 C 
BRANCH   7   9
HETATM    9  C   UNL     1      34.451  30.671  28.806  1.00  0.00     0.148 C 
HETATM   10  O   UNL     1      35.617  30.676  28.491  1.00  0.00    -0.649 OA
BRANCH   9  11
HETATM   11  O   UNL     1      33.584  31.485  28.182  1.00  0.00    -0.776 OA
HETATM   12  H   UNL     1      33.832  31.907  27.347  1.00  0.00     0.167 HD
ENDBRANCH   9  11
ENDBRANCH   7   9
ENDBRANCH   1   7
BRANCH   4  13
HETATM   13  C   UNL     1      33.913  32.604  34.924  1.00  0.00     0.042 C 
BRANCH  13  14
HETATM   14  C   UNL     1      33.042  31.849  35.928  1.00  0.00    -0.019 C 
HETATM   15  C   UNL     1      33.708  31.881  37.306  1.00  0.00     0.010 C 
HETATM   16  C   UNL     1      31.667  32.512  36.012  1.00  0.00     0.010 C 
ENDBRANCH  13  14
ENDBRANCH   4  13
TORSDOF 5
ENDMDL
MODEL 6
REMARK VINA RESULT:    -6.315      3.535      5.674
REMARK INTER + INTRA:          -8.582
REMARK INTER:                  -8.234
REMARK INTRA:                  -0.348
REMARK UNBOUND:                -0.606
REMARK  5 active torsions:
REMARK  status: ('A' for Active; 'I' for Inactive)
REMARK    1  A    between atoms: C_1  and  C_6 
REMARK    2  A    between atoms: C_1  and  O_14 
REMARK    3  A    between atoms: C_2  and  C_3 
REMARK    4  A    between atoms: C_2  and  C_11 
REMARK    5  A    between atoms: C_6  and  C_8 
ROOT
HETATM    1  C   UNL     1      35.449  32.332  36.818  1.00  0.00    -0.044 A 
HETATM    2  C   UNL     1      36.376  32.710  35.865  1.00  0.00     0.008 A 
HETATM    3  C   UNL     1      36.004  32.801  34.538  1.00  0.00     0.007 A 
HETATM    4  C   UNL     1      34.705  32.515  34.163  1.00  0.00    -0.058 A 
HETATM    5  C   UNL     1      33.777  32.143  35.117  1.00  0.00     0.007 A 
HETATM    6  C   UNL     1      34.150  32.046  36.443  1.00  0.00     0.008 A 
ENDROOT
BRANCH   1   7
HETATM    7  C   UNL     1      35.854  32.231  38.266  1.00  0.00     0.112 C 
HETATM    8  C   UNL     1      35.548  33.550  38.976  1.00  0.00     0.026 C 
BRANCH   7   9
HETATM    9  C   UNL     1      37.330  31.944  38.355  1.00  0.00     0.148 C 
HETATM   10  O   UNL     1      38.069  32.739  38.885  1.00  0.00    -0.649 OA
BRANCH   9  11
HETATM   11  O   UNL     1      37.825  30.805  37.845  1.00  0.00    -0.776 OA
HETATM   12  H   UNL     1      37.565  30.519  36.958  1.00  0.00     0.167 HD
ENDBRANCH   9  11
ENDBRANCH   7   9
ENDBRANCH   1   7
BRANCH   4  13
HETATM   13  C   UNL     1      34.299  32.615  32.715  1.00  0.00     0.042 C 
BRANCH  13  14
HETATM   14  C   UNL     1      34.003  31.217  32.171  1.00  0.00    -0.019 C 
HETATM   15  C   UNL     1      33.166  31.333  30.895  1.00  0.00     0.010 C 
HETATM   16  C   UNL     1      35.318  30.503  31.854  1.00  0.00     0.010 C 
ENDBRANCH  13  14
ENDBRANCH   4  13
TORSDOF 5
ENDMDL
MODEL 7
REMARK VINA RESULT:    -6.283      1.362      2.194
REMARK INTER + INTRA:          -8.543
REMARK INTER:                  -7.970
REMARK INTRA:                  -0.573
REMARK UNBOUND:                -0.606
REMARK  5 active torsions:
REMARK  status: ('A' for Active; 'I' for Inactive)
REMARK    1  A    between atoms: C_1  and  C_6 
REMARK    2  A    between atoms: C_1  and  O_14 
REMARK    3  A    between atoms: C_2  and  C_3 
REMARK    4  A    between atoms: C_2  and  C_11 
REMARK    5  A    between atoms: C_6  and  C_8 
ROOT
HETATM    1  C   UNL     1      33.468  31.772  36.181  1.00  0.00    -0.044 A 
HETATM    2  C   UNL     1      34.486  32.274  35.392  1.00  0.00     0.008 A 
HETATM    3  C   UNL     1      35.638  32.760  35.978  1.00  0.00     0.007 A 
HETATM    4  C   UNL     1      35.773  32.745  37.354  1.00  0.00    -0.058 A 
HETATM    5  C   UNL     1      34.758  32.237  38.142  1.00  0.00     0.007 A 
HETATM    6  C   UNL     1      33.604  31.756  37.555  1.00  0.00     0.008 A 
ENDROOT
BRANCH   1   7
HETATM    7  C   UNL     1      32.210  31.243  35.541  1.00  0.00     0.112 C 
HETATM    8  C   UNL     1      32.370  31.247  34.021  1.00  0.00     0.026 C 
BRANCH   7   9
HETATM    9  C   UNL     1      31.045  32.116  35.927  1.00  0.00     0.148 C 
HETATM   10  O   UNL     1      31.091  33.307  35.726  1.00  0.00    -0.649 OA
BRANCH   9  11
HETATM   11  O   UNL     1      29.957  31.573  36.495  1.00  0.00    -0.776 OA
HETATM   12  H   UNL     1      30.008  31.216  37.393  1.00  0.00     0.167 HD
ENDBRANCH   9  11
ENDBRANCH   7   9
ENDBRANCH   1   7
BRANCH   4  13
HETATM   13  C   UNL     1      37.031  33.275  37.993  1.00  0.00     0.042 C 
BRANCH  13  14
HETATM   14  C   UNL     1      37.915  32.106  38.426  1.00  0.00    -0.019 C 
HETATM   15  C   UNL     1      38.897  31.765  37.303  1.00  0.00     0.010 C 
HETATM   16  C   UNL     1      38.693  32.492  39.684  1.00  0.00     0.010 C 
ENDBRANCH  13  14
ENDBRANCH   4  13
TORSDOF 5
ENDMDL
MODEL 8
REMARK VINA RESULT:    -6.273      2.424      3.779
REMARK INTER + INTRA:          -8.529
REMARK INTER:                  -8.291
REMARK INTRA:                  -0.239
REMARK UNBOUND:                -0.606
REMARK  5 active torsions:
REMARK  status: ('A' for Active; 'I' for Inactive)
REMARK    1  A    between atoms: C_1  and  C_6 
REMARK    2  A    between atoms: C_1  and  O_14 
REMARK    3  A    between atoms: C_2  and  C_3 
REMARK    4  A    between atoms: C_2  and  C_11 
REMARK    5  A    between atoms: C_6  and  C_8 
ROOT
HETATM    1  C   UNL     1      33.755  32.201  35.412  1.00  0.00    -0.044 A 
HETATM    2  C   UNL     1      35.081  32.558  35.568  1.00  0.00     0.008 A 
HETATM    3  C   UNL     1      35.573  32.854  36.824  1.00  0.00     0.007 A 
HETATM    4  C   UNL     1      34.740  32.794  37.925  1.00  0.00    -0.058 A 
HETATM    5  C   UNL     1      33.416  32.431  37.770  1.00  0.00     0.007 A 
HETATM    6  C   UNL     1      32.923  32.140  36.513  1.00  0.00     0.008 A 
ENDROOT
BRANCH   1   7
HETATM    7  C   UNL     1      33.217  31.879  34.042  1.00  0.00     0.112 C 
HETATM    8  C   UNL     1      32.774  30.416  33.998  1.00  0.00     0.026 C 
BRANCH   7   9
HETATM    9  C   UNL     1      34.292  32.109  33.013  1.00  0.00     0.148 C 
HETATM   10  O   UNL     1      34.315  33.140  32.384  1.00  0.00    -0.649 OA
BRANCH   9  11
HETATM   11  O   UNL     1      35.225  31.169  32.794  1.00  0.00    -0.776 OA
HETATM   12  H   UNL     1      36.161  31.412  32.773  1.00  0.00     0.167 HD
ENDBRANCH   9  11
ENDBRANCH   7   9
ENDBRANCH   1   7
BRANCH   4  13
HETATM   13  C   UNL     1      35.278  33.117  39.295  1.00  0.00     0.042 C 
BRANCH  13  14
HETATM   14  C   UNL     1      34.164  33.720  40.151  1.00  0.00    -0.019 C 
HETATM   15  C   UNL     1      33.855  32.782  41.321  1.00  0.00     0.010 C 
HETATM   16  C   UNL     1      34.613  35.078  40.692  1.00  0.00     0.010 C 
ENDBRANCH  13  14
ENDBRANCH   4  13
TORSDOF 5
ENDMDL
MODEL 9
REMARK VINA RESULT:    -6.258      2.847      5.147
REMARK INTER + INTRA:          -8.510
REMARK INTER:                  -8.159
REMARK INTRA:                  -0.351
REMARK UNBOUND:                -0.606
REMARK  5 active torsions:
REMARK  status: ('A' for Active; 'I' for Inactive)
REMARK    1  A    between atoms: C_1  and  C_6 
REMARK    2  A    between atoms: C_1  and  O_14 
REMARK    3  A    between atoms: C_2  and  C_3 
REMARK    4  A    between atoms: C_2  and  C_11 
REMARK    5  A    between atoms: C_6  and  C_8 
ROOT
HETATM    1  C   UNL     1      35.154  32.765  37.138  1.00  0.00    -0.044 A 
HETATM    2  C   UNL     1      36.230  32.802  36.271  1.00  0.00     0.008 A 
HETATM    3  C   UNL     1      36.023  32.707  34.908  1.00  0.00     0.007 A 
HETATM    4  C   UNL     1      34.740  32.573  34.412  1.00  0.00    -0.058 A 
HETATM    5  C   UNL     1      33.664  32.541  35.279  1.00  0.00     0.007 A 
HETATM    6  C   UNL     1      33.872  32.632  36.642  1.00  0.00     0.008 A 
ENDROOT
BRANCH   1   7
HETATM    7  C   UNL     1      35.380  32.867  38.624  1.00  0.00     0.112 C 
HETATM    8  C   UNL     1      36.839  32.538  38.943  1.00  0.00     0.026 C 
BRANCH   7   9
HETATM    9  C   UNL     1      34.478  31.895  39.337  1.00  0.00     0.148 C 
HETATM   10  O   UNL     1      33.855  32.250  40.310  1.00  0.00    -0.649 OA
BRANCH   9  11
HETATM   11  O   UNL     1      34.366  30.632  38.894  1.00  0.00    -0.776 OA
HETATM   12  H   UNL     1      33.630  30.386  38.317  1.00  0.00     0.167 HD
ENDBRANCH   9  11
ENDBRANCH   7   9
ENDBRANCH   1   7
BRANCH   4  13
HETATM   13  C   UNL     1      34.514  32.469  32.926  1.00  0.00     0.042 C 
BRANCH  13  14
HETATM   14  C   UNL     1      34.236  31.013  32.553  1.00  0.00    -0.019 C 
HETATM   15  C   UNL     1      32.998  30.943  31.655  1.00  0.00     0.010 C 
HETATM   16  C   UNL     1      35.440  30.438  31.806  1.00  0.00     0.010 C 
ENDBRANCH  13  14
ENDBRANCH   4  13
TORSDOF 5
ENDMDL
MODEL 10
REMARK VINA RESULT:    -6.200      3.430      6.020
REMARK INTER + INTRA:          -8.437
REMARK INTER:                  -7.821
REMARK INTRA:                  -0.616
REMARK UNBOUND:                -0.606
REMARK  5 active torsions:
REMARK  status: ('A' for Active; 'I' for Inactive)
REMARK    1  A    between atoms: C_1  and  C_6 
REMARK    2  A    between atoms: C_1  and  O_14 
REMARK    3  A    between atoms: C_2  and  C_3 
REMARK    4  A    between atoms: C_2  and  C_11 
REMARK    5  A    between atoms: C_6  and  C_8 
ROOT
HETATM    1  C   UNL     1      35.975  32.685  36.221  1.00  0.00    -0.044 A 
HETATM    2  C   UNL     1      34.717  32.307  36.652  1.00  0.00     0.008 A 
HETATM    3  C   UNL     1      33.743  31.973  35.732  1.00  0.00     0.007 A 
HETATM    4  C   UNL     1      34.026  32.016  34.380  1.00  0.00    -0.058 A 
HETATM    5  C   UNL     1      35.284  32.388  33.949  1.00  0.00     0.007 A 
HETATM    6  C   UNL     1      36.257  32.728  34.869  1.00  0.00     0.008 A 
ENDROOT
BRANCH   1   7
HETATM    7  C   UNL     1      37.037  33.051  37.224  1.00  0.00     0.112 C 
HETATM    8  C   UNL     1      37.798  34.284  36.735  1.00  0.00     0.026 C 
BRANCH   7   9
HETATM    9  C   UNL     1      37.996  31.900  37.384  1.00  0.00     0.148 C 
HETATM   10  O   UNL     1      39.153  32.029  37.060  1.00  0.00    -0.649 OA
BRANCH   9  11
HETATM   11  O   UNL     1      37.565  30.732  37.885  1.00  0.00    -0.776 OA
HETATM   12  H   UNL     1      37.755  30.500  38.805  1.00  0.00     0.167 HD
ENDBRANCH   9  11
ENDBRANCH   7   9
ENDBRANCH   1   7
BRANCH   4  13
HETATM   13  C   UNL     1      32.962  31.651  33.375  1.00  0.00     0.042 C 
BRANCH  13  14
HETATM   14  C   UNL     1      33.582  30.806  32.262  1.00  0.00    -0.019 C 
HETATM   15  C   UNL     1      33.371  29.322  32.571  1.00  0.00     0.010 C 
HETATM   16  C   UNL     1      32.914  31.148  30.930  1.00  0.00     0.010 C 
ENDBRANCH  13  14
ENDBRANCH   4  13
TORSDOF 5
ENDMDL
MODEL 11
REMARK VINA RESULT:    -6.192      4.719      6.432
REMARK INTER + INTRA:          -8.427
REMARK INTER:                  -8.143
REMARK INTRA:                  -0.284
REMARK UNBOUND:                -0.606
REMARK  5 active torsions:
REMARK  status: ('A' for Active; 'I' for Inactive)
REMARK    1  A    between atoms: C_1  and  C_6 
REMARK    2  A    between atoms: C_1  and  O_14 
REMARK    3  A    between atoms: C_2  and  C_3 
REMARK    4  A    between atoms: C_2  and  C_11 
REMARK    5  A    between atoms: C_6  and  C_8 
ROOT
HETATM    1  C   UNL     1      34.482  30.303  31.420  1.00  0.00    -0.044 A 
HETATM    2  C   UNL     1      34.431  31.556  32.002  1.00  0.00     0.008 A 
HETATM    3  C   UNL     1      33.653  31.765  33.124  1.00  0.00     0.007 A 
HETATM    4  C   UNL     1      32.924  30.723  33.664  1.00  0.00    -0.058 A 
HETATM    5  C   UNL     1      32.979  29.469  33.085  1.00  0.00     0.007 A 
HETATM    6  C   UNL     1      33.754  29.261  31.960  1.00  0.00     0.008 A 
ENDROOT
BRANCH   1   7
HETATM    7  C   UNL     1      35.330  30.075  30.196  1.00  0.00     0.112 C 
HETATM    8  C   UNL     1      34.970  31.106  29.126  1.00  0.00     0.026 C 
BRANCH   7   9
HETATM    9  C   UNL     1      35.079  28.689  29.662  1.00  0.00     0.148 C 
HETATM   10  O   UNL     1      34.187  28.499  28.870  1.00  0.00    -0.649 OA
BRANCH   9  11
HETATM   11  O   UNL     1      35.845  27.664  30.068  1.00  0.00    -0.776 OA
HETATM   12  H   UNL     1      36.525  27.805  30.742  1.00  0.00     0.167 HD
ENDBRANCH   9  11
ENDBRANCH   7   9
ENDBRANCH   1   7
BRANCH   4  13
HETATM   13  C   UNL     1      32.074  30.951  34.888  1.00  0.00     0.042 C 
BRANCH  13  14
HETATM   14  C   UNL     1      32.526  32.232  35.589  1.00  0.00    -0.019 C 
HETATM   15  C   UNL     1      31.315  32.922  36.221  1.00  0.00     0.010 C 
HETATM   16  C   UNL     1      33.541  31.886  36.679  1.00  0.00     0.010 C 
ENDBRANCH  13  14
ENDBRANCH   4  13
TORSDOF 5
ENDMDL
MODEL 12
REMARK VINA RESULT:    -6.155      1.861      2.439
REMARK INTER + INTRA:          -8.381
REMARK INTER:                  -7.842
REMARK INTRA:                  -0.539
REMARK UNBOUND:                -0.606
REMARK  5 active torsions:
REMARK  status: ('A' for Active; 'I' for Inactive)
REMARK    1  A    between atoms: C_1  and  C_6 
REMARK    2  A    between atoms: C_1  and  O_14 
REMARK    3  A    between atoms: C_2  and  C_3 
REMARK    4  A    between atoms: C_2  and  C_11 
REMARK    5  A    between atoms: C_6  and  C_8 
ROOT
HETATM    1  C   UNL     1      33.558  31.838  34.526  1.00  0.00    -0.044 A 
HETATM    2  C   UNL     1      33.544  31.875  35.908  1.00  0.00     0.008 A 
HETATM    3  C   UNL     1      34.653  32.328  36.597  1.00  0.00     0.007 A 
HETATM    4  C   UNL     1      35.775  32.743  35.905  1.00  0.00    -0.058 A 
HETATM    5  C   UNL     1      35.786  32.711  34.524  1.00  0.00     0.007 A 
HETATM    6  C   UNL     1      34.679  32.253  33.835  1.00  0.00     0.008 A 
ENDROOT
BRANCH   1   7
HETATM    7  C   UNL     1      32.350  31.342  33.774  1.00  0.00     0.112 C 
HETATM    8  C   UNL     1      31.298  30.845  34.766  1.00  0.00     0.026 C 
BRANCH   7   9
HETATM    9  C   UNL     1      32.754  30.212  32.863  1.00  0.00     0.148 C 
HETATM   10  O   UNL     1      32.798  30.386  31.668  1.00  0.00    -0.649 OA
BRANCH   9  11
HETATM   11  O   UNL     1      33.064  29.012  33.378  1.00  0.00    -0.776 OA
HETATM   12  H   UNL     1      32.377  28.472  33.793  1.00  0.00     0.167 HD
ENDBRANCH   9  11
ENDBRANCH   7   9
ENDBRANCH   1   7
BRANCH   4  13
HETATM   13  C   UNL     1      36.983  33.238  36.657  1.00  0.00     0.042 C 
BRANCH  13  14
HETATM   14  C   UNL     1      37.391  32.201  37.704  1.00  0.00    -0.019 C 
HETATM   15  C   UNL     1      38.860  31.822  37.502  1.00  0.00     0.010 C 
HETATM   16  C   UNL     1      37.205  32.788  39.104  1.00  0.00     0.010 C 
ENDBRANCH  13  14
ENDBRANCH   4  13
TORSDOF 5
ENDMDL
MODEL 13
REMARK VINA RESULT:    -6.094      1.903      3.275
REMARK INTER + INTRA:          -8.303
REMARK INTER:                  -8.082
REMARK INTRA:                  -0.221
REMARK UNBOUND:                -0.606
REMARK  5 active torsions:
REMARK  status: ('A' for Active; 'I' for Inactive)
REMARK    1  A    between atoms: C_1  and  C_6 
REMARK    2  A    between atoms: C_1  and  O_14 
REMARK    3  A    between atoms: C_2  and  C_3 
REMARK    4  A    between atoms: C_2  and  C_11 
REMARK    5  A    between atoms: C_6  and  C_8 
ROOT
HETATM    1  C   UNL     1      33.594  31.832  36.250  1.00  0.00    -0.044 A 
HETATM    2  C   UNL     1      32.850  31.931  37.411  1.00  0.00     0.008 A 
HETATM    3  C   UNL     1      33.410  32.486  38.545  1.00  0.00     0.007 A 
HETATM    4  C   UNL     1      34.715  32.940  38.520  1.00  0.00    -0.058 A 
HETATM    5  C   UNL     1      35.457  32.846  37.358  1.00  0.00     0.007 A 
HETATM    6  C   UNL     1      34.898  32.287  36.225  1.00  0.00     0.008 A 
ENDROOT
BRANCH   1   7
HETATM    7  C   UNL     1      32.984  31.226  35.013  1.00  0.00     0.112 C 
HETATM    8  C   UNL     1      33.536  31.929  33.773  1.00  0.00     0.026 C 
BRANCH   7   9
HETATM    9  C   UNL     1      31.487  31.390  35.059  1.00  0.00     0.148 C 
HETATM   10  O   UNL     1      30.771  30.419  35.002  1.00  0.00    -0.649 OA
BRANCH   9  11
HETATM   11  O   UNL     1      30.949  32.616  35.162  1.00  0.00    -0.776 OA
HETATM   12  H   UNL     1      30.951  33.075  36.013  1.00  0.00     0.167 HD
ENDBRANCH   9  11
ENDBRANCH   7   9
ENDBRANCH   1   7
BRANCH   4  13
HETATM   13  C   UNL     1      35.326  33.545  39.758  1.00  0.00     0.042 C 
BRANCH  13  14
HETATM   14  C   UNL     1      34.230  34.192  40.603  1.00  0.00    -0.019 C 
HETATM   15  C   UNL     1      34.031  33.384  41.887  1.00  0.00     0.010 C 
HETATM   16  C   UNL     1      34.637  35.622  40.960  1.00  0.00     0.010 C 
ENDBRANCH  13  14
ENDBRANCH   4  13
TORSDOF 5
ENDMDL
MODEL 14
REMARK VINA RESULT:    -6.032      3.430      5.215
REMARK INTER + INTRA:          -8.225
REMARK INTER:                  -7.763
REMARK INTRA:                  -0.462
REMARK UNBOUND:                -0.606
REMARK  5 active torsions:
REMARK  status: ('A' for Active; 'I' for Inactive)
REMARK    1  A    between atoms: C_1  and  C_6 
REMARK    2  A    between atoms: C_1  and  O_14 
REMARK    3  A    between atoms: C_2  and  C_3 
REMARK    4  A    between atoms: C_2  and  C_11 
REMARK    5  A    between atoms: C_6  and  C_8 
ROOT
HETATM    1  C   UNL     1      34.859  32.170  37.133  1.00  0.00    -0.044 A 
HETATM    2  C   UNL     1      33.651  31.944  36.500  1.00  0.00     0.008 A 
HETATM    3  C   UNL     1      33.553  32.084  35.129  1.00  0.00     0.007 A 
HETATM    4  C   UNL     1      34.662  32.451  34.391  1.00  0.00    -0.058 A 
HETATM    5  C   UNL     1      35.871  32.672  35.023  1.00  0.00     0.007 A 
HETATM    6  C   UNL     1      35.967  32.536  36.394  1.00  0.00     0.008 A 
ENDROOT
BRANCH   1   7
HETATM    7  C   UNL     1      34.966  32.019  38.628  1.00  0.00     0.112 C 
HETATM    8  C   UNL     1      33.579  32.159  39.256  1.00  0.00     0.026 C 
BRANCH   7   9
HETATM    9  C   UNL     1      35.876  33.086  39.177  1.00  0.00     0.148 C 
HETATM   10  O   UNL     1      35.427  34.168  39.475  1.00  0.00    -0.649 OA
BRANCH   9  11
HETATM   11  O   UNL     1      37.186  32.837  39.334  1.00  0.00    -0.776 OA
HETATM   12  H   UNL     1      37.686  32.411  38.623  1.00  0.00     0.167 HD
ENDBRANCH   9  11
ENDBRANCH   7   9
ENDBRANCH   1   7
BRANCH   4  13
HETATM   13  C   UNL     1      34.554  32.604  32.895  1.00  0.00     0.042 C 
BRANCH  13  14
HETATM   14  C   UNL     1      34.185  31.258  32.270  1.00  0.00    -0.019 C 
HETATM   15  C   UNL     1      33.394  31.494  30.982  1.00  0.00     0.010 C 
HETATM   16  C   UNL     1      35.460  30.477  31.950  1.00  0.00     0.010 C 
ENDBRANCH  13  14
ENDBRANCH   4  13
TORSDOF 5
ENDMDL
MODEL 15
REMARK VINA RESULT:    -6.024      4.008      5.725
REMARK INTER + INTRA:          -8.215
REMARK INTER:                  -7.854
REMARK INTRA:                  -0.361
REMARK UNBOUND:                -0.606
REMARK  5 active torsions:
REMARK  status: ('A' for Active; 'I' for Inactive)
REMARK    1  A    between atoms: C_1  and  C_6 
REMARK    2  A    between atoms: C_1  and  O_14 
REMARK    3  A    between atoms: C_2  and  C_3 
REMARK    4  A    between atoms: C_2  and  C_11 
REMARK    5  A    between atoms: C_6  and  C_8 
ROOT
HETATM    1  C   UNL     1      33.640  32.154  34.383  1.00  0.00    -0.044 A 
HETATM    2  C   UNL     1      32.855  31.034  34.185  1.00  0.00     0.008 A 
HETATM    3  C   UNL     1      32.853  30.400  32.958  1.00  0.00     0.007 A 
HETATM    4  C   UNL     1      33.635  30.886  31.927  1.00  0.00    -0.058 A 
HETATM    5  C   UNL     1      34.424  32.003  32.127  1.00  0.00     0.007 A 
HETATM    6  C   UNL     1      34.422  32.640  33.353  1.00  0.00     0.008 A 
ENDROOT
BRANCH   1   7
HETATM    7  C   UNL     1      33.641  32.847  35.721  1.00  0.00     0.112 C 
HETATM    8  C   UNL     1      34.791  32.310  36.573  1.00  0.00     0.026 C 
BRANCH   7   9
HETATM    9  C   UNL     1      32.333  32.588  36.422  1.00  0.00     0.148 C 
HETATM   10  O   UNL     1      32.301  31.875  37.397  1.00  0.00    -0.649 OA
BRANCH   9  11
HETATM   11  O   UNL     1      31.202  33.147  35.962  1.00  0.00    -0.776 OA
HETATM   12  H   UNL     1      30.662  32.680  35.310  1.00  0.00     0.167 HD
ENDBRANCH   9  11
ENDBRANCH   7   9
ENDBRANCH   1   7
BRANCH   4  13
HETATM   13  C   UNL     1      33.633  30.194  30.588  1.00  0.00     0.042 C 
BRANCH  13  14
HETATM   14  C   UNL     1      35.046  30.208  30.005  1.00  0.00    -0.019 C 
HETATM   15  C   UNL     1      35.505  28.772  29.744  1.00  0.00     0.010 C 
HETATM   16  C   UNL     1      35.049  30.991  28.691  1.00  0.00     0.010 C 
ENDBRANCH  13  14
ENDBRANCH   4  13
TORSDOF 5
ENDMDL
MODEL 16
REMARK VINA RESULT:    -5.973      3.541      5.366
REMARK INTER + INTRA:          -8.151
REMARK INTER:                  -7.886
REMARK INTRA:                  -0.264
REMARK UNBOUND:                -0.606
REMARK  5 active torsions:
REMARK  status: ('A' for Active; 'I' for Inactive)
REMARK    1  A    between atoms: C_1  and  C_6 
REMARK    2  A    between atoms: C_1  and  O_14 
REMARK    3  A    between atoms: C_2  and  C_3 
REMARK    4  A    between atoms: C_2  and  C_11 
REMARK    5  A    between atoms: C_6  and  C_8 
ROOT
HETATM    1  C   UNL     1      34.087  32.329  35.356  1.00  0.00    -0.044 A 
HETATM    2  C   UNL     1      33.069  31.432  35.088  1.00  0.00     0.008 A 
HETATM    3  C   UNL     1      32.868  30.982  33.798  1.00  0.00     0.007 A 
HETATM    4  C   UNL     1      33.682  31.430  32.775  1.00  0.00    -0.058 A 
HETATM    5  C   UNL     1      34.702  32.322  33.043  1.00  0.00     0.007 A 
HETATM    6  C   UNL     1      34.900  32.776  34.333  1.00  0.00     0.008 A 
ENDROOT
BRANCH   1   7
HETATM    7  C   UNL     1      34.306  32.822  36.763  1.00  0.00     0.112 C 
HETATM    8  C   UNL     1      35.768  32.607  37.157  1.00  0.00     0.026 C 
BRANCH   7   9
HETATM    9  C   UNL     1      33.414  32.059  37.707  1.00  0.00     0.148 C 
HETATM   10  O   UNL     1      32.252  32.368  37.822  1.00  0.00    -0.649 OA
BRANCH   9  11
HETATM   11  O   UNL     1      33.911  31.037  38.421  1.00  0.00    -0.776 OA
HETATM   12  H   UNL     1      34.631  30.500  38.062  1.00  0.00     0.167 HD
ENDBRANCH   9  11
ENDBRANCH   7   9
ENDBRANCH   1   7
BRANCH   4  13
HETATM   13  C   UNL     1      33.461  30.938  31.367  1.00  0.00     0.042 C 
BRANCH  13  14
HETATM   14  C   UNL     1      34.810  30.772  30.667  1.00  0.00    -0.019 C 
HETATM   15  C   UNL     1      35.357  29.369  30.940  1.00  0.00     0.010 C 
HETATM   16  C   UNL     1      34.632  30.965  29.161  1.00  0.00     0.010 C 
ENDBRANCH  13  14
ENDBRANCH   4  13
TORSDOF 5
ENDMDL
MODEL 17
REMARK VINA RESULT:    -5.941      2.881      4.904
REMARK INTER + INTRA:          -8.110
REMARK INTER:                  -7.696
REMARK INTRA:                  -0.415
REMARK UNBOUND:                -0.606
REMARK  5 active torsions:
REMARK  status: ('A' for Active; 'I' for Inactive)
REMARK    1  A    between atoms: C_1  and  C_6 
REMARK    2  A    between atoms: C_1  and  O_14 
REMARK    3  A    between atoms: C_2  and  C_3 
REMARK    4  A    between atoms: C_2  and  C_11 
REMARK    5  A    between atoms: C_6  and  C_8 
ROOT
HETATM    1  C   UNL     1      33.800  32.631  37.715  1.00  0.00    -0.044 A 
HETATM    2  C   UNL     1      32.517  32.333  37.293  1.00  0.00     0.008 A 
HETATM    3  C   UNL     1      32.292  31.957  35.983  1.00  0.00     0.007 A 
HETATM    4  C   UNL     1      33.347  31.879  35.095  1.00  0.00    -0.058 A 
HETATM    5  C   UNL     1      34.630  32.170  35.518  1.00  0.00     0.007 A 
HETATM    6  C   UNL     1      34.855  32.552  36.827  1.00  0.00     0.008 A 
ENDROOT
BRANCH   1   7
HETATM    7  C   UNL     1      34.046  33.043  39.143  1.00  0.00     0.112 C 
HETATM    8  C   UNL     1      35.447  33.645  39.266  1.00  0.00     0.026 C 
BRANCH   7   9
HETATM    9  C   UNL     1      33.937  31.837  40.040  1.00  0.00     0.148 C 
HETATM   10  O   UNL     1      33.788  31.981  41.230  1.00  0.00    -0.649 OA
BRANCH   9  11
HETATM   11  O   UNL     1      34.007  30.603  39.517  1.00  0.00    -0.776 OA
HETATM   12  H   UNL     1      33.198  30.095  39.367  1.00  0.00     0.167 HD
ENDBRANCH   9  11
ENDBRANCH   7   9
ENDBRANCH   1   7
BRANCH   4  13
HETATM   13  C   UNL     1      33.100  31.468  33.665  1.00  0.00     0.042 C 
BRANCH  13  14
HETATM   14  C   UNL     1      34.415  31.520  32.886  1.00  0.00    -0.019 C 
HETATM   15  C   UNL     1      34.668  30.164  32.223  1.00  0.00     0.010 C 
HETATM   16  C   UNL     1      34.329  32.604  31.811  1.00  0.00     0.010 C 
ENDBRANCH  13  14
ENDBRANCH   4  13
TORSDOF 5
ENDMDL
MODEL 18
REMARK VINA RESULT:    -5.936      2.958      6.123
REMARK INTER + INTRA:          -8.104
REMARK INTER:                  -7.544
REMARK INTRA:                  -0.560
REMARK UNBOUND:                -0.606
REMARK  5 active torsions:
REMARK  status: ('A' for Active; 'I' for Inactive)
REMARK    1  A    between atoms: C_1  and  C_6 
REMARK    2  A    between atoms: C_1  and  O_14 
REMARK    3  A    between atoms: C_2  and  C_3 
REMARK    4  A    between atoms: C_2  and  C_11 
REMARK    5  A    between atoms: C_6  and  C_8 
ROOT
HETATM    1  C   UNL     1      36.062  32.855  37.245  1.00  0.00    -0.044 A 
HETATM    2  C   UNL     1      35.544  32.905  35.965  1.00  0.00     0.008 A 
HETATM    3  C   UNL     1      34.296  32.372  35.704  1.00  0.00     0.007 A 
HETATM    4  C   UNL     1      33.567  31.788  36.722  1.00  0.00    -0.058 A 
HETATM    5  C   UNL     1      34.083  31.744  38.003  1.00  0.00     0.007 A 
HETATM    6  C   UNL     1      35.333  32.272  38.263  1.00  0.00     0.008 A 
ENDROOT
BRANCH   1   7
HETATM    7  C   UNL     1      37.423  33.435  37.530  1.00  0.00     0.112 C 
HETATM    8  C   UNL     1      37.799  34.424  36.426  1.00  0.00     0.026 C 
BRANCH   7   9
HETATM    9  C   UNL     1      38.441  32.326  37.579  1.00  0.00     0.148 C 
HETATM   10  O   UNL     1      39.257  32.294  38.470  1.00  0.00    -0.649 OA
BRANCH   9  11
HETATM   11  O   UNL     1      38.444  31.375  36.633  1.00  0.00    -0.776 OA
HETATM   12  H   UNL     1      38.013  30.525  36.800  1.00  0.00     0.167 HD
ENDBRANCH   9  11
ENDBRANCH   7   9
ENDBRANCH   1   7
BRANCH   4  13
HETATM   13  C   UNL     1      32.206  31.207  36.437  1.00  0.00     0.042 C 
BRANCH  13  14
HETATM   14  C   UNL     1      31.316  32.278  35.806  1.00  0.00    -0.019 C 
HETATM   15  C   UNL     1      30.322  31.617  34.849  1.00  0.00     0.010 C 
HETATM   16  C   UNL     1      30.551  33.018  36.905  1.00  0.00     0.010 C 
ENDBRANCH  13  14
ENDBRANCH   4  13
TORSDOF 5
ENDMDL
MODEL 19
REMARK VINA RESULT:    -5.929      2.037      3.303
REMARK INTER + INTRA:          -8.095
REMARK INTER:                  -7.700
REMARK INTRA:                  -0.395
REMARK UNBOUND:                -0.606
REMARK  5 active torsions:
REMARK  status: ('A' for Active; 'I' for Inactive)
REMARK    1  A    between atoms: C_1  and  C_6 
REMARK    2  A    between atoms: C_1  and  O_14 
REMARK    3  A    between atoms: C_2  and  C_3 
REMARK    4  A    between atoms: C_2  and  C_11 
REMARK    5  A    between atoms: C_6  and  C_8 
ROOT
HETATM    1  C   UNL     1      31.393  31.479  35.234  1.00  0.00    -0.044 A 
HETATM    2  C   UNL     1      32.763  31.334  35.349  1.00  0.00     0.008 A 
HETATM    3  C   UNL     1      33.422  31.843  36.451  1.00  0.00     0.007 A 
HETATM    4  C   UNL     1      32.711  32.497  37.440  1.00  0.00    -0.058 A 
HETATM    5  C   UNL     1      31.341  32.637  37.328  1.00  0.00     0.007 A 
HETATM    6  C   UNL     1      30.683  32.133  36.223  1.00  0.00     0.008 A 
ENDROOT
BRANCH   1   7
HETATM    7  C   UNL     1      30.674  30.926  34.031  1.00  0.00     0.112 C 
HETATM    8  C   UNL     1      29.216  30.644  34.392  1.00  0.00     0.026 C 
BRANCH   7   9
HETATM    9  C   UNL     1      31.339  29.648  33.592  1.00  0.00     0.148 C 
HETATM   10  O   UNL     1      32.211  29.677  32.757  1.00  0.00    -0.649 OA
BRANCH   9  11
HETATM   11  O   UNL     1      30.962  28.477  34.129  1.00  0.00    -0.776 OA
HETATM   12  H   UNL     1      30.571  27.792  33.568  1.00  0.00     0.167 HD
ENDBRANCH   9  11
ENDBRANCH   7   9
ENDBRANCH   1   7
BRANCH   4  13
HETATM   13  C   UNL     1      33.430  33.052  38.643  1.00  0.00     0.042 C 
BRANCH  13  14
HETATM   14  C   UNL     1      34.439  32.022  39.153  1.00  0.00    -0.019 C 
HETATM   15  C   UNL     1      35.805  32.689  39.330  1.00  0.00     0.010 C 
HETATM   16  C   UNL     1      33.966  31.467  40.497  1.00  0.00     0.010 C 
ENDBRANCH  13  14
ENDBRANCH   4  13
TORSDOF 5
ENDMDL
MODEL 20
REMARK VINA RESULT:    -5.875      5.338      6.990
REMARK INTER + INTRA:          -8.027
REMARK INTER:                  -7.421
REMARK INTRA:                  -0.606
REMARK UNBOUND:                -0.606
REMARK  5 active torsions:
REMARK  status: ('A' for Active; 'I' for Inactive)
REMARK    1  A    between atoms: C_1  and  C_6 
REMARK    2  A    between atoms: C_1  and  O_14 
REMARK    3  A    between atoms: C_2  and  C_3 
REMARK    4  A    between atoms: C_2  and  C_11 
REMARK    5  A    between atoms: C_6  and  C_8 
ROOT
HETATM    1  C   UNL     1      34.554  31.664  32.506  1.00  0.00    -0.044 A 
HETATM    2  C   UNL     1      33.953  31.860  31.277  1.00  0.00     0.008 A 
HETATM    3  C   UNL     1      34.254  31.024  30.220  1.00  0.00     0.007 A 
HETATM    4  C   UNL     1      35.158  29.993  30.390  1.00  0.00    -0.058 A 
HETATM    5  C   UNL     1      35.755  29.794  31.620  1.00  0.00     0.007 A 
HETATM    6  C   UNL     1      35.457  30.633  32.676  1.00  0.00     0.008 A 
ENDROOT
BRANCH   1   7
HETATM    7  C   UNL     1      34.227  32.577  33.660  1.00  0.00     0.112 C 
HETATM    8  C   UNL     1      35.510  32.929  34.413  1.00  0.00     0.026 C 
BRANCH   7   9
HETATM    9  C   UNL     1      33.271  31.882  34.594  1.00  0.00     0.148 C 
HETATM   10  O   UNL     1      33.602  31.646  35.731  1.00  0.00    -0.649 OA
BRANCH   9  11
HETATM   11  O   UNL     1      32.051  31.525  34.162  1.00  0.00    -0.776 OA
HETATM   12  H   UNL     1      31.360  32.194  34.057  1.00  0.00     0.167 HD
ENDBRANCH   9  11
ENDBRANCH   7   9
ENDBRANCH   1   7
BRANCH   4  13
HETATM   13  C   UNL     1      35.487  29.081  29.236  1.00  0.00     0.042 C 
BRANCH  13  14
HETATM   14  C   UNL     1      34.931  27.684  29.515  1.00  0.00    -0.019 C 
HETATM   15  C   UNL     1      33.539  27.556  28.893  1.00  0.00     0.010 C 
HETATM   16  C   UNL     1      35.860  26.634  28.906  1.00  0.00     0.010 C 
ENDBRANCH  13  14
ENDBRANCH   4  13
TORSDOF 5
ENDMDL
