MODEL 1
REMARK VINA RESULT:    -7.301      0.000      0.000
REMARK INTER + INTRA:         -10.416
REMARK INTER:                 -10.462
REMARK INTRA:                   0.046
REMARK UNBOUND:                 0.726
REMARK  9 active torsions:
REMARK  status: ('A' for Active; 'I' for Inactive)
REMARK    1  A    between atoms: C_13  and  C_16 
REMARK    2  A    between atoms: C_14  and  C_17 
REMARK    3  A    between atoms: C_15  and  C_18 
REMARK    4  A    between atoms: C_16  and  C_22 
REMARK    5  A    between atoms: C_17  and  C_23 
REMARK    6  A    between atoms: C_18  and  C_24 
REMARK    7  A    between atoms: C_19  and  C_25 
REMARK    8  A    between atoms: C_20  and  C_26 
REMARK    9  A    between atoms: C_21  and  C_27 
ROOT
HETATM    1  O   UNL     1      29.141  23.127  29.040  1.00  0.00    -0.304 OA
HETATM    2  O   UNL     1      26.605  25.208  32.914  1.00  0.00    -0.304 OA
HETATM    3  O   UNL     1      27.874  20.630  31.973  1.00  0.00    -0.304 OA
HETATM    4  O   UNL     1      28.842  25.435  30.182  1.00  0.00    -0.270 OA
HETATM    5  O   UNL     1      28.364  17.770  30.110  1.00  0.00    -0.270 OA
HETATM    6  O   UNL     1      28.665  23.566  32.908  1.00  0.00    -0.270 OA
HETATM    7  O   UNL     1      28.740  21.388  27.579  1.00  0.00    -0.263 OA
HETATM    8  O   UNL     1      25.345  23.953  31.441  1.00  0.00    -0.263 OA
HETATM    9  O   UNL     1      29.070  18.909  32.924  1.00  0.00    -0.263 OA
HETATM   10  N   UNL     1      26.628  25.515  29.492  1.00  0.00    -0.340 N 
HETATM   11  N   UNL     1      29.649  19.607  29.515  1.00  0.00    -0.340 N 
HETATM   12  N   UNL     1      27.711  21.946  34.268  1.00  0.00    -0.340 N 
HETATM   13  C   UNL     1      26.217  26.128  30.772  1.00  0.00     0.190 C 
HETATM   14  C   UNL     1      29.996  21.037  29.646  1.00  0.00     0.190 C 
HETATM   15  C   UNL     1      28.864  21.033  34.094  1.00  0.00     0.190 C 
HETATM   16  C   UNL     1      28.275  24.038  28.329  1.00  0.00     0.227 C 
HETATM   17  C   UNL     1      26.567  24.157  33.899  1.00  0.00     0.227 C 
HETATM   18  C   UNL     1      27.493  19.903  30.801  1.00  0.00     0.227 C 
HETATM   19  C   UNL     1      27.956  25.076  29.397  1.00  0.00     0.250 C 
HETATM   20  C   UNL     1      28.545  18.994  30.129  1.00  0.00     0.250 C 
HETATM   21  C   UNL     1      27.738  23.202  33.642  1.00  0.00     0.250 C 
HETATM   22  C   UNL     1      29.219  21.835  28.610  1.00  0.00     0.283 C 
HETATM   23  C   UNL     1      25.983  24.960  31.721  1.00  0.00     0.283 C 
HETATM   24  C   UNL     1      28.595  20.037  32.965  1.00  0.00     0.283 C 
HETATM   25  C   UNL     1      25.614  25.273  28.464  1.00  0.00     0.153 C 
HETATM   26  C   UNL     1      30.517  18.772  28.685  1.00  0.00     0.153 C 
HETATM   27  C   UNL     1      26.577  21.427  35.039  1.00  0.00     0.153 C 
ENDROOT
BRANCH  16  28
HETATM   28  C   UNL     1      29.018  24.672  27.168  1.00  0.00     0.016 C 
HETATM   29  C   UNL     1      30.386  25.183  27.618  1.00  0.00     0.012 C 
HETATM   30  C   UNL     1      28.198  25.807  26.557  1.00  0.00     0.012 C 
ENDBRANCH  16  28
BRANCH  14  31
HETATM   31  C   UNL     1      31.487  21.353  29.538  1.00  0.00     0.014 C 
HETATM   32  C   UNL     1      31.806  21.873  28.135  1.00  0.00     0.012 C 
BRANCH  31  33
HETATM   33  C   UNL     1      31.946  22.376  30.592  1.00  0.00     0.002 C 
HETATM   34  C   UNL     1      31.695  21.929  32.025  1.00  0.00     0.005 C 
ENDBRANCH  31  33
ENDBRANCH  14  31
BRANCH  13  35
HETATM   35  C   UNL     1      24.981  27.017  30.735  1.00  0.00     0.014 C 
HETATM   36  C   UNL     1      24.550  27.364  32.162  1.00  0.00     0.012 C 
BRANCH  35  37
HETATM   37  C   UNL     1      25.210  28.309  29.931  1.00  0.00     0.002 C 
HETATM   38  C   UNL     1      26.449  29.083  30.363  1.00  0.00     0.005 C 
ENDBRANCH  35  37
ENDBRANCH  13  35
BRANCH  18  39
HETATM   39  C   UNL     1      26.216  19.129  31.134  1.00  0.00     0.016 C 
HETATM   40  C   UNL     1      25.308  19.956  32.041  1.00  0.00     0.012 C 
HETATM   41  C   UNL     1      25.479  18.734  29.855  1.00  0.00     0.012 C 
ENDBRANCH  18  39
BRANCH  17  42
HETATM   42  C   UNL     1      26.720  24.818  35.262  1.00  0.00     0.016 C 
HETATM   43  C   UNL     1      25.394  24.804  36.021  1.00  0.00     0.012 C 
HETATM   44  C   UNL     1      27.236  26.249  35.114  1.00  0.00     0.012 C 
ENDBRANCH  17  42
BRANCH  15  45
HETATM   45  C   UNL     1      29.275  20.321  35.381  1.00  0.00     0.014 C 
HETATM   46  C   UNL     1      30.546  19.498  35.142  1.00  0.00     0.012 C 
BRANCH  45  47
HETATM   47  C   UNL     1      29.504  21.299  36.550  1.00  0.00     0.002 C 
HETATM   48  C   UNL     1      30.535  22.375  36.247  1.00  0.00     0.005 C 
ENDBRANCH  45  47
ENDBRANCH  15  45
TORSDOF 9
ENDMDL
MODEL 2
REMARK VINA RESULT:    -7.249      1.895      3.896
REMARK INTER + INTRA:         -10.336
REMARK INTER:                 -10.649
REMARK INTRA:                   0.312
REMARK UNBOUND:                 0.726
REMARK  9 active torsions:
REMARK  status: ('A' for Active; 'I' for Inactive)
REMARK    1  A    between atoms: C_13  and  C_16 
REMARK    2  A    between atoms: C_14  and  C_17 
REMARK    3  A    between atoms: C_15  and  C_18 
REMARK    4  A    between atoms: C_16  and  C_22 
REMARK    5  A    between atoms: C_17  and  C_23 
REMARK    6  A    between atoms: C_18  and  C_24 
REMARK    7  A    between atoms: C_19  and  C_25 
REMARK    8  A    between atoms: C_20  and  C_26 
REMARK    9  A    between atoms: C_21  and  C_27 
ROOT
HETATM    1  O   UNL     1      30.526  22.194  31.193  1.00  0.00    -0.304 OA
HETATM    2  O   UNL     1      26.702  25.449  30.448  1.00  0.00    -0.304 OA
HETATM    3  O   UNL     1      27.045  21.429  33.129  1.00  0.00    -0.304 OA
HETATM    4  O   UNL     1      30.146  24.641  30.427  1.00  0.00    -0.270 OA
HETATM    5  O   UNL     1      27.896  18.184  33.924  1.00  0.00    -0.270 OA
HETATM    6  O   UNL     1      27.729  24.505  32.683  1.00  0.00    -0.270 OA
HETATM    7  O   UNL     1      30.772  19.906  31.026  1.00  0.00    -0.263 OA
HETATM    8  O   UNL     1      26.478  23.382  29.443  1.00  0.00    -0.263 OA
HETATM    9  O   UNL     1      26.809  20.753  35.316  1.00  0.00    -0.263 OA
HETATM   10  N   UNL     1      29.075  23.898  28.507  1.00  0.00    -0.340 N 
HETATM   11  N   UNL     1      29.663  19.643  33.565  1.00  0.00    -0.340 N 
HETATM   12  N   UNL     1      25.739  23.696  33.563  1.00  0.00    -0.340 N 
HETATM   13  C   UNL     1      28.092  24.997  28.591  1.00  0.00     0.190 C 
HETATM   14  C   UNL     1      30.186  20.961  33.151  1.00  0.00     0.190 C 
HETATM   15  C   UNL     1      26.429  23.081  34.720  1.00  0.00     0.190 C 
HETATM   16  C   UNL     1      30.625  22.396  29.767  1.00  0.00     0.227 C 
HETATM   17  C   UNL     1      25.750  25.095  31.471  1.00  0.00     0.227 C 
HETATM   18  C   UNL     1      27.372  20.134  32.617  1.00  0.00     0.227 C 
HETATM   19  C   UNL     1      29.957  23.752  29.588  1.00  0.00     0.250 C 
HETATM   20  C   UNL     1      28.323  19.240  33.442  1.00  0.00     0.250 C 
HETATM   21  C   UNL     1      26.497  24.406  32.618  1.00  0.00     0.250 C 
HETATM   22  C   UNL     1      30.535  20.917  31.672  1.00  0.00     0.283 C 
HETATM   23  C   UNL     1      26.997  24.489  29.520  1.00  0.00     0.283 C 
HETATM   24  C   UNL     1      26.737  21.609  34.444  1.00  0.00     0.283 C 
HETATM   25  C   UNL     1      28.987  22.951  27.394  1.00  0.00     0.153 C 
HETATM   26  C   UNL     1      30.610  18.690  34.144  1.00  0.00     0.153 C 
HETATM   27  C   UNL     1      24.298  23.447  33.454  1.00  0.00     0.153 C 
ENDROOT
BRANCH  16  28
HETATM   28  C   UNL     1      32.082  22.454  29.345  1.00  0.00     0.016 C 
HETATM   29  C   UNL     1      32.353  23.707  28.515  1.00  0.00     0.012 C 
HETATM   30  C   UNL     1      32.467  21.200  28.562  1.00  0.00     0.012 C 
ENDBRANCH  16  28
BRANCH  14  31
HETATM   31  C   UNL     1      31.383  21.464  33.956  1.00  0.00     0.014 C 
HETATM   32  C   UNL     1      32.548  21.772  33.013  1.00  0.00     0.012 C 
BRANCH  31  33
HETATM   33  C   UNL     1      31.044  22.711  34.792  1.00  0.00     0.002 C 
HETATM   34  C   UNL     1      30.168  22.415  36.001  1.00  0.00     0.005 C 
ENDBRANCH  31  33
ENDBRANCH  14  31
BRANCH  13  35
HETATM   35  C   UNL     1      27.479  25.463  27.278  1.00  0.00     0.014 C 
HETATM   36  C   UNL     1      26.460  26.575  27.546  1.00  0.00     0.012 C 
BRANCH  35  37
HETATM   37  C   UNL     1      28.537  25.958  26.277  1.00  0.00     0.002 C 
HETATM   38  C   UNL     1      27.948  26.706  25.088  1.00  0.00     0.005 C 
ENDBRANCH  35  37
ENDBRANCH  13  35
BRANCH  18  39
HETATM   39  C   UNL     1      26.057  19.415  32.307  1.00  0.00     0.016 C 
HETATM   40  C   UNL     1      25.024  20.398  31.763  1.00  0.00     0.012 C 
HETATM   41  C   UNL     1      26.289  18.276  31.317  1.00  0.00     0.012 C 
ENDBRANCH  18  39
BRANCH  17  42
HETATM   42  C   UNL     1      25.119  26.391  31.960  1.00  0.00     0.016 C 
HETATM   43  C   UNL     1      24.201  26.983  30.891  1.00  0.00     0.012 C 
HETATM   44  C   UNL     1      26.196  27.400  32.358  1.00  0.00     0.012 C 
ENDBRANCH  17  42
BRANCH  15  45
HETATM   45  C   UNL     1      25.678  23.257  36.038  1.00  0.00     0.014 C 
HETATM   46  C   UNL     1      26.624  23.010  37.218  1.00  0.00     0.012 C 
BRANCH  45  47
HETATM   47  C   UNL     1      25.038  24.652  36.173  1.00  0.00     0.002 C 
HETATM   48  C   UNL     1      23.825  24.677  37.091  1.00  0.00     0.005 C 
ENDBRANCH  45  47
ENDBRANCH  15  45
TORSDOF 9
ENDMDL
MODEL 3
REMARK VINA RESULT:    -7.145      1.972      6.345
REMARK INTER + INTRA:         -10.178
REMARK INTER:                 -11.101
REMARK INTRA:                   0.923
REMARK UNBOUND:                 0.726
REMARK  9 active torsions:
REMARK  status: ('A' for Active; 'I' for Inactive)
REMARK    1  A    between atoms: C_13  and  C_16 
REMARK    2  A    between atoms: C_14  and  C_17 
REMARK    3  A    between atoms: C_15  and  C_18 
REMARK    4  A    between atoms: C_16  and  C_22 
REMARK    5  A    between atoms: C_17  and  C_23 
REMARK    6  A    between atoms: C_18  and  C_24 
REMARK    7  A    between atoms: C_19  and  C_25 
REMARK    8  A    between atoms: C_20  and  C_26 
REMARK    9  A    between atoms: C_21  and  C_27 
ROOT
HETATM    1  O   UNL     1      26.679  23.506  34.867  1.00  0.00    -0.304 OA
HETATM    2  O   UNL     1      26.604  26.176  30.550  1.00  0.00    -0.304 OA
HETATM    3  O   UNL     1      28.535  21.873  31.653  1.00  0.00    -0.304 OA
HETATM    4  O   UNL     1      25.302  25.395  33.746  1.00  0.00    -0.270 OA
HETATM    5  O   UNL     1      30.243  19.519  33.505  1.00  0.00    -0.270 OA
HETATM    6  O   UNL     1      25.980  23.658  31.011  1.00  0.00    -0.270 OA
HETATM    7  O   UNL     1      28.330  22.522  36.143  1.00  0.00    -0.263 OA
HETATM    8  O   UNL     1      28.635  26.081  31.643  1.00  0.00    -0.263 OA
HETATM    9  O   UNL     1      28.429  19.676  30.975  1.00  0.00    -0.263 OA
HETATM   10  N   UNL     1      27.118  26.832  33.883  1.00  0.00    -0.340 N 
HETATM   11  N   UNL     1      28.278  20.322  34.439  1.00  0.00    -0.340 N 
HETATM   12  N   UNL     1      27.400  22.743  29.420  1.00  0.00    -0.340 N 
HETATM   13  C   UNL     1      26.806  27.406  32.558  1.00  0.00     0.190 C 
HETATM   14  C   UNL     1      27.130  21.254  34.433  1.00  0.00     0.190 C 
HETATM   15  C   UNL     1      27.084  21.359  29.844  1.00  0.00     0.190 C 
HETATM   16  C   UNL     1      26.959  24.830  35.371  1.00  0.00     0.227 C 
HETATM   17  C   UNL     1      27.052  25.231  29.558  1.00  0.00     0.227 C 
HETATM   18  C   UNL     1      29.508  21.656  32.679  1.00  0.00     0.227 C 
HETATM   19  C   UNL     1      26.367  25.718  34.285  1.00  0.00     0.250 C 
HETATM   20  C   UNL     1      29.371  20.395  33.561  1.00  0.00     0.250 C 
HETATM   21  C   UNL     1      26.764  23.813  30.066  1.00  0.00     0.250 C 
HETATM   22  C   UNL     1      27.476  22.475  35.270  1.00  0.00     0.283 C 
HETATM   23  C   UNL     1      27.483  26.485  31.551  1.00  0.00     0.283 C 
HETATM   24  C   UNL     1      28.120  20.854  30.849  1.00  0.00     0.283 C 
HETATM   25  C   UNL     1      28.264  27.354  34.629  1.00  0.00     0.153 C 
HETATM   26  C   UNL     1      28.272  19.248  35.432  1.00  0.00     0.153 C 
HETATM   27  C   UNL     1      28.428  22.889  28.385  1.00  0.00     0.153 C 
ENDROOT
BRANCH  16  28
HETATM   28  C   UNL     1      26.248  25.051  36.693  1.00  0.00     0.016 C 
HETATM   29  C   UNL     1      27.211  24.857  37.863  1.00  0.00     0.012 C 
HETATM   30  C   UNL     1      25.050  24.112  36.825  1.00  0.00     0.012 C 
ENDBRANCH  16  28
BRANCH  14  31
HETATM   31  C   UNL     1      25.807  20.653  34.905  1.00  0.00     0.014 C 
HETATM   32  C   UNL     1      25.596  20.968  36.387  1.00  0.00     0.012 C 
BRANCH  31  33
HETATM   33  C   UNL     1      24.608  21.164  34.087  1.00  0.00     0.002 C 
HETATM   34  C   UNL     1      24.704  20.845  32.602  1.00  0.00     0.005 C 
ENDBRANCH  31  33
ENDBRANCH  14  31
BRANCH  13  35
HETATM   35  C   UNL     1      27.245  28.843  32.318  1.00  0.00     0.014 C 
HETATM   36  C   UNL     1      26.853  29.276  30.903  1.00  0.00     0.012 C 
BRANCH  35  37
HETATM   37  C   UNL     1      26.647  29.820  33.345  1.00  0.00     0.002 C 
HETATM   38  C   UNL     1      25.124  29.831  33.359  1.00  0.00     0.005 C 
ENDBRANCH  35  37
ENDBRANCH  13  35
BRANCH  18  39
HETATM   39  C   UNL     1      30.890  21.735  32.028  1.00  0.00     0.016 C 
HETATM   40  C   UNL     1      30.913  22.814  30.948  1.00  0.00     0.012 C 
HETATM   41  C   UNL     1      31.963  22.006  33.081  1.00  0.00     0.012 C 
ENDBRANCH  18  39
BRANCH  17  42
HETATM   42  C   UNL     1      26.255  25.505  28.290  1.00  0.00     0.016 C 
HETATM   43  C   UNL     1      27.191  25.776  27.112  1.00  0.00     0.012 C 
HETATM   44  C   UNL     1      25.300  26.680  28.495  1.00  0.00     0.012 C 
ENDBRANCH  17  42
BRANCH  15  45
HETATM   45  C   UNL     1      26.918  20.389  28.676  1.00  0.00     0.014 C 
HETATM   46  C   UNL     1      28.286  19.851  28.243  1.00  0.00     0.012 C 
BRANCH  45  47
HETATM   47  C   UNL     1      25.982  19.212  29.013  1.00  0.00     0.002 C 
HETATM   48  C   UNL     1      26.369  17.913  28.321  1.00  0.00     0.005 C 
ENDBRANCH  45  47
ENDBRANCH  15  45
TORSDOF 9
ENDMDL
MODEL 4
REMARK VINA RESULT:    -7.143      1.581      2.007
REMARK INTER + INTRA:         -10.174
REMARK INTER:                 -10.245
REMARK INTRA:                   0.071
REMARK UNBOUND:                 0.726
REMARK  9 active torsions:
REMARK  status: ('A' for Active; 'I' for Inactive)
REMARK    1  A    between atoms: C_13  and  C_16 
REMARK    2  A    between atoms: C_14  and  C_17 
REMARK    3  A    between atoms: C_15  and  C_18 
REMARK    4  A    between atoms: C_16  and  C_22 
REMARK    5  A    between atoms: C_17  and  C_23 
REMARK    6  A    between atoms: C_18  and  C_24 
REMARK    7  A    between atoms: C_19  and  C_25 
REMARK    8  A    between atoms: C_20  and  C_26 
REMARK    9  A    between atoms: C_21  and  C_27 
ROOT
HETATM    1  O   UNL     1      29.931  22.515  30.102  1.00  0.00    -0.304 OA
HETATM    2  O   UNL     1      26.254  25.360  32.139  1.00  0.00    -0.304 OA
HETATM    3  O   UNL     1      27.682  20.816  33.018  1.00  0.00    -0.304 OA
HETATM    4  O   UNL     1      29.300  25.015  30.374  1.00  0.00    -0.270 OA
HETATM    5  O   UNL     1      28.730  17.607  32.320  1.00  0.00    -0.270 OA
HETATM    6  O   UNL     1      28.157  23.950  33.292  1.00  0.00    -0.270 OA
HETATM    7  O   UNL     1      30.026  20.417  29.148  1.00  0.00    -0.263 OA
HETATM    8  O   UNL     1      25.556  23.654  30.748  1.00  0.00    -0.263 OA
HETATM    9  O   UNL     1      28.442  19.522  34.762  1.00  0.00    -0.263 OA
HETATM   10  N   UNL     1      27.463  24.725  28.987  1.00  0.00    -0.340 N 
HETATM   11  N   UNL     1      30.176  19.310  31.697  1.00  0.00    -0.340 N 
HETATM   12  N   UNL     1      26.761  22.691  34.652  1.00  0.00    -0.340 N 
HETATM   13  C   UNL     1      26.647  25.628  29.824  1.00  0.00     0.190 C 
HETATM   14  C   UNL     1      30.484  20.745  31.526  1.00  0.00     0.190 C 
HETATM   15  C   UNL     1      27.885  21.860  35.141  1.00  0.00     0.190 C 
HETATM   16  C   UNL     1      29.382  23.125  28.915  1.00  0.00     0.227 C 
HETATM   17  C   UNL     1      25.858  24.618  33.309  1.00  0.00     0.227 C 
HETATM   18  C   UNL     1      27.715  19.770  32.043  1.00  0.00     0.227 C 
HETATM   19  C   UNL     1      28.734  24.385  29.472  1.00  0.00     0.250 C 
HETATM   20  C   UNL     1      28.916  18.800  32.051  1.00  0.00     0.250 C 
HETATM   21  C   UNL     1      27.027  23.726  33.742  1.00  0.00     0.250 C 
HETATM   22  C   UNL     1      30.128  21.165  30.109  1.00  0.00     0.283 C 
HETATM   23  C   UNL     1      26.078  24.747  30.929  1.00  0.00     0.283 C 
HETATM   24  C   UNL     1      28.004  20.576  34.319  1.00  0.00     0.283 C 
HETATM   25  C   UNL     1      26.862  24.131  27.791  1.00  0.00     0.153 C 
HETATM   26  C   UNL     1      31.262  18.353  31.481  1.00  0.00     0.153 C 
HETATM   27  C   UNL     1      25.421  22.311  35.110  1.00  0.00     0.153 C 
ENDROOT
BRANCH  16  28
HETATM   28  C   UNL     1      30.493  23.477  27.942  1.00  0.00     0.016 C 
HETATM   29  C   UNL     1      30.469  24.968  27.614  1.00  0.00     0.012 C 
HETATM   30  C   UNL     1      30.375  22.646  26.666  1.00  0.00     0.012 C 
ENDBRANCH  16  28
BRANCH  14  31
HETATM   31  C   UNL     1      31.926  21.138  31.842  1.00  0.00     0.014 C 
HETATM   32  C   UNL     1      32.581  21.745  30.599  1.00  0.00     0.012 C 
BRANCH  31  33
HETATM   33  C   UNL     1      32.019  22.127  33.017  1.00  0.00     0.002 C 
HETATM   34  C   UNL     1      31.644  21.515  34.359  1.00  0.00     0.005 C 
ENDBRANCH  31  33
ENDBRANCH  14  31
BRANCH  13  35
HETATM   35  C   UNL     1      25.518  26.370  29.124  1.00  0.00     0.014 C 
HETATM   36  C   UNL     1      24.436  26.747  30.140  1.00  0.00     0.012 C 
BRANCH  35  37
HETATM   37  C   UNL     1      26.008  27.633  28.394  1.00  0.00     0.002 C 
HETATM   38  C   UNL     1      26.329  27.400  26.923  1.00  0.00     0.005 C 
ENDBRANCH  35  37
ENDBRANCH  13  35
BRANCH  18  39
HETATM   39  C   UNL     1      26.387  19.016  32.131  1.00  0.00     0.016 C 
HETATM   40  C   UNL     1      25.253  19.968  32.502  1.00  0.00     0.012 C 
HETATM   41  C   UNL     1      26.083  18.307  30.812  1.00  0.00     0.012 C 
ENDBRANCH  18  39
BRANCH  17  42
HETATM   42  C   UNL     1      25.543  25.635  34.397  1.00  0.00     0.016 C 
HETATM   43  C   UNL     1      24.050  25.958  34.419  1.00  0.00     0.012 C 
HETATM   44  C   UNL     1      26.363  26.909  34.199  1.00  0.00     0.012 C 
ENDBRANCH  17  42
BRANCH  15  45
HETATM   45  C   UNL     1      27.813  21.562  36.638  1.00  0.00     0.014 C 
HETATM   46  C   UNL     1      29.177  21.076  37.142  1.00  0.00     0.012 C 
BRANCH  45  47
HETATM   47  C   UNL     1      27.360  22.781  37.463  1.00  0.00     0.002 C 
HETATM   48  C   UNL     1      26.408  22.428  38.595  1.00  0.00     0.005 C 
ENDBRANCH  45  47
ENDBRANCH  15  45
TORSDOF 9
ENDMDL
MODEL 5
REMARK VINA RESULT:    -6.858      2.035      7.858
REMARK INTER + INTRA:          -9.740
REMARK INTER:                 -10.043
REMARK INTRA:                   0.303
REMARK UNBOUND:                 0.726
REMARK  9 active torsions:
REMARK  status: ('A' for Active; 'I' for Inactive)
REMARK    1  A    between atoms: C_13  and  C_16 
REMARK    2  A    between atoms: C_14  and  C_17 
REMARK    3  A    between atoms: C_15  and  C_18 
REMARK    4  A    between atoms: C_16  and  C_22 
REMARK    5  A    between atoms: C_17  and  C_23 
REMARK    6  A    between atoms: C_18  and  C_24 
REMARK    7  A    between atoms: C_19  and  C_25 
REMARK    8  A    between atoms: C_20  and  C_26 
REMARK    9  A    between atoms: C_21  and  C_27 
ROOT
HETATM    1  O   UNL     1      29.776  22.750  34.402  1.00  0.00    -0.304 OA
HETATM    2  O   UNL     1      30.450  21.645  29.493  1.00  0.00    -0.304 OA
HETATM    3  O   UNL     1      26.629  23.369  31.920  1.00  0.00    -0.304 OA
HETATM    4  O   UNL     1      31.708  22.457  32.698  1.00  0.00    -0.270 OA
HETATM    5  O   UNL     1      24.333  23.654  34.476  1.00  0.00    -0.270 OA
HETATM    6  O   UNL     1      29.506  23.821  30.638  1.00  0.00    -0.270 OA
HETATM    7  O   UNL     1      28.219  22.169  36.002  1.00  0.00    -0.263 OA
HETATM    8  O   UNL     1      29.099  20.194  30.678  1.00  0.00    -0.263 OA
HETATM    9  O   UNL     1      25.222  25.190  31.913  1.00  0.00    -0.263 OA
HETATM   10  N   UNL     1      31.228  20.194  32.508  1.00  0.00    -0.340 N 
HETATM   11  N   UNL     1      26.531  24.152  35.020  1.00  0.00    -0.340 N 
HETATM   12  N   UNL     1      27.502  23.883  29.469  1.00  0.00    -0.340 N 
HETATM   13  C   UNL     1      31.506  20.224  31.058  1.00  0.00     0.190 C 
HETATM   14  C   UNL     1      27.967  24.206  34.675  1.00  0.00     0.190 C 
HETATM   15  C   UNL     1      27.003  25.030  30.264  1.00  0.00     0.190 C 
HETATM   16  C   UNL     1      30.481  21.494  34.508  1.00  0.00     0.227 C 
HETATM   17  C   UNL     1      29.307  22.242  28.850  1.00  0.00     0.227 C 
HETATM   18  C   UNL     1      25.995  22.706  33.018  1.00  0.00     0.227 C 
HETATM   19  C   UNL     1      31.218  21.427  33.177  1.00  0.00     0.250 C 
HETATM   20  C   UNL     1      25.540  23.558  34.223  1.00  0.00     0.250 C 
HETATM   21  C   UNL     1      28.785  23.380  29.735  1.00  0.00     0.250 C 
HETATM   22  C   UNL     1      28.638  22.921  35.134  1.00  0.00     0.283 C 
HETATM   23  C   UNL     1      30.199  20.658  30.406  1.00  0.00     0.283 C 
HETATM   24  C   UNL     1      26.142  24.543  31.429  1.00  0.00     0.283 C 
HETATM   25  C   UNL     1      30.845  18.927  33.132  1.00  0.00     0.153 C 
HETATM   26  C   UNL     1      26.115  24.762  36.283  1.00  0.00     0.153 C 
HETATM   27  C   UNL     1      26.568  23.307  28.497  1.00  0.00     0.153 C 
ENDROOT
BRANCH  16  28
HETATM   28  C   UNL     1      31.463  21.540  35.665  1.00  0.00     0.016 C 
HETATM   29  C   UNL     1      32.819  20.976  35.243  1.00  0.00     0.012 C 
HETATM   30  C   UNL     1      30.916  20.774  36.868  1.00  0.00     0.012 C 
ENDBRANCH  16  28
BRANCH  14  31
HETATM   31  C   UNL     1      28.720  25.415  35.227  1.00  0.00     0.014 C 
HETATM   32  C   UNL     1      29.818  24.948  36.186  1.00  0.00     0.012 C 
BRANCH  31  33
HETATM   33  C   UNL     1      29.334  26.281  34.114  1.00  0.00     0.002 C 
HETATM   34  C   UNL     1      28.308  27.101  33.344  1.00  0.00     0.005 C 
ENDBRANCH  31  33
ENDBRANCH  14  31
BRANCH  13  35
HETATM   35  C   UNL     1      31.987  18.922  30.431  1.00  0.00     0.014 C 
HETATM   36  C   UNL     1      31.584  18.878  28.954  1.00  0.00     0.012 C 
BRANCH  35  37
HETATM   37  C   UNL     1      33.509  18.734  30.560  1.00  0.00     0.002 C 
HETATM   38  C   UNL     1      34.311  19.958  30.137  1.00  0.00     0.005 C 
ENDBRANCH  35  37
ENDBRANCH  13  35
BRANCH  18  39
HETATM   39  C   UNL     1      24.840  21.878  32.451  1.00  0.00     0.016 C 
HETATM   40  C   UNL     1      25.288  21.112  31.209  1.00  0.00     0.012 C 
HETATM   41  C   UNL     1      24.301  20.917  33.509  1.00  0.00     0.012 C 
ENDBRANCH  18  39
BRANCH  17  42
HETATM   42  C   UNL     1      29.785  22.795  27.514  1.00  0.00     0.016 C 
HETATM   43  C   UNL     1      30.228  21.663  26.589  1.00  0.00     0.012 C 
HETATM   44  C   UNL     1      30.922  23.794  27.719  1.00  0.00     0.012 C 
ENDBRANCH  17  42
BRANCH  15  45
HETATM   45  C   UNL     1      26.271  26.076  29.426  1.00  0.00     0.014 C 
HETATM   46  C   UNL     1      26.365  27.448  30.101  1.00  0.00     0.012 C 
BRANCH  45  47
HETATM   47  C   UNL     1      26.815  26.168  27.987  1.00  0.00     0.002 C 
HETATM   48  C   UNL     1      26.213  27.311  27.184  1.00  0.00     0.005 C 
ENDBRANCH  45  47
ENDBRANCH  15  45
TORSDOF 9
ENDMDL
MODEL 6
REMARK VINA RESULT:    -6.751      2.128      7.819
REMARK INTER + INTRA:          -9.577
REMARK INTER:                 -10.062
REMARK INTRA:                   0.485
REMARK UNBOUND:                 0.726
REMARK  9 active torsions:
REMARK  status: ('A' for Active; 'I' for Inactive)
REMARK    1  A    between atoms: C_13  and  C_16 
REMARK    2  A    between atoms: C_14  and  C_17 
REMARK    3  A    between atoms: C_15  and  C_18 
REMARK    4  A    between atoms: C_16  and  C_22 
REMARK    5  A    between atoms: C_17  and  C_23 
REMARK    6  A    between atoms: C_18  and  C_24 
REMARK    7  A    between atoms: C_19  and  C_25 
REMARK    8  A    between atoms: C_20  and  C_26 
REMARK    9  A    between atoms: C_21  and  C_27 
ROOT
HETATM    1  O   UNL     1      27.826  23.986  34.662  1.00  0.00    -0.304 OA
HETATM    2  O   UNL     1      32.051  21.359  33.653  1.00  0.00    -0.304 OA
HETATM    3  O   UNL     1      28.228  22.505  30.908  1.00  0.00    -0.304 OA
HETATM    4  O   UNL     1      30.240  23.719  35.568  1.00  0.00    -0.270 OA
HETATM    5  O   UNL     1      24.913  22.973  30.086  1.00  0.00    -0.270 OA
HETATM    6  O   UNL     1      30.932  23.358  32.351  1.00  0.00    -0.270 OA
HETATM    7  O   UNL     1      25.566  23.587  34.426  1.00  0.00    -0.263 OA
HETATM    8  O   UNL     1      30.110  20.121  33.823  1.00  0.00    -0.263 OA
HETATM    9  O   UNL     1      27.744  23.596  28.941  1.00  0.00    -0.263 OA
HETATM   10  N   UNL     1      29.779  21.542  36.223  1.00  0.00    -0.340 N 
HETATM   11  N   UNL     1      25.753  24.346  31.755  1.00  0.00    -0.340 N 
HETATM   12  N   UNL     1      30.799  22.289  30.296  1.00  0.00    -0.340 N 
HETATM   13  C   UNL     1      31.126  21.098  35.811  1.00  0.00     0.190 C 
HETATM   14  C   UNL     1      26.834  24.739  32.683  1.00  0.00     0.190 C 
HETATM   15  C   UNL     1      30.052  23.415  29.689  1.00  0.00     0.190 C 
HETATM   16  C   UNL     1      27.930  23.184  35.858  1.00  0.00     0.227 C 
HETATM   17  C   UNL     1      32.043  21.241  32.216  1.00  0.00     0.227 C 
HETATM   18  C   UNL     1      26.875  22.149  31.207  1.00  0.00     0.227 C 
HETATM   19  C   UNL     1      29.417  22.857  35.896  1.00  0.00     0.250 C 
HETATM   20  C   UNL     1      25.769  23.196  30.950  1.00  0.00     0.250 C 
HETATM   21  C   UNL     1      31.208  22.388  31.635  1.00  0.00     0.250 C 
HETATM   22  C   UNL     1      26.626  24.036  34.015  1.00  0.00     0.283 C 
HETATM   23  C   UNL     1      31.010  20.782  34.326  1.00  0.00     0.283 C 
HETATM   24  C   UNL     1      28.546  23.160  29.757  1.00  0.00     0.283 C 
HETATM   25  C   UNL     1      28.858  20.566  36.809  1.00  0.00     0.153 C 
HETATM   26  C   UNL     1      24.583  25.220  31.671  1.00  0.00     0.153 C 
HETATM   27  C   UNL     1      30.993  21.105  29.453  1.00  0.00     0.153 C 
ENDROOT
BRANCH  16  28
HETATM   28  C   UNL     1      27.529  24.000  37.074  1.00  0.00     0.016 C 
HETATM   29  C   UNL     1      26.120  23.627  37.531  1.00  0.00     0.012 C 
HETATM   30  C   UNL     1      27.615  25.495  36.773  1.00  0.00     0.012 C 
ENDBRANCH  16  28
BRANCH  14  31
HETATM   31  C   UNL     1      26.984  26.243  32.902  1.00  0.00     0.014 C 
HETATM   32  C   UNL     1      26.066  26.694  34.041  1.00  0.00     0.012 C 
BRANCH  31  33
HETATM   33  C   UNL     1      28.436  26.648  33.210  1.00  0.00     0.002 C 
HETATM   34  C   UNL     1      28.579  28.088  33.681  1.00  0.00     0.005 C 
ENDBRANCH  31  33
ENDBRANCH  14  31
BRANCH  13  35
HETATM   35  C   UNL     1      31.702  19.898  36.550  1.00  0.00     0.014 C 
HETATM   36  C   UNL     1      32.797  19.244  35.703  1.00  0.00     0.012 C 
BRANCH  35  37
HETATM   37  C   UNL     1      32.267  20.272  37.931  1.00  0.00     0.002 C 
HETATM   38  C   UNL     1      33.735  19.907  38.108  1.00  0.00     0.005 C 
ENDBRANCH  35  37
ENDBRANCH  13  35
BRANCH  18  39
HETATM   39  C   UNL     1      26.575  20.831  30.489  1.00  0.00     0.016 C 
HETATM   40  C   UNL     1      27.825  19.956  30.430  1.00  0.00     0.012 C 
HETATM   41  C   UNL     1      25.433  20.091  31.181  1.00  0.00     0.012 C 
ENDBRANCH  18  39
BRANCH  17  42
HETATM   42  C   UNL     1      33.488  21.358  31.751  1.00  0.00     0.016 C 
HETATM   43  C   UNL     1      33.978  20.033  31.169  1.00  0.00     0.012 C 
HETATM   44  C   UNL     1      34.391  21.803  32.901  1.00  0.00     0.012 C 
ENDBRANCH  17  42
BRANCH  15  45
HETATM   45  C   UNL     1      30.500  23.744  28.267  1.00  0.00     0.014 C 
HETATM   46  C   UNL     1      29.801  25.018  27.779  1.00  0.00     0.012 C 
BRANCH  45  47
HETATM   47  C   UNL     1      32.027  23.915  28.152  1.00  0.00     0.002 C 
HETATM   48  C   UNL     1      32.454  25.333  27.806  1.00  0.00     0.005 C 
ENDBRANCH  45  47
ENDBRANCH  15  45
TORSDOF 9
ENDMDL
MODEL 7
REMARK VINA RESULT:    -6.735      1.941      7.507
REMARK INTER + INTRA:          -9.552
REMARK INTER:                 -10.006
REMARK INTRA:                   0.454
REMARK UNBOUND:                 0.726
REMARK  9 active torsions:
REMARK  status: ('A' for Active; 'I' for Inactive)
REMARK    1  A    between atoms: C_13  and  C_16 
REMARK    2  A    between atoms: C_14  and  C_17 
REMARK    3  A    between atoms: C_15  and  C_18 
REMARK    4  A    between atoms: C_16  and  C_22 
REMARK    5  A    between atoms: C_17  and  C_23 
REMARK    6  A    between atoms: C_18  and  C_24 
REMARK    7  A    between atoms: C_19  and  C_25 
REMARK    8  A    between atoms: C_20  and  C_26 
REMARK    9  A    between atoms: C_21  and  C_27 
ROOT
HETATM    1  O   UNL     1      29.097  21.638  34.543  1.00  0.00    -0.304 OA
HETATM    2  O   UNL     1      30.798  23.191  30.019  1.00  0.00    -0.304 OA
HETATM    3  O   UNL     1      26.331  22.260  31.643  1.00  0.00    -0.304 OA
HETATM    4  O   UNL     1      31.172  22.806  33.516  1.00  0.00    -0.270 OA
HETATM    5  O   UNL     1      23.825  20.576  33.308  1.00  0.00    -0.270 OA
HETATM    6  O   UNL     1      28.882  24.159  31.546  1.00  0.00    -0.270 OA
HETATM    7  O   UNL     1      27.744  19.917  35.270  1.00  0.00    -0.263 OA
HETATM    8  O   UNL     1      30.051  21.009  30.121  1.00  0.00    -0.263 OA
HETATM    9  O   UNL     1      24.298  23.309  31.887  1.00  0.00    -0.263 OA
HETATM   10  N   UNL     1      31.726  20.865  32.371  1.00  0.00    -0.340 N 
HETATM   11  N   UNL     1      25.515  21.457  34.631  1.00  0.00    -0.340 N 
HETATM   12  N   UNL     1      27.209  24.092  29.939  1.00  0.00    -0.340 N 
HETATM   13  C   UNL     1      32.148  21.644  31.189  1.00  0.00     0.190 C 
HETATM   14  C   UNL     1      26.823  22.127  34.778  1.00  0.00     0.190 C 
HETATM   15  C   UNL     1      26.174  24.513  30.911  1.00  0.00     0.190 C 
HETATM   16  C   UNL     1      30.249  20.781  34.386  1.00  0.00     0.227 C 
HETATM   17  C   UNL     1      29.602  23.607  29.330  1.00  0.00     0.227 C 
HETATM   18  C   UNL     1      25.904  21.002  32.175  1.00  0.00     0.227 C 
HETATM   19  C   UNL     1      31.108  21.575  33.411  1.00  0.00     0.250 C 
HETATM   20  C   UNL     1      24.980  21.007  33.413  1.00  0.00     0.250 C 
HETATM   21  C   UNL     1      28.539  23.972  30.373  1.00  0.00     0.250 C 
HETATM   22  C   UNL     1      27.911  21.073  34.909  1.00  0.00     0.283 C 
HETATM   23  C   UNL     1      30.876  21.875  30.384  1.00  0.00     0.283 C 
HETATM   24  C   UNL     1      25.459  23.296  31.498  1.00  0.00     0.283 C 
HETATM   25  C   UNL     1      31.840  19.406  32.337  1.00  0.00     0.153 C 
HETATM   26  C   UNL     1      24.722  21.246  35.842  1.00  0.00     0.153 C 
HETATM   27  C   UNL     1      26.741  23.755  28.591  1.00  0.00     0.153 C 
ENDROOT
BRANCH  16  28
HETATM   28  C   UNL     1      30.962  20.610  35.715  1.00  0.00     0.016 C 
HETATM   29  C   UNL     1      32.445  20.949  35.578  1.00  0.00     0.012 C 
HETATM   30  C   UNL     1      30.785  19.187  36.242  1.00  0.00     0.012 C 
ENDBRANCH  16  28
BRANCH  14  31
HETATM   31  C   UNL     1      26.914  23.120  35.935  1.00  0.00     0.014 C 
HETATM   32  C   UNL     1      27.900  22.601  36.985  1.00  0.00     0.012 C 
BRANCH  31  33
HETATM   33  C   UNL     1      27.338  24.524  35.470  1.00  0.00     0.002 C 
HETATM   34  C   UNL     1      26.289  25.226  34.619  1.00  0.00     0.005 C 
ENDBRANCH  31  33
ENDBRANCH  14  31
BRANCH  13  35
HETATM   35  C   UNL     1      33.212  21.011  30.302  1.00  0.00     0.014 C 
HETATM   36  C   UNL     1      33.068  21.531  28.869  1.00  0.00     0.012 C 
BRANCH  35  37
HETATM   37  C   UNL     1      34.638  21.280  30.812  1.00  0.00     0.002 C 
HETATM   38  C   UNL     1      35.536  20.050  30.783  1.00  0.00     0.005 C 
ENDBRANCH  35  37
ENDBRANCH  13  35
BRANCH  18  39
HETATM   39  C   UNL     1      25.292  20.200  31.025  1.00  0.00     0.016 C 
HETATM   40  C   UNL     1      25.718  20.782  29.679  1.00  0.00     0.012 C 
HETATM   41  C   UNL     1      25.693  18.729  31.124  1.00  0.00     0.012 C 
ENDBRANCH  18  39
BRANCH  17  42
HETATM   42  C   UNL     1      29.967  24.831  28.503  1.00  0.00     0.016 C 
HETATM   43  C   UNL     1      29.435  24.697  27.076  1.00  0.00     0.012 C 
HETATM   44  C   UNL     1      31.480  25.043  28.491  1.00  0.00     0.012 C 
ENDBRANCH  17  42
BRANCH  15  45
HETATM   45  C   UNL     1      25.181  25.523  30.340  1.00  0.00     0.014 C 
HETATM   46  C   UNL     1      24.482  26.274  31.479  1.00  0.00     0.012 C 
BRANCH  45  47
HETATM   47  C   UNL     1      25.847  26.534  29.386  1.00  0.00     0.002 C 
HETATM   48  C   UNL     1      25.106  27.859  29.294  1.00  0.00     0.005 C 
ENDBRANCH  45  47
ENDBRANCH  15  45
TORSDOF 9
ENDMDL
MODEL 8
REMARK VINA RESULT:    -6.730      1.455      1.791
REMARK INTER + INTRA:          -9.544
REMARK INTER:                 -10.378
REMARK INTRA:                   0.834
REMARK UNBOUND:                 0.726
REMARK  9 active torsions:
REMARK  status: ('A' for Active; 'I' for Inactive)
REMARK    1  A    between atoms: C_13  and  C_16 
REMARK    2  A    between atoms: C_14  and  C_17 
REMARK    3  A    between atoms: C_15  and  C_18 
REMARK    4  A    between atoms: C_16  and  C_22 
REMARK    5  A    between atoms: C_17  and  C_23 
REMARK    6  A    between atoms: C_18  and  C_24 
REMARK    7  A    between atoms: C_19  and  C_25 
REMARK    8  A    between atoms: C_20  and  C_26 
REMARK    9  A    between atoms: C_21  and  C_27 
ROOT
HETATM    1  O   UNL     1      28.324  23.612  29.128  1.00  0.00    -0.304 OA
HETATM    2  O   UNL     1      27.292  25.211  33.834  1.00  0.00    -0.304 OA
HETATM    3  O   UNL     1      28.685  20.900  32.121  1.00  0.00    -0.304 OA
HETATM    4  O   UNL     1      28.198  25.827  30.470  1.00  0.00    -0.270 OA
HETATM    5  O   UNL     1      28.770  18.182  30.001  1.00  0.00    -0.270 OA
HETATM    6  O   UNL     1      29.379  23.907  32.893  1.00  0.00    -0.270 OA
HETATM    7  O   UNL     1      27.611  21.857  27.812  1.00  0.00    -0.263 OA
HETATM    8  O   UNL     1      25.731  23.801  32.882  1.00  0.00    -0.263 OA
HETATM    9  O   UNL     1      30.381  19.369  32.391  1.00  0.00    -0.263 OA
HETATM   10  N   UNL     1      25.904  25.576  30.713  1.00  0.00    -0.340 N 
HETATM   11  N   UNL     1      29.449  20.205  29.093  1.00  0.00    -0.340 N 
HETATM   12  N   UNL     1      29.276  22.137  34.390  1.00  0.00    -0.340 N 
HETATM   13  C   UNL     1      25.960  26.096  32.094  1.00  0.00     0.190 C 
HETATM   14  C   UNL     1      29.624  21.669  29.186  1.00  0.00     0.190 C 
HETATM   15  C   UNL     1      30.375  21.415  33.707  1.00  0.00     0.190 C 
HETATM   16  C   UNL     1      27.132  24.390  28.886  1.00  0.00     0.227 C 
HETATM   17  C   UNL     1      27.793  24.150  34.671  1.00  0.00     0.227 C 
HETATM   18  C   UNL     1      27.968  20.143  31.140  1.00  0.00     0.227 C 
HETATM   19  C   UNL     1      27.130  25.348  30.070  1.00  0.00     0.250 C 
HETATM   20  C   UNL     1      28.777  19.418  30.042  1.00  0.00     0.250 C 
HETATM   21  C   UNL     1      28.881  23.392  33.902  1.00  0.00     0.250 C 
HETATM   22  C   UNL     1      28.398  22.355  28.604  1.00  0.00     0.283 C 
HETATM   23  C   UNL     1      26.285  24.890  32.965  1.00  0.00     0.283 C 
HETATM   24  C   UNL     1      29.815  20.409  32.702  1.00  0.00     0.283 C 
HETATM   25  C   UNL     1      24.607  25.196  30.149  1.00  0.00     0.153 C 
HETATM   26  C   UNL     1      30.018  19.528  27.927  1.00  0.00     0.153 C 
HETATM   27  C   UNL     1      28.626  21.435  35.502  1.00  0.00     0.153 C 
ENDROOT
BRANCH  16  28
HETATM   28  C   UNL     1      27.257  25.151  27.579  1.00  0.00     0.016 C 
HETATM   29  C   UNL     1      28.725  25.332  27.198  1.00  0.00     0.012 C 
HETATM   30  C   UNL     1      26.558  26.506  27.675  1.00  0.00     0.012 C 
ENDBRANCH  16  28
BRANCH  14  31
HETATM   31  C   UNL     1      30.890  22.213  28.527  1.00  0.00     0.014 C 
HETATM   32  C   UNL     1      30.642  22.434  27.033  1.00  0.00     0.012 C 
BRANCH  31  33
HETATM   33  C   UNL     1      31.371  23.523  29.176  1.00  0.00     0.002 C 
HETATM   34  C   UNL     1      32.135  24.430  28.221  1.00  0.00     0.005 C 
ENDBRANCH  31  33
ENDBRANCH  14  31
BRANCH  13  35
HETATM   35  C   UNL     1      24.705  26.784  32.613  1.00  0.00     0.014 C 
HETATM   36  C   UNL     1      24.259  26.128  33.923  1.00  0.00     0.012 C 
BRANCH  35  37
HETATM   37  C   UNL     1      24.909  28.293  32.830  1.00  0.00     0.002 C 
HETATM   38  C   UNL     1      26.111  28.626  33.703  1.00  0.00     0.005 C 
ENDBRANCH  35  37
ENDBRANCH  13  35
BRANCH  18  39
HETATM   39  C   UNL     1      27.048  19.176  31.887  1.00  0.00     0.016 C 
HETATM   40  C   UNL     1      26.429  19.857  33.105  1.00  0.00     0.012 C 
HETATM   41  C   UNL     1      25.958  18.646  30.957  1.00  0.00     0.012 C 
ENDBRANCH  18  39
BRANCH  17  42
HETATM   42  C   UNL     1      28.387  24.804  35.911  1.00  0.00     0.016 C 
HETATM   43  C   UNL     1      27.418  25.829  36.499  1.00  0.00     0.012 C 
HETATM   44  C   UNL     1      29.728  25.462  35.585  1.00  0.00     0.012 C 
ENDBRANCH  17  42
BRANCH  15  45
HETATM   45  C   UNL     1      31.359  20.754  34.671  1.00  0.00     0.014 C 
HETATM   46  C   UNL     1      32.758  20.716  34.047  1.00  0.00     0.012 C 
BRANCH  45  47
HETATM   47  C   UNL     1      31.420  21.467  36.036  1.00  0.00     0.002 C 
HETATM   48  C   UNL     1      31.887  20.567  37.170  1.00  0.00     0.005 C 
ENDBRANCH  45  47
ENDBRANCH  15  45
TORSDOF 9
ENDMDL
MODEL 9
REMARK VINA RESULT:    -6.633      2.005      7.650
REMARK INTER + INTRA:          -9.396
REMARK INTER:                  -9.433
REMARK INTRA:                   0.038
REMARK UNBOUND:                 0.726
REMARK  9 active torsions:
REMARK  status: ('A' for Active; 'I' for Inactive)
REMARK    1  A    between atoms: C_13  and  C_16 
REMARK    2  A    between atoms: C_14  and  C_17 
REMARK    3  A    between atoms: C_15  and  C_18 
REMARK    4  A    between atoms: C_16  and  C_22 
REMARK    5  A    between atoms: C_17  and  C_23 
REMARK    6  A    between atoms: C_18  and  C_24 
REMARK    7  A    between atoms: C_19  and  C_25 
REMARK    8  A    between atoms: C_20  and  C_26 
REMARK    9  A    between atoms: C_21  and  C_27 
ROOT
HETATM    1  O   UNL     1      27.317  23.248  33.939  1.00  0.00    -0.304 OA
HETATM    2  O   UNL     1      31.658  20.709  33.256  1.00  0.00    -0.304 OA
HETATM    3  O   UNL     1      28.304  22.271  30.130  1.00  0.00    -0.304 OA
HETATM    4  O   UNL     1      29.562  22.824  35.164  1.00  0.00    -0.270 OA
HETATM    5  O   UNL     1      25.155  22.899  28.874  1.00  0.00    -0.270 OA
HETATM    6  O   UNL     1      30.747  22.880  32.075  1.00  0.00    -0.270 OA
HETATM    7  O   UNL     1      25.123  22.922  33.305  1.00  0.00    -0.263 OA
HETATM    8  O   UNL     1      29.720  19.491  32.957  1.00  0.00    -0.263 OA
HETATM    9  O   UNL     1      28.128  23.621  28.275  1.00  0.00    -0.263 OA
HETATM   10  N   UNL     1      29.013  20.587  35.444  1.00  0.00    -0.340 N 
HETATM   11  N   UNL     1      25.720  24.025  30.821  1.00  0.00    -0.340 N 
HETATM   12  N   UNL     1      30.940  22.095  29.900  1.00  0.00    -0.340 N 
HETATM   13  C   UNL     1      30.410  20.179  35.190  1.00  0.00     0.190 C 
HETATM   14  C   UNL     1      26.642  24.273  31.949  1.00  0.00     0.190 C 
HETATM   15  C   UNL     1      30.292  23.304  29.340  1.00  0.00     0.190 C 
HETATM   16  C   UNL     1      27.237  22.294  35.020  1.00  0.00     0.227 C 
HETATM   17  C   UNL     1      31.875  20.782  31.832  1.00  0.00     0.227 C 
HETATM   18  C   UNL     1      26.923  21.901  30.165  1.00  0.00     0.227 C 
HETATM   19  C   UNL     1      28.701  21.940  35.243  1.00  0.00     0.250 C 
HETATM   20  C   UNL     1      25.866  22.991  29.882  1.00  0.00     0.250 C 
HETATM   21  C   UNL     1      31.135  22.009  31.287  1.00  0.00     0.250 C 
HETATM   22  C   UNL     1      26.232  23.404  33.127  1.00  0.00     0.283 C 
HETATM   23  C   UNL     1      30.528  20.064  33.676  1.00  0.00     0.283 C 
HETATM   24  C   UNL     1      28.795  23.067  29.139  1.00  0.00     0.283 C 
HETATM   25  C   UNL     1      28.017  19.558  35.745  1.00  0.00     0.153 C 
HETATM   26  C   UNL     1      24.574  24.922  30.674  1.00  0.00     0.153 C 
HETATM   27  C   UNL     1      31.268  21.030  28.947  1.00  0.00     0.153 C 
ENDROOT
BRANCH  16  28
HETATM   28  C   UNL     1      26.648  22.948  36.256  1.00  0.00     0.016 C 
HETATM   29  C   UNL     1      27.655  22.935  37.405  1.00  0.00     0.012 C 
HETATM   30  C   UNL     1      25.354  22.249  36.671  1.00  0.00     0.012 C 
ENDBRANCH  16  28
BRANCH  14  31
HETATM   31  C   UNL     1      26.749  25.733  32.387  1.00  0.00     0.014 C 
HETATM   32  C   UNL     1      26.095  25.910  33.759  1.00  0.00     0.012 C 
BRANCH  31  33
HETATM   33  C   UNL     1      28.207  26.223  32.436  1.00  0.00     0.002 C 
HETATM   34  C   UNL     1      28.769  26.321  33.847  1.00  0.00     0.005 C 
ENDBRANCH  31  33
ENDBRANCH  14  31
BRANCH  13  35
HETATM   35  C   UNL     1      30.869  18.882  35.843  1.00  0.00     0.014 C 
HETATM   36  C   UNL     1      32.003  18.262  35.022  1.00  0.00     0.012 C 
BRANCH  35  37
HETATM   37  C   UNL     1      31.330  19.086  37.296  1.00  0.00     0.002 C 
HETATM   38  C   UNL     1      32.026  20.420  37.533  1.00  0.00     0.005 C 
ENDBRANCH  35  37
ENDBRANCH  13  35
BRANCH  18  39
HETATM   39  C   UNL     1      26.744  20.696  29.240  1.00  0.00     0.016 C 
HETATM   40  C   UNL     1      28.012  19.846  29.215  1.00  0.00     0.012 C 
HETATM   41  C   UNL     1      25.544  19.858  29.677  1.00  0.00     0.012 C 
ENDBRANCH  18  39
BRANCH  17  42
HETATM   42  C   UNL     1      33.374  20.935  31.617  1.00  0.00     0.016 C 
HETATM   43  C   UNL     1      34.036  19.571  31.430  1.00  0.00     0.012 C 
HETATM   44  C   UNL     1      34.014  21.684  32.785  1.00  0.00     0.012 C 
ENDBRANCH  17  42
BRANCH  15  45
HETATM   45  C   UNL     1      30.955  23.811  28.061  1.00  0.00     0.014 C 
HETATM   46  C   UNL     1      30.501  25.246  27.769  1.00  0.00     0.012 C 
BRANCH  45  47
HETATM   47  C   UNL     1      32.493  23.759  28.131  1.00  0.00     0.002 C 
HETATM   48  C   UNL     1      33.162  25.073  27.755  1.00  0.00     0.005 C 
ENDBRANCH  45  47
ENDBRANCH  15  45
TORSDOF 9
ENDMDL
MODEL 10
REMARK VINA RESULT:    -6.563      2.075      6.781
REMARK INTER + INTRA:          -9.290
REMARK INTER:                  -9.675
REMARK INTRA:                   0.385
REMARK UNBOUND:                 0.726
REMARK  9 active torsions:
REMARK  status: ('A' for Active; 'I' for Inactive)
REMARK    1  A    between atoms: C_13  and  C_16 
REMARK    2  A    between atoms: C_14  and  C_17 
REMARK    3  A    between atoms: C_15  and  C_18 
REMARK    4  A    between atoms: C_16  and  C_22 
REMARK    5  A    between atoms: C_17  and  C_23 
REMARK    6  A    between atoms: C_18  and  C_24 
REMARK    7  A    between atoms: C_19  and  C_25 
REMARK    8  A    between atoms: C_20  and  C_26 
REMARK    9  A    between atoms: C_21  and  C_27 
ROOT
HETATM    1  O   UNL     1      26.925  25.215  30.456  1.00  0.00    -0.304 OA
HETATM    2  O   UNL     1      29.618  21.202  32.009  1.00  0.00    -0.304 OA
HETATM    3  O   UNL     1      27.870  25.037  34.396  1.00  0.00    -0.304 OA
HETATM    4  O   UNL     1      27.459  22.793  29.702  1.00  0.00    -0.270 OA
HETATM    5  O   UNL     1      27.098  28.342  35.000  1.00  0.00    -0.270 OA
HETATM    6  O   UNL     1      27.391  22.236  32.964  1.00  0.00    -0.270 OA
HETATM    7  O   UNL     1      27.155  27.502  30.649  1.00  0.00    -0.263 OA
HETATM    8  O   UNL     1      30.754  23.211  31.932  1.00  0.00    -0.263 OA
HETATM    9  O   UNL     1      26.480  25.518  36.165  1.00  0.00    -0.263 OA
HETATM   10  N   UNL     1      29.678  23.368  29.344  1.00  0.00    -0.340 N 
HETATM   11  N   UNL     1      26.030  27.360  33.191  1.00  0.00    -0.340 N 
HETATM   12  N   UNL     1      28.143  22.507  35.143  1.00  0.00    -0.340 N 
HETATM   13  C   UNL     1      30.135  22.067  29.872  1.00  0.00     0.190 C 
HETATM   14  C   UNL     1      25.839  26.225  32.264  1.00  0.00     0.190 C 
HETATM   15  C   UNL     1      26.900  23.202  35.551  1.00  0.00     0.190 C 
HETATM   16  C   UNL     1      27.896  25.121  29.391  1.00  0.00     0.227 C 
HETATM   17  C   UNL     1      29.527  21.266  33.446  1.00  0.00     0.227 C 
HETATM   18  C   UNL     1      28.187  26.399  34.093  1.00  0.00     0.227 C 
HETATM   19  C   UNL     1      28.311  23.657  29.465  1.00  0.00     0.250 C 
HETATM   20  C   UNL     1      27.051  27.444  34.151  1.00  0.00     0.250 C 
HETATM   21  C   UNL     1      28.262  22.047  33.822  1.00  0.00     0.250 C 
HETATM   22  C   UNL     1      26.713  26.431  31.037  1.00  0.00     0.283 C 
HETATM   23  C   UNL     1      30.226  22.254  31.381  1.00  0.00     0.283 C 
HETATM   24  C   UNL     1      27.075  24.718  35.455  1.00  0.00     0.283 C 
HETATM   25  C   UNL     1      30.673  24.328  28.863  1.00  0.00     0.153 C 
HETATM   26  C   UNL     1      25.087  28.474  33.100  1.00  0.00     0.153 C 
HETATM   27  C   UNL     1      29.203  22.418  36.153  1.00  0.00     0.153 C 
ENDROOT
BRANCH  16  28
HETATM   28  C   UNL     1      27.242  25.428  28.056  1.00  0.00     0.016 C 
HETATM   29  C   UNL     1      26.053  24.501  27.812  1.00  0.00     0.012 C 
HETATM   30  C   UNL     1      28.256  25.308  26.920  1.00  0.00     0.012 C 
ENDBRANCH  16  28
BRANCH  14  31
HETATM   31  C   UNL     1      24.393  25.973  31.840  1.00  0.00     0.014 C 
HETATM   32  C   UNL     1      24.168  26.509  30.424  1.00  0.00     0.012 C 
BRANCH  31  33
HETATM   33  C   UNL     1      24.017  24.482  31.900  1.00  0.00     0.002 C 
HETATM   34  C   UNL     1      24.259  23.846  33.261  1.00  0.00     0.005 C 
ENDBRANCH  31  33
ENDBRANCH  14  31
BRANCH  13  35
HETATM   35  C   UNL     1      31.460  21.543  29.336  1.00  0.00     0.014 C 
HETATM   36  C   UNL     1      32.147  20.685  30.402  1.00  0.00     0.012 C 
BRANCH  35  37
HETATM   37  C   UNL     1      31.291  20.729  28.042  1.00  0.00     0.002 C 
HETATM   38  C   UNL     1      31.678  21.497  26.785  1.00  0.00     0.005 C 
ENDBRANCH  35  37
ENDBRANCH  13  35
BRANCH  18  39
HETATM   39  C   UNL     1      29.367  26.806  34.977  1.00  0.00     0.016 C 
HETATM   40  C   UNL     1      30.044  25.572  35.569  1.00  0.00     0.012 C 
HETATM   41  C   UNL     1      30.370  27.640  34.182  1.00  0.00     0.012 C 
ENDBRANCH  18  39
BRANCH  17  42
HETATM   42  C   UNL     1      29.428  19.834  33.951  1.00  0.00     0.016 C 
HETATM   43  C   UNL     1      30.763  19.373  34.534  1.00  0.00     0.012 C 
HETATM   44  C   UNL     1      28.981  18.896  32.831  1.00  0.00     0.012 C 
ENDBRANCH  17  42
BRANCH  15  45
HETATM   45  C   UNL     1      26.396  22.783  36.930  1.00  0.00     0.014 C 
HETATM   46  C   UNL     1      24.915  23.151  37.081  1.00  0.00     0.012 C 
BRANCH  45  47
HETATM   47  C   UNL     1      26.584  21.277  37.197  1.00  0.00     0.002 C 
HETATM   48  C   UNL     1      25.814  20.775  38.409  1.00  0.00     0.005 C 
ENDBRANCH  45  47
ENDBRANCH  15  45
TORSDOF 9
ENDMDL
MODEL 11
REMARK VINA RESULT:    -6.511      1.943      7.517
REMARK INTER + INTRA:          -9.210
REMARK INTER:                 -10.098
REMARK INTRA:                   0.888
REMARK UNBOUND:                 0.726
REMARK  9 active torsions:
REMARK  status: ('A' for Active; 'I' for Inactive)
REMARK    1  A    between atoms: C_13  and  C_16 
REMARK    2  A    between atoms: C_14  and  C_17 
REMARK    3  A    between atoms: C_15  and  C_18 
REMARK    4  A    between atoms: C_16  and  C_22 
REMARK    5  A    between atoms: C_17  and  C_23 
REMARK    6  A    between atoms: C_18  and  C_24 
REMARK    7  A    between atoms: C_19  and  C_25 
REMARK    8  A    between atoms: C_20  and  C_26 
REMARK    9  A    between atoms: C_21  and  C_27 
ROOT
HETATM    1  O   UNL     1      26.990  25.213  33.487  1.00  0.00    -0.304 OA
HETATM    2  O   UNL     1      30.274  21.360  33.114  1.00  0.00    -0.304 OA
HETATM    3  O   UNL     1      28.006  24.006  29.751  1.00  0.00    -0.304 OA
HETATM    4  O   UNL     1      28.813  24.037  34.907  1.00  0.00    -0.270 OA
HETATM    5  O   UNL     1      25.409  25.681  28.221  1.00  0.00    -0.270 OA
HETATM    6  O   UNL     1      30.281  23.727  31.957  1.00  0.00    -0.270 OA
HETATM    7  O   UNL     1      24.898  25.658  32.623  1.00  0.00    -0.263 OA
HETATM    8  O   UNL     1      28.084  20.876  32.565  1.00  0.00    -0.263 OA
HETATM    9  O   UNL     1      28.498  25.360  27.956  1.00  0.00    -0.263 OA
HETATM   10  N   UNL     1      27.518  22.115  35.020  1.00  0.00    -0.340 N 
HETATM   11  N   UNL     1      26.101  26.524  30.267  1.00  0.00    -0.340 N 
HETATM   12  N   UNL     1      30.438  22.950  29.776  1.00  0.00    -0.340 N 
HETATM   13  C   UNL     1      28.715  21.261  34.887  1.00  0.00     0.190 C 
HETATM   14  C   UNL     1      26.923  26.431  31.492  1.00  0.00     0.190 C 
HETATM   15  C   UNL     1      30.299  24.314  29.215  1.00  0.00     0.190 C 
HETATM   16  C   UNL     1      26.476  24.329  34.506  1.00  0.00     0.227 C 
HETATM   17  C   UNL     1      30.658  21.373  31.725  1.00  0.00     0.227 C 
HETATM   18  C   UNL     1      26.585  24.127  29.631  1.00  0.00     0.227 C 
HETATM   19  C   UNL     1      27.702  23.496  34.856  1.00  0.00     0.250 C 
HETATM   20  C   UNL     1      25.994  25.514  29.298  1.00  0.00     0.250 C 
HETATM   21  C   UNL     1      30.438  22.785  31.170  1.00  0.00     0.250 C 
HETATM   22  C   UNL     1      26.117  25.737  32.580  1.00  0.00     0.283 C 
HETATM   23  C   UNL     1      28.954  21.132  33.388  1.00  0.00     0.283 C 
HETATM   24  C   UNL     1      28.841  24.602  28.855  1.00  0.00     0.283 C 
HETATM   25  C   UNL     1      26.207  21.481  35.169  1.00  0.00     0.153 C 
HETATM   26  C   UNL     1      25.346  27.759  30.051  1.00  0.00     0.153 C 
HETATM   27  C   UNL     1      30.492  21.849  28.809  1.00  0.00     0.153 C 
ENDROOT
BRANCH  16  28
HETATM   28  C   UNL     1      26.008  25.128  35.708  1.00  0.00     0.016 C 
HETATM   29  C   UNL     1      26.932  24.896  36.902  1.00  0.00     0.012 C 
HETATM   30  C   UNL     1      24.567  24.768  36.068  1.00  0.00     0.012 C 
ENDBRANCH  16  28
BRANCH  14  31
HETATM   31  C   UNL     1      27.465  27.762  32.010  1.00  0.00     0.014 C 
HETATM   32  C   UNL     1      26.343  28.545  32.697  1.00  0.00     0.012 C 
BRANCH  31  33
HETATM   33  C   UNL     1      28.643  27.575  32.982  1.00  0.00     0.002 C 
HETATM   34  C   UNL     1      29.038  28.851  33.712  1.00  0.00     0.005 C 
ENDBRANCH  31  33
ENDBRANCH  14  31
BRANCH  13  35
HETATM   35  C   UNL     1      28.637  19.877  35.517  1.00  0.00     0.014 C 
HETATM   36  C   UNL     1      29.529  18.903  34.742  1.00  0.00     0.012 C 
BRANCH  35  37
HETATM   37  C   UNL     1      29.040  19.883  37.002  1.00  0.00     0.002 C 
HETATM   38  C   UNL     1      30.366  20.584  37.269  1.00  0.00     0.005 C 
ENDBRANCH  35  37
ENDBRANCH  13  35
BRANCH  18  39
HETATM   39  C   UNL     1      26.115  23.065  28.634  1.00  0.00     0.016 C 
HETATM   40  C   UNL     1      26.785  21.724  28.924  1.00  0.00     0.012 C 
HETATM   41  C   UNL     1      24.595  22.927  28.676  1.00  0.00     0.012 C 
ENDBRANCH  18  39
BRANCH  17  42
HETATM   42  C   UNL     1      32.136  21.012  31.667  1.00  0.00     0.016 C 
HETATM   43  C   UNL     1      32.320  19.496  31.623  1.00  0.00     0.012 C 
HETATM   44  C   UNL     1      32.884  21.607  32.859  1.00  0.00     0.012 C 
ENDBRANCH  17  42
BRANCH  15  45
HETATM   45  C   UNL     1      31.230  24.582  28.034  1.00  0.00     0.014 C 
HETATM   46  C   UNL     1      31.367  26.092  27.808  1.00  0.00     0.012 C 
BRANCH  45  47
HETATM   47  C   UNL     1      32.626  23.959  28.228  1.00  0.00     0.002 C 
HETATM   48  C   UNL     1      33.765  24.902  27.872  1.00  0.00     0.005 C 
ENDBRANCH  45  47
ENDBRANCH  15  45
TORSDOF 9
ENDMDL
MODEL 12
REMARK VINA RESULT:    -6.417      2.183      6.298
REMARK INTER + INTRA:          -9.067
REMARK INTER:                  -9.324
REMARK INTRA:                   0.257
REMARK UNBOUND:                 0.726
REMARK  9 active torsions:
REMARK  status: ('A' for Active; 'I' for Inactive)
REMARK    1  A    between atoms: C_13  and  C_16 
REMARK    2  A    between atoms: C_14  and  C_17 
REMARK    3  A    between atoms: C_15  and  C_18 
REMARK    4  A    between atoms: C_16  and  C_22 
REMARK    5  A    between atoms: C_17  and  C_23 
REMARK    6  A    between atoms: C_18  and  C_24 
REMARK    7  A    between atoms: C_19  and  C_25 
REMARK    8  A    between atoms: C_20  and  C_26 
REMARK    9  A    between atoms: C_21  and  C_27 
ROOT
HETATM    1  O   UNL     1      28.852  21.121  29.071  1.00  0.00    -0.304 OA
HETATM    2  O   UNL     1      31.524  20.776  33.373  1.00  0.00    -0.304 OA
HETATM    3  O   UNL     1      27.293  22.905  32.361  1.00  0.00    -0.304 OA
HETATM    4  O   UNL     1      30.691  19.632  30.131  1.00  0.00    -0.270 OA
HETATM    5  O   UNL     1      25.000  24.770  30.586  1.00  0.00    -0.270 OA
HETATM    6  O   UNL     1      28.984  20.264  32.895  1.00  0.00    -0.270 OA
HETATM    7  O   UNL     1      27.927  22.855  27.864  1.00  0.00    -0.263 OA
HETATM    8  O   UNL     1      31.502  22.852  32.363  1.00  0.00    -0.263 OA
HETATM    9  O   UNL     1      25.095  22.853  33.041  1.00  0.00    -0.263 OA
HETATM   10  N   UNL     1      32.194  21.398  30.062  1.00  0.00    -0.340 N 
HETATM   11  N   UNL     1      25.729  22.816  29.572  1.00  0.00    -0.340 N 
HETATM   12  N   UNL     1      28.124  21.651  34.545  1.00  0.00    -0.340 N 
HETATM   13  C   UNL     1      32.757  21.013  31.371  1.00  0.00     0.190 C 
HETATM   14  C   UNL     1      26.618  21.636  29.530  1.00  0.00     0.190 C 
HETATM   15  C   UNL     1      26.729  21.403  34.112  1.00  0.00     0.190 C 
HETATM   16  C   UNL     1      30.185  21.372  28.574  1.00  0.00     0.227 C 
HETATM   17  C   UNL     1      30.598  21.218  34.385  1.00  0.00     0.227 C 
HETATM   18  C   UNL     1      27.110  23.925  31.375  1.00  0.00     0.227 C 
HETATM   19  C   UNL     1      31.052  20.705  29.634  1.00  0.00     0.250 C 
HETATM   20  C   UNL     1      25.844  23.870  30.492  1.00  0.00     0.250 C 
HETATM   21  C   UNL     1      29.170  21.002  33.870  1.00  0.00     0.250 C 
HETATM   22  C   UNL     1      27.850  21.970  28.703  1.00  0.00     0.283 C 
HETATM   23  C   UNL     1      31.864  21.683  32.407  1.00  0.00     0.283 C 
HETATM   24  C   UNL     1      26.261  22.496  33.151  1.00  0.00     0.283 C 
HETATM   25  C   UNL     1      32.755  22.554  29.360  1.00  0.00     0.153 C 
HETATM   26  C   UNL     1      24.654  22.889  28.582  1.00  0.00     0.153 C 
HETATM   27  C   UNL     1      28.310  22.631  35.619  1.00  0.00     0.153 C 
ENDROOT
BRANCH  16  28
HETATM   28  C   UNL     1      30.377  20.706  27.224  1.00  0.00     0.016 C 
HETATM   29  C   UNL     1      31.416  19.590  27.317  1.00  0.00     0.012 C 
HETATM   30  C   UNL     1      30.787  21.733  26.170  1.00  0.00     0.012 C 
ENDBRANCH  16  28
BRANCH  14  31
HETATM   31  C   UNL     1      25.969  20.355  29.008  1.00  0.00     0.014 C 
HETATM   32  C   UNL     1      27.032  19.461  28.366  1.00  0.00     0.012 C 
BRANCH  31  33
HETATM   33  C   UNL     1      25.232  19.580  30.113  1.00  0.00     0.002 C 
HETATM   34  C   UNL     1      26.140  19.127  31.248  1.00  0.00     0.005 C 
ENDBRANCH  31  33
ENDBRANCH  14  31
BRANCH  13  35
HETATM   35  C   UNL     1      34.211  21.390  31.624  1.00  0.00     0.014 C 
HETATM   36  C   UNL     1      34.479  21.439  33.131  1.00  0.00     0.012 C 
BRANCH  35  37
HETATM   37  C   UNL     1      35.196  20.418  30.951  1.00  0.00     0.002 C 
HETATM   38  C   UNL     1      36.125  19.717  31.934  1.00  0.00     0.005 C 
ENDBRANCH  35  37
ENDBRANCH  13  35
BRANCH  18  39
HETATM   39  C   UNL     1      27.241  25.277  32.080  1.00  0.00     0.016 C 
HETATM   40  C   UNL     1      28.362  25.235  33.116  1.00  0.00     0.012 C 
HETATM   41  C   UNL     1      27.490  26.389  31.064  1.00  0.00     0.012 C 
ENDBRANCH  18  39
BRANCH  17  42
HETATM   42  C   UNL     1      30.844  20.363  35.620  1.00  0.00     0.016 C 
HETATM   43  C   UNL     1      31.429  21.205  36.753  1.00  0.00     0.012 C 
HETATM   44  C   UNL     1      31.772  19.194  35.291  1.00  0.00     0.012 C 
ENDBRANCH  17  42
BRANCH  15  45
HETATM   45  C   UNL     1      25.755  21.226  35.276  1.00  0.00     0.014 C 
HETATM   46  C   UNL     1      24.485  20.517  34.793  1.00  0.00     0.012 C 
BRANCH  45  47
HETATM   47  C   UNL     1      26.372  20.441  36.450  1.00  0.00     0.002 C 
HETATM   48  C   UNL     1      25.836  20.864  37.809  1.00  0.00     0.005 C 
ENDBRANCH  45  47
ENDBRANCH  15  45
TORSDOF 9
ENDMDL
MODEL 13
REMARK VINA RESULT:    -6.412      2.066      4.257
REMARK INTER + INTRA:          -9.059
REMARK INTER:                  -9.447
REMARK INTRA:                   0.387
REMARK UNBOUND:                 0.726
REMARK  9 active torsions:
REMARK  status: ('A' for Active; 'I' for Inactive)
REMARK    1  A    between atoms: C_13  and  C_16 
REMARK    2  A    between atoms: C_14  and  C_17 
REMARK    3  A    between atoms: C_15  and  C_18 
REMARK    4  A    between atoms: C_16  and  C_22 
REMARK    5  A    between atoms: C_17  and  C_23 
REMARK    6  A    between atoms: C_18  and  C_24 
REMARK    7  A    between atoms: C_19  and  C_25 
REMARK    8  A    between atoms: C_20  and  C_26 
REMARK    9  A    between atoms: C_21  and  C_27 
ROOT
HETATM    1  O   UNL     1      27.987  23.333  29.478  1.00  0.00    -0.304 OA
HETATM    2  O   UNL     1      28.644  22.876  34.491  1.00  0.00    -0.304 OA
HETATM    3  O   UNL     1      30.554  20.463  30.751  1.00  0.00    -0.304 OA
HETATM    4  O   UNL     1      27.696  24.739  31.637  1.00  0.00    -0.270 OA
HETATM    5  O   UNL     1      30.645  18.830  27.715  1.00  0.00    -0.270 OA
HETATM    6  O   UNL     1      30.413  23.084  32.549  1.00  0.00    -0.270 OA
HETATM    7  O   UNL     1      27.434  21.884  27.771  1.00  0.00    -0.263 OA
HETATM    8  O   UNL     1      27.430  21.196  33.475  1.00  0.00    -0.263 OA
HETATM    9  O   UNL     1      32.612  19.964  29.851  1.00  0.00    -0.263 OA
HETATM   10  N   UNL     1      25.995  23.332  32.352  1.00  0.00    -0.340 N 
HETATM   11  N   UNL     1      30.097  21.082  27.645  1.00  0.00    -0.340 N 
HETATM   12  N   UNL     1      31.608  21.167  33.080  1.00  0.00    -0.340 N 
HETATM   13  C   UNL     1      26.467  23.417  33.749  1.00  0.00     0.190 C 
HETATM   14  C   UNL     1      29.768  22.354  28.323  1.00  0.00     0.190 C 
HETATM   15  C   UNL     1      32.469  21.297  31.881  1.00  0.00     0.190 C 
HETATM   16  C   UNL     1      26.622  23.451  29.935  1.00  0.00     0.227 C 
HETATM   17  C   UNL     1      29.800  22.022  34.606  1.00  0.00     0.227 C 
HETATM   18  C   UNL     1      29.796  19.748  29.771  1.00  0.00     0.227 C 
HETATM   19  C   UNL     1      26.805  23.923  31.371  1.00  0.00     0.250 C 
HETATM   20  C   UNL     1      30.235  19.844  28.293  1.00  0.00     0.250 C 
HETATM   21  C   UNL     1      30.626  22.140  33.320  1.00  0.00     0.250 C 
HETATM   22  C   UNL     1      28.258  22.471  28.456  1.00  0.00     0.283 C 
HETATM   23  C   UNL     1      27.543  22.347  33.877  1.00  0.00     0.283 C 
HETATM   24  C   UNL     1      31.916  20.460  30.728  1.00  0.00     0.283 C 
HETATM   25  C   UNL     1      24.808  22.529  32.052  1.00  0.00     0.153 C 
HETATM   26  C   UNL     1      30.291  21.119  26.196  1.00  0.00     0.153 C 
HETATM   27  C   UNL     1      31.806  19.966  33.898  1.00  0.00     0.153 C 
ENDROOT
BRANCH  16  28
HETATM   28  C   UNL     1      25.882  24.494  29.117  1.00  0.00     0.016 C 
HETATM   29  C   UNL     1      25.526  25.703  29.979  1.00  0.00     0.012 C 
HETATM   30  C   UNL     1      24.625  23.895  28.490  1.00  0.00     0.012 C 
ENDBRANCH  16  28
BRANCH  14  31
HETATM   31  C   UNL     1      30.334  23.607  27.657  1.00  0.00     0.014 C 
HETATM   32  C   UNL     1      29.190  24.540  27.254  1.00  0.00     0.012 C 
BRANCH  31  33
HETATM   33  C   UNL     1      31.324  24.356  28.565  1.00  0.00     0.002 C 
HETATM   34  C   UNL     1      31.987  25.548  27.890  1.00  0.00     0.005 C 
ENDBRANCH  31  33
ENDBRANCH  14  31
BRANCH  13  35
HETATM   35  C   UNL     1      25.417  23.226  34.835  1.00  0.00     0.014 C 
HETATM   36  C   UNL     1      26.015  22.430  35.999  1.00  0.00     0.012 C 
BRANCH  35  37
HETATM   37  C   UNL     1      24.854  24.561  35.351  1.00  0.00     0.002 C 
HETATM   38  C   UNL     1      24.318  24.485  36.775  1.00  0.00     0.005 C 
ENDBRANCH  35  37
ENDBRANCH  13  35
BRANCH  18  39
HETATM   39  C   UNL     1      29.704  18.292  30.232  1.00  0.00     0.016 C 
HETATM   40  C   UNL     1      29.595  18.218  31.753  1.00  0.00     0.012 C 
HETATM   41  C   UNL     1      28.514  17.595  29.574  1.00  0.00     0.012 C 
ENDBRANCH  18  39
BRANCH  17  42
HETATM   42  C   UNL     1      30.607  22.522  35.796  1.00  0.00     0.016 C 
HETATM   43  C   UNL     1      30.604  21.490  36.923  1.00  0.00     0.012 C 
HETATM   44  C   UNL     1      30.062  23.859  36.295  1.00  0.00     0.012 C 
ENDBRANCH  17  42
BRANCH  15  45
HETATM   45  C   UNL     1      33.938  20.978  32.151  1.00  0.00     0.014 C 
HETATM   46  C   UNL     1      34.787  21.343  30.928  1.00  0.00     0.012 C 
BRANCH  45  47
HETATM   47  C   UNL     1      34.483  21.705  33.395  1.00  0.00     0.002 C 
HETATM   48  C   UNL     1      35.416  20.849  34.237  1.00  0.00     0.005 C 
ENDBRANCH  45  47
ENDBRANCH  15  45
TORSDOF 9
ENDMDL
MODEL 14
REMARK VINA RESULT:    -6.383      1.878      7.264
REMARK INTER + INTRA:          -9.016
REMARK INTER:                  -9.106
REMARK INTRA:                   0.091
REMARK UNBOUND:                 0.726
REMARK  9 active torsions:
REMARK  status: ('A' for Active; 'I' for Inactive)
REMARK    1  A    between atoms: C_13  and  C_16 
REMARK    2  A    between atoms: C_14  and  C_17 
REMARK    3  A    between atoms: C_15  and  C_18 
REMARK    4  A    between atoms: C_16  and  C_22 
REMARK    5  A    between atoms: C_17  and  C_23 
REMARK    6  A    between atoms: C_18  and  C_24 
REMARK    7  A    between atoms: C_19  and  C_25 
REMARK    8  A    between atoms: C_20  and  C_26 
REMARK    9  A    between atoms: C_21  and  C_27 
ROOT
HETATM    1  O   UNL     1      30.327  21.286  33.768  1.00  0.00    -0.304 OA
HETATM    2  O   UNL     1      30.359  23.146  29.045  1.00  0.00    -0.304 OA
HETATM    3  O   UNL     1      27.003  23.255  32.536  1.00  0.00    -0.304 OA
HETATM    4  O   UNL     1      32.028  21.977  31.937  1.00  0.00    -0.270 OA
HETATM    5  O   UNL     1      25.034  22.079  35.110  1.00  0.00    -0.270 OA
HETATM    6  O   UNL     1      29.754  24.305  31.332  1.00  0.00    -0.270 OA
HETATM    7  O   UNL     1      28.905  19.927  34.972  1.00  0.00    -0.263 OA
HETATM    8  O   UNL     1      29.014  21.302  29.394  1.00  0.00    -0.263 OA
HETATM    9  O   UNL     1      25.782  24.782  33.749  1.00  0.00    -0.263 OA
HETATM   10  N   UNL     1      31.319  20.230  30.586  1.00  0.00    -0.340 N 
HETATM   11  N   UNL     1      27.316  22.145  35.520  1.00  0.00    -0.340 N 
HETATM   12  N   UNL     1      27.651  25.052  30.697  1.00  0.00    -0.340 N 
HETATM   13  C   UNL     1      31.439  21.071  29.378  1.00  0.00     0.190 C 
HETATM   14  C   UNL     1      28.705  22.361  35.063  1.00  0.00     0.190 C 
HETATM   15  C   UNL     1      27.351  25.555  32.058  1.00  0.00     0.190 C 
HETATM   16  C   UNL     1      30.918  20.179  33.053  1.00  0.00     0.227 C 
HETATM   17  C   UNL     1      29.214  24.022  29.016  1.00  0.00     0.227 C 
HETATM   18  C   UNL     1      26.432  22.097  33.152  1.00  0.00     0.227 C 
HETATM   19  C   UNL     1      31.497  20.866  31.823  1.00  0.00     0.250 C 
HETATM   20  C   UNL     1      26.192  22.124  34.678  1.00  0.00     0.250 C 
HETATM   21  C   UNL     1      28.902  24.465  30.450  1.00  0.00     0.250 C 
HETATM   22  C   UNL     1      29.296  21.031  34.624  1.00  0.00     0.283 C 
HETATM   23  C   UNL     1      30.117  21.820  29.275  1.00  0.00     0.283 C 
HETATM   24  C   UNL     1      26.579  24.508  32.860  1.00  0.00     0.283 C 
HETATM   25  C   UNL     1      30.887  18.838  30.441  1.00  0.00     0.153 C 
HETATM   26  C   UNL     1      27.098  21.938  36.952  1.00  0.00     0.153 C 
HETATM   27  C   UNL     1      26.567  25.144  29.714  1.00  0.00     0.153 C 
ENDROOT
BRANCH  16  28
HETATM   28  C   UNL     1      32.020  19.545  33.883  1.00  0.00     0.016 C 
HETATM   29  C   UNL     1      33.364  19.653  33.166  1.00  0.00     0.012 C 
HETATM   30  C   UNL     1      31.691  18.085  34.189  1.00  0.00     0.012 C 
ENDBRANCH  16  28
BRANCH  14  31
HETATM   31  C   UNL     1      29.623  23.031  36.083  1.00  0.00     0.014 C 
HETATM   32  C   UNL     1      30.868  22.168  36.304  1.00  0.00     0.012 C 
BRANCH  31  33
HETATM   33  C   UNL     1      30.040  24.448  35.652  1.00  0.00     0.002 C 
HETATM   34  C   UNL     1      28.880  25.431  35.586  1.00  0.00     0.005 C 
ENDBRANCH  31  33
ENDBRANCH  14  31
BRANCH  13  35
HETATM   35  C   UNL     1      31.725  20.346  28.070  1.00  0.00     0.014 C 
HETATM   36  C   UNL     1      31.531  21.306  26.892  1.00  0.00     0.012 C 
BRANCH  35  37
HETATM   37  C   UNL     1      33.142  19.748  28.026  1.00  0.00     0.002 C 
HETATM   38  C   UNL     1      33.422  18.939  26.766  1.00  0.00     0.005 C 
ENDBRANCH  35  37
ENDBRANCH  13  35
BRANCH  18  39
HETATM   39  C   UNL     1      25.149  21.755  32.391  1.00  0.00     0.016 C 
HETATM   40  C   UNL     1      25.270  22.166  30.926  1.00  0.00     0.012 C 
HETATM   41  C   UNL     1      24.839  20.264  32.507  1.00  0.00     0.012 C 
ENDBRANCH  18  39
BRANCH  17  42
HETATM   42  C   UNL     1      29.595  25.226  28.166  1.00  0.00     0.016 C 
HETATM   43  C   UNL     1      28.876  25.185  26.819  1.00  0.00     0.012 C 
HETATM   44  C   UNL     1      31.109  25.286  27.962  1.00  0.00     0.012 C 
ENDBRANCH  17  42
BRANCH  15  45
HETATM   45  C   UNL     1      26.635  26.904  32.062  1.00  0.00     0.014 C 
HETATM   46  C   UNL     1      26.832  27.598  33.415  1.00  0.00     0.012 C 
BRANCH  45  47
HETATM   47  C   UNL     1      27.114  27.833  30.930  1.00  0.00     0.002 C 
HETATM   48  C   UNL     1      26.021  28.741  30.387  1.00  0.00     0.005 C 
ENDBRANCH  45  47
ENDBRANCH  15  45
TORSDOF 9
ENDMDL
MODEL 15
REMARK VINA RESULT:    -6.299      2.328      7.015
REMARK INTER + INTRA:          -8.886
REMARK INTER:                  -8.927
REMARK INTRA:                   0.041
REMARK UNBOUND:                 0.726
REMARK  9 active torsions:
REMARK  status: ('A' for Active; 'I' for Inactive)
REMARK    1  A    between atoms: C_13  and  C_16 
REMARK    2  A    between atoms: C_14  and  C_17 
REMARK    3  A    between atoms: C_15  and  C_18 
REMARK    4  A    between atoms: C_16  and  C_22 
REMARK    5  A    between atoms: C_17  and  C_23 
REMARK    6  A    between atoms: C_18  and  C_24 
REMARK    7  A    between atoms: C_19  and  C_25 
REMARK    8  A    between atoms: C_20  and  C_26 
REMARK    9  A    between atoms: C_21  and  C_27 
ROOT
HETATM    1  O   UNL     1      29.831  22.710  30.595  1.00  0.00    -0.304 OA
HETATM    2  O   UNL     1      30.442  20.067  34.886  1.00  0.00    -0.304 OA
HETATM    3  O   UNL     1      27.996  24.134  33.920  1.00  0.00    -0.304 OA
HETATM    4  O   UNL     1      30.458  20.312  31.357  1.00  0.00    -0.270 OA
HETATM    5  O   UNL     1      27.379  27.244  32.565  1.00  0.00    -0.270 OA
HETATM    6  O   UNL     1      28.251  20.968  33.734  1.00  0.00    -0.270 OA
HETATM    7  O   UNL     1      30.128  24.914  29.985  1.00  0.00    -0.263 OA
HETATM    8  O   UNL     1      31.570  22.079  34.771  1.00  0.00    -0.263 OA
HETATM    9  O   UNL     1      25.857  24.970  34.057  1.00  0.00    -0.263 OA
HETATM   10  N   UNL     1      32.434  21.100  32.285  1.00  0.00    -0.340 N 
HETATM   11  N   UNL     1      27.626  25.504  31.052  1.00  0.00    -0.340 N 
HETATM   12  N   UNL     1      27.451  22.135  35.574  1.00  0.00    -0.340 N 
HETATM   13  C   UNL     1      32.301  20.178  33.431  1.00  0.00     0.190 C 
HETATM   14  C   UNL     1      27.954  24.096  30.745  1.00  0.00     0.190 C 
HETATM   15  C   UNL     1      26.321  22.701  34.801  1.00  0.00     0.190 C 
HETATM   16  C   UNL     1      31.241  22.409  30.521  1.00  0.00     0.227 C 
HETATM   17  C   UNL     1      29.457  20.629  35.775  1.00  0.00     0.227 C 
HETATM   18  C   UNL     1      28.578  25.328  33.387  1.00  0.00     0.227 C 
HETATM   19  C   UNL     1      31.351  21.168  31.397  1.00  0.00     0.250 C 
HETATM   20  C   UNL     1      27.793  26.107  32.309  1.00  0.00     0.250 C 
HETATM   21  C   UNL     1      28.340  21.258  34.934  1.00  0.00     0.250 C 
HETATM   22  C   UNL     1      29.428  23.996  30.384  1.00  0.00     0.283 C 
HETATM   23  C   UNL     1      31.421  20.910  34.436  1.00  0.00     0.283 C 
HETATM   24  C   UNL     1      26.678  24.085  34.259  1.00  0.00     0.283 C 
HETATM   25  C   UNL     1      33.602  21.980  32.213  1.00  0.00     0.153 C 
HETATM   26  C   UNL     1      27.089  26.326  29.967  1.00  0.00     0.153 C 
HETATM   27  C   UNL     1      27.596  22.603  36.955  1.00  0.00     0.153 C 
ENDROOT
BRANCH  16  28
HETATM   28  C   UNL     1      31.637  22.094  29.090  1.00  0.00     0.016 C 
HETATM   29  C   UNL     1      32.296  20.719  29.004  1.00  0.00     0.012 C 
HETATM   30  C   UNL     1      32.570  23.170  28.539  1.00  0.00     0.012 C 
ENDBRANCH  16  28
BRANCH  14  31
HETATM   31  C   UNL     1      27.102  23.458  29.648  1.00  0.00     0.014 C 
HETATM   32  C   UNL     1      27.954  23.232  28.397  1.00  0.00     0.012 C 
BRANCH  31  33
HETATM   33  C   UNL     1      26.470  22.129  30.097  1.00  0.00     0.002 C 
HETATM   34  C   UNL     1      25.497  22.279  31.257  1.00  0.00     0.005 C 
ENDBRANCH  31  33
ENDBRANCH  14  31
BRANCH  13  35
HETATM   35  C   UNL     1      33.594  19.738  34.104  1.00  0.00     0.014 C 
HETATM   36  C   UNL     1      33.287  19.153  35.485  1.00  0.00     0.012 C 
BRANCH  35  37
HETATM   37  C   UNL     1      34.373  18.710  33.265  1.00  0.00     0.002 C 
HETATM   38  C   UNL     1      35.884  18.820  33.419  1.00  0.00     0.005 C 
ENDBRANCH  35  37
ENDBRANCH  13  35
BRANCH  18  39
HETATM   39  C   UNL     1      28.949  26.227  34.568  1.00  0.00     0.016 C 
HETATM   40  C   UNL     1      29.566  25.404  35.695  1.00  0.00     0.012 C 
HETATM   41  C   UNL     1      29.907  27.330  34.122  1.00  0.00     0.012 C 
ENDBRANCH  18  39
BRANCH  17  42
HETATM   42  C   UNL     1      28.902  19.482  36.608  1.00  0.00     0.016 C 
HETATM   43  C   UNL     1      29.989  18.889  37.503  1.00  0.00     0.012 C 
HETATM   44  C   UNL     1      28.303  18.401  35.708  1.00  0.00     0.012 C 
ENDBRANCH  17  42
BRANCH  15  45
HETATM   45  C   UNL     1      25.006  22.726  35.578  1.00  0.00     0.014 C 
HETATM   46  C   UNL     1      23.828  22.888  34.611  1.00  0.00     0.012 C 
BRANCH  45  47
HETATM   47  C   UNL     1      24.801  21.463  36.436  1.00  0.00     0.002 C 
HETATM   48  C   UNL     1      23.952  21.703  37.675  1.00  0.00     0.005 C 
ENDBRANCH  45  47
ENDBRANCH  15  45
TORSDOF 9
ENDMDL
MODEL 16
REMARK VINA RESULT:    -6.221      2.025      6.839
REMARK INTER + INTRA:          -8.768
REMARK INTER:                  -8.824
REMARK INTRA:                   0.055
REMARK UNBOUND:                 0.726
REMARK  9 active torsions:
REMARK  status: ('A' for Active; 'I' for Inactive)
REMARK    1  A    between atoms: C_13  and  C_16 
REMARK    2  A    between atoms: C_14  and  C_17 
REMARK    3  A    between atoms: C_15  and  C_18 
REMARK    4  A    between atoms: C_16  and  C_22 
REMARK    5  A    between atoms: C_17  and  C_23 
REMARK    6  A    between atoms: C_18  and  C_24 
REMARK    7  A    between atoms: C_19  and  C_25 
REMARK    8  A    between atoms: C_20  and  C_26 
REMARK    9  A    between atoms: C_21  and  C_27 
ROOT
HETATM    1  O   UNL     1      27.782  23.557  30.466  1.00  0.00    -0.304 OA
HETATM    2  O   UNL     1      29.778  20.175  33.684  1.00  0.00    -0.304 OA
HETATM    3  O   UNL     1      27.680  24.480  34.414  1.00  0.00    -0.304 OA
HETATM    4  O   UNL     1      28.364  21.032  30.556  1.00  0.00    -0.270 OA
HETATM    5  O   UNL     1      26.952  27.808  33.885  1.00  0.00    -0.270 OA
HETATM    6  O   UNL     1      27.438  21.385  33.714  1.00  0.00    -0.270 OA
HETATM    7  O   UNL     1      28.073  25.813  30.090  1.00  0.00    -0.263 OA
HETATM    8  O   UNL     1      30.998  22.109  33.368  1.00  0.00    -0.263 OA
HETATM    9  O   UNL     1      25.912  25.397  35.565  1.00  0.00    -0.263 OA
HETATM   10  N   UNL     1      30.627  21.532  30.645  1.00  0.00    -0.340 N 
HETATM   11  N   UNL     1      26.331  26.347  32.194  1.00  0.00    -0.340 N 
HETATM   12  N   UNL     1      27.622  22.256  35.857  1.00  0.00    -0.340 N 
HETATM   13  C   UNL     1      30.867  20.434  31.603  1.00  0.00     0.190 C 
HETATM   14  C   UNL     1      26.324  24.999  31.590  1.00  0.00     0.190 C 
HETATM   15  C   UNL     1      26.354  23.011  35.727  1.00  0.00     0.190 C 
HETATM   16  C   UNL     1      28.986  23.195  29.756  1.00  0.00     0.227 C 
HETATM   17  C   UNL     1      29.327  20.628  34.976  1.00  0.00     0.227 C 
HETATM   18  C   UNL     1      28.134  25.713  33.848  1.00  0.00     0.227 C 
HETATM   19  C   UNL     1      29.292  21.816  30.325  1.00  0.00     0.250 C 
HETATM   20  C   UNL     1      27.077  26.711  33.327  1.00  0.00     0.250 C 
HETATM   21  C   UNL     1      28.050  21.456  34.787  1.00  0.00     0.250 C 
HETATM   22  C   UNL     1      27.492  24.880  30.623  1.00  0.00     0.283 C 
HETATM   23  C   UNL     1      30.579  21.028  32.976  1.00  0.00     0.283 C 
HETATM   24  C   UNL     1      26.626  24.446  35.276  1.00  0.00     0.283 C 
HETATM   25  C   UNL     1      31.761  22.345  30.199  1.00  0.00     0.153 C 
HETATM   26  C   UNL     1      25.502  27.375  31.565  1.00  0.00     0.153 C 
HETATM   27  C   UNL     1      28.383  22.467  37.093  1.00  0.00     0.153 C 
ENDROOT
BRANCH  16  28
HETATM   28  C   UNL     1      28.712  23.112  28.265  1.00  0.00     0.016 C 
HETATM   29  C   UNL     1      29.067  21.728  27.728  1.00  0.00     0.012 C 
HETATM   30  C   UNL     1      29.487  24.193  27.514  1.00  0.00     0.012 C 
ENDBRANCH  16  28
BRANCH  14  31
HETATM   31  C   UNL     1      25.023  24.611  30.889  1.00  0.00     0.014 C 
HETATM   32  C   UNL     1      25.182  24.776  29.376  1.00  0.00     0.012 C 
BRANCH  31  33
HETATM   33  C   UNL     1      24.590  23.171  31.215  1.00  0.00     0.002 C 
HETATM   34  C   UNL     1      24.528  22.876  32.706  1.00  0.00     0.005 C 
ENDBRANCH  31  33
ENDBRANCH  14  31
BRANCH  13  35
HETATM   35  C   UNL     1      32.256  19.811  31.591  1.00  0.00     0.014 C 
HETATM   36  C   UNL     1      32.522  19.113  32.927  1.00  0.00     0.012 C 
BRANCH  35  37
HETATM   37  C   UNL     1      32.443  18.813  30.435  1.00  0.00     0.002 C 
HETATM   38  C   UNL     1      31.206  17.970  30.153  1.00  0.00     0.005 C 
ENDBRANCH  35  37
ENDBRANCH  13  35
BRANCH  18  39
HETATM   39  C   UNL     1      29.069  26.370  34.866  1.00  0.00     0.016 C 
HETATM   40  C   UNL     1      29.850  25.310  35.639  1.00  0.00     0.012 C 
HETATM   41  C   UNL     1      30.023  27.339  34.170  1.00  0.00     0.012 C 
ENDBRANCH  18  39
BRANCH  17  42
HETATM   42  C   UNL     1      29.027  19.386  35.804  1.00  0.00     0.016 C 
HETATM   43  C   UNL     1      29.984  19.285  36.992  1.00  0.00     0.012 C 
HETATM   44  C   UNL     1      29.113  18.128  34.941  1.00  0.00     0.012 C 
ENDBRANCH  17  42
BRANCH  15  45
HETATM   45  C   UNL     1      25.493  22.974  36.988  1.00  0.00     0.014 C 
HETATM   46  C   UNL     1      24.146  23.655  36.723  1.00  0.00     0.012 C 
BRANCH  45  47
HETATM   47  C   UNL     1      25.257  21.540  37.501  1.00  0.00     0.002 C 
HETATM   48  C   UNL     1      25.486  21.387  38.997  1.00  0.00     0.005 C 
ENDBRANCH  45  47
ENDBRANCH  15  45
TORSDOF 9
ENDMDL
MODEL 17
REMARK VINA RESULT:    -6.210      2.249      7.863
REMARK INTER + INTRA:          -8.751
REMARK INTER:                  -9.059
REMARK INTRA:                   0.308
REMARK UNBOUND:                 0.726
REMARK  9 active torsions:
REMARK  status: ('A' for Active; 'I' for Inactive)
REMARK    1  A    between atoms: C_13  and  C_16 
REMARK    2  A    between atoms: C_14  and  C_17 
REMARK    3  A    between atoms: C_15  and  C_18 
REMARK    4  A    between atoms: C_16  and  C_22 
REMARK    5  A    between atoms: C_17  and  C_23 
REMARK    6  A    between atoms: C_18  and  C_24 
REMARK    7  A    between atoms: C_19  and  C_25 
REMARK    8  A    between atoms: C_20  and  C_26 
REMARK    9  A    between atoms: C_21  and  C_27 
ROOT
HETATM    1  O   UNL     1      30.320  21.791  34.167  1.00  0.00    -0.304 OA
HETATM    2  O   UNL     1      31.583  21.580  29.254  1.00  0.00    -0.304 OA
HETATM    3  O   UNL     1      27.327  22.251  31.468  1.00  0.00    -0.304 OA
HETATM    4  O   UNL     1      32.406  22.088  32.657  1.00  0.00    -0.270 OA
HETATM    5  O   UNL     1      24.815  21.753  33.777  1.00  0.00    -0.270 OA
HETATM    6  O   UNL     1      30.171  23.367  30.578  1.00  0.00    -0.270 OA
HETATM    7  O   UNL     1      28.767  20.720  35.495  1.00  0.00    -0.263 OA
HETATM    8  O   UNL     1      30.423  19.761  30.077  1.00  0.00    -0.263 OA
HETATM    9  O   UNL     1      25.620  23.791  31.559  1.00  0.00    -0.263 OA
HETATM   10  N   UNL     1      32.360  19.834  32.109  1.00  0.00    -0.340 N 
HETATM   11  N   UNL     1      26.835  22.522  34.618  1.00  0.00    -0.340 N 
HETATM   12  N   UNL     1      28.292  23.273  29.220  1.00  0.00    -0.340 N 
HETATM   13  C   UNL     1      32.746  20.132  30.715  1.00  0.00     0.190 C 
HETATM   14  C   UNL     1      28.262  22.866  34.440  1.00  0.00     0.190 C 
HETATM   15  C   UNL     1      27.530  24.185  30.105  1.00  0.00     0.190 C 
HETATM   16  C   UNL     1      31.229  20.669  34.176  1.00  0.00     0.227 C 
HETATM   17  C   UNL     1      30.407  22.070  28.579  1.00  0.00     0.227 C 
HETATM   18  C   UNL     1      26.735  21.331  32.391  1.00  0.00     0.227 C 
HETATM   19  C   UNL     1      32.072  20.930  32.935  1.00  0.00     0.250 C 
HETATM   20  C   UNL     1      26.036  21.900  33.645  1.00  0.00     0.250 C 
HETATM   21  C   UNL     1      29.618  22.955  29.551  1.00  0.00     0.250 C 
HETATM   22  C   UNL     1      29.113  21.656  34.788  1.00  0.00     0.283 C 
HETATM   23  C   UNL     1      31.441  20.437  29.992  1.00  0.00     0.283 C 
HETATM   24  C   UNL     1      26.678  23.388  31.093  1.00  0.00     0.283 C 
HETATM   25  C   UNL     1      32.162  18.440  32.508  1.00  0.00     0.153 C 
HETATM   26  C   UNL     1      26.214  22.852  35.901  1.00  0.00     0.153 C 
HETATM   27  C   UNL     1      27.560  22.705  28.083  1.00  0.00     0.153 C 
ENDROOT
BRANCH  16  28
HETATM   28  C   UNL     1      32.088  20.700  35.427  1.00  0.00     0.016 C 
HETATM   29  C   UNL     1      33.571  20.677  35.062  1.00  0.00     0.012 C 
HETATM   30  C   UNL     1      31.745  19.528  36.345  1.00  0.00     0.012 C 
ENDBRANCH  16  28
BRANCH  14  31
HETATM   31  C   UNL     1      28.736  24.084  35.231  1.00  0.00     0.014 C 
HETATM   32  C   UNL     1      29.865  23.678  36.180  1.00  0.00     0.012 C 
BRANCH  31  33
HETATM   33  C   UNL     1      29.208  25.228  34.316  1.00  0.00     0.002 C 
HETATM   34  C   UNL     1      28.068  26.021  33.694  1.00  0.00     0.005 C 
ENDBRANCH  31  33
ENDBRANCH  14  31
BRANCH  13  35
HETATM   35  C   UNL     1      33.504  19.041  29.971  1.00  0.00     0.014 C 
HETATM   36  C   UNL     1      33.321  19.219  28.461  1.00  0.00     0.012 C 
BRANCH  35  37
HETATM   37  C   UNL     1      35.003  19.027  30.315  1.00  0.00     0.002 C 
HETATM   38  C   UNL     1      35.522  20.364  30.829  1.00  0.00     0.005 C 
ENDBRANCH  35  37
ENDBRANCH  13  35
BRANCH  18  39
HETATM   39  C   UNL     1      25.799  20.419  31.595  1.00  0.00     0.016 C 
HETATM   40  C   UNL     1      26.059  20.559  30.097  1.00  0.00     0.012 C 
HETATM   41  C   UNL     1      25.965  18.965  32.035  1.00  0.00     0.012 C 
ENDBRANCH  18  39
BRANCH  17  42
HETATM   42  C   UNL     1      30.886  22.893  27.391  1.00  0.00     0.016 C 
HETATM   43  C   UNL     1      31.395  21.984  26.274  1.00  0.00     0.012 C 
HETATM   44  C   UNL     1      31.975  23.876  27.819  1.00  0.00     0.012 C 
ENDBRANCH  17  42
BRANCH  15  45
HETATM   45  C   UNL     1      26.692  25.210  29.344  1.00  0.00     0.014 C 
HETATM   46  C   UNL     1      26.481  26.459  30.208  1.00  0.00     0.012 C 
BRANCH  45  47
HETATM   47  C   UNL     1      27.328  25.613  27.999  1.00  0.00     0.002 C 
HETATM   48  C   UNL     1      26.609  26.762  27.309  1.00  0.00     0.005 C 
ENDBRANCH  45  47
ENDBRANCH  15  45
TORSDOF 9
ENDMDL
MODEL 18
REMARK VINA RESULT:    -6.078      2.142      6.816
REMARK INTER + INTRA:          -8.550
REMARK INTER:                  -8.503
REMARK INTRA:                  -0.047
REMARK UNBOUND:                 0.726
REMARK  9 active torsions:
REMARK  status: ('A' for Active; 'I' for Inactive)
REMARK    1  A    between atoms: C_13  and  C_16 
REMARK    2  A    between atoms: C_14  and  C_17 
REMARK    3  A    between atoms: C_15  and  C_18 
REMARK    4  A    between atoms: C_16  and  C_22 
REMARK    5  A    between atoms: C_17  and  C_23 
REMARK    6  A    between atoms: C_18  and  C_24 
REMARK    7  A    between atoms: C_19  and  C_25 
REMARK    8  A    between atoms: C_20  and  C_26 
REMARK    9  A    between atoms: C_21  and  C_27 
ROOT
HETATM    1  O   UNL     1      28.286  22.466  30.433  1.00  0.00    -0.304 OA
HETATM    2  O   UNL     1      30.861  19.821  33.917  1.00  0.00    -0.304 OA
HETATM    3  O   UNL     1      27.830  23.579  34.306  1.00  0.00    -0.304 OA
HETATM    4  O   UNL     1      29.411  20.147  30.707  1.00  0.00    -0.270 OA
HETATM    5  O   UNL     1      26.399  26.620  33.536  1.00  0.00    -0.270 OA
HETATM    6  O   UNL     1      28.310  20.473  33.811  1.00  0.00    -0.270 OA
HETATM    7  O   UNL     1      28.081  24.704  29.912  1.00  0.00    -0.263 OA
HETATM    8  O   UNL     1      31.630  21.957  33.500  1.00  0.00    -0.263 OA
HETATM    9  O   UNL     1      25.859  24.144  35.350  1.00  0.00    -0.263 OA
HETATM   10  N   UNL     1      31.501  21.148  30.815  1.00  0.00    -0.340 N 
HETATM   11  N   UNL     1      26.185  24.958  31.934  1.00  0.00    -0.340 N 
HETATM   12  N   UNL     1      28.215  21.491  35.894  1.00  0.00    -0.340 N 
HETATM   13  C   UNL     1      31.943  20.192  31.850  1.00  0.00     0.190 C 
HETATM   14  C   UNL     1      26.501  23.609  31.422  1.00  0.00     0.190 C 
HETATM   15  C   UNL     1      26.816  21.932  35.683  1.00  0.00     0.190 C 
HETATM   16  C   UNL     1      29.566  22.342  29.777  1.00  0.00     0.227 C 
HETATM   17  C   UNL     1      30.271  20.237  35.165  1.00  0.00     0.227 C 
HETATM   18  C   UNL     1      28.019  24.847  33.669  1.00  0.00     0.227 C 
HETATM   19  C   UNL     1      30.149  21.104  30.445  1.00  0.00     0.250 C 
HETATM   20  C   UNL     1      26.787  25.548  33.056  1.00  0.00     0.250 C 
HETATM   21  C   UNL     1      28.850  20.744  34.890  1.00  0.00     0.250 C 
HETATM   22  C   UNL     1      27.702  23.697  30.493  1.00  0.00     0.283 C 
HETATM   23  C   UNL     1      31.478  20.787  33.173  1.00  0.00     0.283 C 
HETATM   24  C   UNL     1      26.778  23.362  35.143  1.00  0.00     0.283 C 
HETATM   25  C   UNL     1      32.442  22.166  30.342  1.00  0.00     0.153 C 
HETATM   26  C   UNL     1      25.172  25.734  31.217  1.00  0.00     0.153 C 
HETATM   27  C   UNL     1      28.861  21.942  37.130  1.00  0.00     0.153 C 
ENDROOT
BRANCH  16  28
HETATM   28  C   UNL     1      29.374  22.110  28.289  1.00  0.00     0.016 C 
HETATM   29  C   UNL     1      29.970  20.767  27.872  1.00  0.00     0.012 C 
HETATM   30  C   UNL     1      29.998  23.247  27.481  1.00  0.00     0.012 C 
ENDBRANCH  16  28
BRANCH  14  31
HETATM   31  C   UNL     1      25.347  22.897  30.718  1.00  0.00     0.014 C 
HETATM   32  C   UNL     1      25.528  22.992  29.202  1.00  0.00     0.012 C 
BRANCH  31  33
HETATM   33  C   UNL     1      25.227  21.421  31.138  1.00  0.00     0.002 C 
HETATM   34  C   UNL     1      24.962  21.231  32.624  1.00  0.00     0.005 C 
ENDBRANCH  31  33
ENDBRANCH  14  31
BRANCH  13  35
HETATM   35  C   UNL     1      33.435  19.898  31.913  1.00  0.00     0.014 C 
HETATM   36  C   UNL     1      33.797  19.343  33.293  1.00  0.00     0.012 C 
BRANCH  35  37
HETATM   37  C   UNL     1      33.887  18.912  30.821  1.00  0.00     0.002 C 
HETATM   38  C   UNL     1      35.040  19.430  29.973  1.00  0.00     0.005 C 
ENDBRANCH  35  37
ENDBRANCH  13  35
BRANCH  18  39
HETATM   39  C   UNL     1      28.745  25.757  34.662  1.00  0.00     0.016 C 
HETATM   40  C   UNL     1      29.736  24.955  35.500  1.00  0.00     0.012 C 
HETATM   41  C   UNL     1      29.457  26.891  33.927  1.00  0.00     0.012 C 
ENDBRANCH  18  39
BRANCH  17  42
HETATM   42  C   UNL     1      30.225  19.012  36.068  1.00  0.00     0.016 C 
HETATM   43  C   UNL     1      31.269  19.120  37.178  1.00  0.00     0.012 C 
HETATM   44  C   UNL     1      30.438  17.735  35.256  1.00  0.00     0.012 C 
ENDBRANCH  17  42
BRANCH  15  45
HETATM   45  C   UNL     1      25.938  21.779  36.923  1.00  0.00     0.014 C 
HETATM   46  C   UNL     1      24.460  21.732  36.516  1.00  0.00     0.012 C 
BRANCH  45  47
HETATM   47  C   UNL     1      26.288  20.524  37.745  1.00  0.00     0.002 C 
HETATM   48  C   UNL     1      25.647  20.504  39.124  1.00  0.00     0.005 C 
ENDBRANCH  45  47
ENDBRANCH  15  45
TORSDOF 9
ENDMDL
MODEL 19
REMARK VINA RESULT:    -6.073      1.817      6.681
REMARK INTER + INTRA:          -8.542
REMARK INTER:                  -9.428
REMARK INTRA:                   0.886
REMARK UNBOUND:                 0.726
REMARK  9 active torsions:
REMARK  status: ('A' for Active; 'I' for Inactive)
REMARK    1  A    between atoms: C_13  and  C_16 
REMARK    2  A    between atoms: C_14  and  C_17 
REMARK    3  A    between atoms: C_15  and  C_18 
REMARK    4  A    between atoms: C_16  and  C_22 
REMARK    5  A    between atoms: C_17  and  C_23 
REMARK    6  A    between atoms: C_18  and  C_24 
REMARK    7  A    between atoms: C_19  and  C_25 
REMARK    8  A    between atoms: C_20  and  C_26 
REMARK    9  A    between atoms: C_21  and  C_27 
ROOT
HETATM    1  O   UNL     1      27.959  19.277  33.064  1.00  0.00    -0.304 OA
HETATM    2  O   UNL     1      26.289  23.911  34.294  1.00  0.00    -0.304 OA
HETATM    3  O   UNL     1      28.440  22.208  30.302  1.00  0.00    -0.304 OA
HETATM    4  O   UNL     1      26.283  20.396  34.696  1.00  0.00    -0.270 OA
HETATM    5  O   UNL     1      30.692  20.413  28.407  1.00  0.00    -0.270 OA
HETATM    6  O   UNL     1      25.855  22.456  32.141  1.00  0.00    -0.270 OA
HETATM    7  O   UNL     1      29.957  18.419  32.295  1.00  0.00    -0.263 OA
HETATM    8  O   UNL     1      28.581  23.641  34.258  1.00  0.00    -0.263 OA
HETATM    9  O   UNL     1      28.058  22.038  28.039  1.00  0.00    -0.263 OA
HETATM   10  N   UNL     1      28.034  21.393  35.847  1.00  0.00    -0.340 N 
HETATM   11  N   UNL     1      29.237  19.166  29.713  1.00  0.00    -0.340 N 
HETATM   12  N   UNL     1      26.555  24.048  30.605  1.00  0.00    -0.340 N 
HETATM   13  C   UNL     1      27.251  22.631  36.032  1.00  0.00     0.190 C 
HETATM   14  C   UNL     1      28.184  19.074  30.746  1.00  0.00     0.190 C 
HETATM   15  C   UNL     1      26.406  23.108  29.469  1.00  0.00     0.190 C 
HETATM   16  C   UNL     1      28.425  19.373  34.427  1.00  0.00     0.227 C 
HETATM   17  C   UNL     1      26.316  24.626  33.042  1.00  0.00     0.227 C 
HETATM   18  C   UNL     1      29.726  21.581  30.274  1.00  0.00     0.227 C 
HETATM   19  C   UNL     1      27.477  20.407  35.019  1.00  0.00     0.250 C 
HETATM   20  C   UNL     1      29.918  20.345  29.369  1.00  0.00     0.250 C 
HETATM   21  C   UNL     1      26.224  23.611  31.897  1.00  0.00     0.250 C 
HETATM   22  C   UNL     1      28.836  18.866  32.104  1.00  0.00     0.283 C 
HETATM   23  C   UNL     1      27.485  23.448  34.767  1.00  0.00     0.283 C 
HETATM   24  C   UNL     1      27.739  22.428  29.155  1.00  0.00     0.283 C 
HETATM   25  C   UNL     1      29.384  21.316  36.409  1.00  0.00     0.153 C 
HETATM   26  C   UNL     1      29.594  17.940  28.999  1.00  0.00     0.153 C 
HETATM   27  C   UNL     1      27.117  25.365  30.292  1.00  0.00     0.153 C 
ENDROOT
BRANCH  16  28
HETATM   28  C   UNL     1      28.270  18.037  35.131  1.00  0.00     0.016 C 
HETATM   29  C   UNL     1      27.201  18.122  36.219  1.00  0.00     0.012 C 
HETATM   30  C   UNL     1      29.602  17.581  35.723  1.00  0.00     0.012 C 
ENDBRANCH  16  28
BRANCH  14  31
HETATM   31  C   UNL     1      27.131  17.995  30.501  1.00  0.00     0.014 C 
HETATM   32  C   UNL     1      26.501  17.575  31.831  1.00  0.00     0.012 C 
BRANCH  31  33
HETATM   33  C   UNL     1      26.034  18.459  29.527  1.00  0.00     0.002 C 
HETATM   34  C   UNL     1      25.283  19.695  30.000  1.00  0.00     0.005 C 
ENDBRANCH  31  33
ENDBRANCH  14  31
BRANCH  13  35
HETATM   35  C   UNL     1      27.584  23.471  37.257  1.00  0.00     0.014 C 
HETATM   36  C   UNL     1      27.251  24.940  36.985  1.00  0.00     0.012 C 
BRANCH  35  37
HETATM   37  C   UNL     1      26.842  22.993  38.517  1.00  0.00     0.002 C 
HETATM   38  C   UNL     1      25.688  22.044  38.221  1.00  0.00     0.005 C 
ENDBRANCH  35  37
ENDBRANCH  13  35
BRANCH  18  39
HETATM   39  C   UNL     1      30.760  22.666  29.966  1.00  0.00     0.016 C 
HETATM   40  C   UNL     1      30.333  24.001  30.570  1.00  0.00     0.012 C 
HETATM   41  C   UNL     1      32.137  22.257  30.485  1.00  0.00     0.012 C 
ENDBRANCH  18  39
BRANCH  17  42
HETATM   42  C   UNL     1      25.103  25.545  33.027  1.00  0.00     0.016 C 
HETATM   43  C   UNL     1      25.476  26.940  33.525  1.00  0.00     0.012 C 
HETATM   44  C   UNL     1      23.972  24.960  33.872  1.00  0.00     0.012 C 
ENDBRANCH  17  42
BRANCH  15  45
HETATM   45  C   UNL     1      25.799  23.751  28.224  1.00  0.00     0.014 C 
HETATM   46  C   UNL     1      24.271  23.781  28.342  1.00  0.00     0.012 C 
BRANCH  45  47
HETATM   47  C   UNL     1      26.326  25.178  27.978  1.00  0.00     0.002 C 
HETATM   48  C   UNL     1      27.287  25.274  26.802  1.00  0.00     0.005 C 
ENDBRANCH  45  47
ENDBRANCH  15  45
TORSDOF 9
ENDMDL
MODEL 20
REMARK VINA RESULT:    -6.034      2.230      7.753
REMARK INTER + INTRA:          -8.483
REMARK INTER:                  -9.209
REMARK INTRA:                   0.726
REMARK UNBOUND:                 0.726
REMARK  9 active torsions:
REMARK  status: ('A' for Active; 'I' for Inactive)
REMARK    1  A    between atoms: C_13  and  C_16 
REMARK    2  A    between atoms: C_14  and  C_17 
REMARK    3  A    between atoms: C_15  and  C_18 
REMARK    4  A    between atoms: C_16  and  C_22 
REMARK    5  A    between atoms: C_17  and  C_23 
REMARK    6  A    between atoms: C_18  and  C_24 
REMARK    7  A    between atoms: C_19  and  C_25 
REMARK    8  A    between atoms: C_20  and  C_26 
REMARK    9  A    between atoms: C_21  and  C_27 
ROOT
HETATM    1  O   UNL     1      28.593  21.729  34.226  1.00  0.00    -0.304 OA
HETATM    2  O   UNL     1      31.973  22.454  30.509  1.00  0.00    -0.304 OA
HETATM    3  O   UNL     1      27.257  21.354  30.415  1.00  0.00    -0.304 OA
HETATM    4  O   UNL     1      30.878  22.892  33.844  1.00  0.00    -0.270 OA
HETATM    5  O   UNL     1      24.327  19.779  31.319  1.00  0.00    -0.270 OA
HETATM    6  O   UNL     1      29.576  23.487  30.861  1.00  0.00    -0.270 OA
HETATM    7  O   UNL     1      27.100  20.055  34.765  1.00  0.00    -0.263 OA
HETATM    8  O   UNL     1      31.302  20.271  30.851  1.00  0.00    -0.263 OA
HETATM    9  O   UNL     1      25.281  22.172  29.565  1.00  0.00    -0.263 OA
HETATM   10  N   UNL     1      31.901  20.832  33.536  1.00  0.00    -0.340 N 
HETATM   11  N   UNL     1      25.299  21.129  32.935  1.00  0.00    -0.340 N 
HETATM   12  N   UNL     1      28.718  22.864  28.797  1.00  0.00    -0.340 N 
HETATM   13  C   UNL     1      32.755  21.379  32.463  1.00  0.00     0.190 C 
HETATM   14  C   UNL     1      26.414  21.973  33.414  1.00  0.00     0.190 C 
HETATM   15  C   UNL     1      27.364  23.356  29.142  1.00  0.00     0.190 C 
HETATM   16  C   UNL     1      29.726  21.008  34.756  1.00  0.00     0.227 C 
HETATM   17  C   UNL     1      31.159  22.557  29.324  1.00  0.00     0.227 C 
HETATM   18  C   UNL     1      26.677  20.200  31.031  1.00  0.00     0.227 C 
HETATM   19  C   UNL     1      30.892  21.670  34.034  1.00  0.00     0.250 C 
HETATM   20  C   UNL     1      25.325  20.361  31.759  1.00  0.00     0.250 C 
HETATM   21  C   UNL     1      29.752  23.007  29.734  1.00  0.00     0.250 C 
HETATM   22  C   UNL     1      27.375  21.116  34.222  1.00  0.00     0.283 C 
HETATM   23  C   UNL     1      31.924  21.270  31.191  1.00  0.00     0.283 C 
HETATM   24  C   UNL     1      26.499  22.218  29.683  1.00  0.00     0.283 C 
HETATM   25  C   UNL     1      32.053  19.426  33.916  1.00  0.00     0.153 C 
HETATM   26  C   UNL     1      24.081  21.092  33.746  1.00  0.00     0.153 C 
HETATM   27  C   UNL     1      28.856  22.185  27.504  1.00  0.00     0.153 C 
ENDROOT
BRANCH  16  28
HETATM   28  C   UNL     1      29.830  21.221  36.255  1.00  0.00     0.016 C 
HETATM   29  C   UNL     1      29.356  22.622  36.634  1.00  0.00     0.012 C 
HETATM   30  C   UNL     1      31.263  20.992  36.734  1.00  0.00     0.012 C 
ENDBRANCH  16  28
BRANCH  14  31
HETATM   31  C   UNL     1      25.995  23.198  34.224  1.00  0.00     0.014 C 
HETATM   32  C   UNL     1      26.023  22.864  35.718  1.00  0.00     0.012 C 
BRANCH  31  33
HETATM   33  C   UNL     1      26.891  24.418  33.946  1.00  0.00     0.002 C 
HETATM   34  C   UNL     1      26.112  25.678  33.600  1.00  0.00     0.005 C 
ENDBRANCH  31  33
ENDBRANCH  14  31
BRANCH  13  35
HETATM   35  C   UNL     1      34.104  20.705  32.257  1.00  0.00     0.014 C 
HETATM   36  C   UNL     1      34.723  21.176  30.938  1.00  0.00     0.012 C 
BRANCH  35  37
HETATM   37  C   UNL     1      35.080  20.975  33.415  1.00  0.00     0.002 C 
HETATM   38  C   UNL     1      36.099  19.863  33.624  1.00  0.00     0.005 C 
ENDBRANCH  35  37
ENDBRANCH  13  35
BRANCH  18  39
HETATM   39  C   UNL     1      26.615  19.096  29.973  1.00  0.00     0.016 C 
HETATM   40  C   UNL     1      27.831  19.165  29.054  1.00  0.00     0.012 C 
HETATM   41  C   UNL     1      26.519  17.724  30.637  1.00  0.00     0.012 C 
ENDBRANCH  18  39
BRANCH  17  42
HETATM   42  C   UNL     1      31.805  23.607  28.430  1.00  0.00     0.016 C 
HETATM   43  C   UNL     1      33.322  23.611  28.611  1.00  0.00     0.012 C 
HETATM   44  C   UNL     1      31.228  24.992  28.719  1.00  0.00     0.012 C 
ENDBRANCH  17  42
BRANCH  15  45
HETATM   45  C   UNL     1      26.672  24.086  27.992  1.00  0.00     0.014 C 
HETATM   46  C   UNL     1      25.416  24.800  28.504  1.00  0.00     0.012 C 
BRANCH  45  47
HETATM   47  C   UNL     1      27.597  25.102  27.294  1.00  0.00     0.002 C 
HETATM   48  C   UNL     1      26.957  26.468  27.098  1.00  0.00     0.005 C 
ENDBRANCH  45  47
ENDBRANCH  15  45
TORSDOF 9
ENDMDL
