MODEL 1
REMARK VINA RESULT:    -6.390      0.000      0.000
REMARK INTER + INTRA:          -8.616
REMARK INTER:                  -8.476
REMARK INTRA:                  -0.140
REMARK UNBOUND:                -0.545
REMARK  5 active torsions:
REMARK  status: ('A' for Active; 'I' for Inactive)
REMARK    1  A    between atoms: C_1  and  C_6 
REMARK    2  A    between atoms: C_1  and  O_14 
REMARK    3  A    between atoms: C_2  and  C_3 
REMARK    4  A    between atoms: C_2  and  C_11 
REMARK    5  A    between atoms: C_6  and  C_8 
ROOT
HETATM    1  C   UNL     1      14.098  25.255  22.715  1.00  0.00    -0.044 A 
HETATM    2  C   UNL     1      14.988  24.204  22.600  1.00  0.00     0.008 A 
HETATM    3  C   UNL     1      15.294  23.434  23.706  1.00  0.00     0.007 A 
HETATM    4  C   UNL     1      14.711  23.716  24.926  1.00  0.00    -0.058 A 
HETATM    5  C   UNL     1      13.817  24.763  25.040  1.00  0.00     0.007 A 
HETATM    6  C   UNL     1      13.515  25.536  23.936  1.00  0.00     0.008 A 
ENDROOT
BRANCH   1   7
HETATM    7  C   UNL     1      13.765  26.096  21.510  1.00  0.00     0.112 C 
HETATM    8  C   UNL     1      14.872  25.952  20.465  1.00  0.00     0.026 C 
BRANCH   7   9
HETATM    9  C   UNL     1      13.648  27.541  21.922  1.00  0.00     0.148 C 
HETATM   10  O   UNL     1      12.563  28.068  21.973  1.00  0.00    -0.649 OA
BRANCH   9  11
HETATM   11  O   UNL     1      14.750  28.242  22.233  1.00  0.00    -0.776 OA
HETATM   12  H   UNL     1      15.457  28.345  21.580  1.00  0.00     0.167 HD
ENDBRANCH   9  11
ENDBRANCH   7   9
ENDBRANCH   1   7
BRANCH   4  13
HETATM   13  C   UNL     1      15.045  22.875  26.132  1.00  0.00     0.042 C 
BRANCH  13  14
HETATM   14  C   UNL     1      15.860  21.658  25.695  1.00  0.00    -0.019 C 
HETATM   15  C   UNL     1      16.547  21.038  26.915  1.00  0.00     0.010 C 
HETATM   16  C   UNL     1      14.932  20.625  25.054  1.00  0.00     0.010 C 
ENDBRANCH  13  14
ENDBRANCH   4  13
TORSDOF 5
ENDMDL
MODEL 2
REMARK VINA RESULT:    -5.882     14.416     15.931
REMARK INTER + INTRA:          -7.975
REMARK INTER:                  -7.523
REMARK INTRA:                  -0.452
REMARK UNBOUND:                -0.545
REMARK  5 active torsions:
REMARK  status: ('A' for Active; 'I' for Inactive)
REMARK    1  A    between atoms: C_1  and  C_6 
REMARK    2  A    between atoms: C_1  and  O_14 
REMARK    3  A    between atoms: C_2  and  C_3 
REMARK    4  A    between atoms: C_2  and  C_11 
REMARK    5  A    between atoms: C_6  and  C_8 
ROOT
HETATM    1  C   UNL     1       7.477  20.331  10.906  1.00  0.00    -0.044 A 
HETATM    2  C   UNL     1       7.576  19.239  10.064  1.00  0.00     0.008 A 
HETATM    3  C   UNL     1       8.817  18.718   9.752  1.00  0.00     0.007 A 
HETATM    4  C   UNL     1       9.959  19.287  10.282  1.00  0.00    -0.058 A 
HETATM    5  C   UNL     1       9.860  20.375  11.128  1.00  0.00     0.007 A 
HETATM    6  C   UNL     1       8.619  20.900  11.436  1.00  0.00     0.008 A 
ENDROOT
BRANCH   1   7
HETATM    7  C   UNL     1       6.124  20.901  11.245  1.00  0.00     0.112 C 
HETATM    8  C   UNL     1       5.031  19.973  10.714  1.00  0.00     0.026 C 
BRANCH   7   9
HETATM    9  C   UNL     1       5.980  22.261  10.614  1.00  0.00     0.148 C 
HETATM   10  O   UNL     1       5.554  23.186  11.263  1.00  0.00    -0.649 OA
BRANCH   9  11
HETATM   11  O   UNL     1       6.323  22.445   9.329  1.00  0.00    -0.776 OA
HETATM   12  H   UNL     1       7.216  22.222   9.030  1.00  0.00     0.167 HD
ENDBRANCH   9  11
ENDBRANCH   7   9
ENDBRANCH   1   7
BRANCH   4  13
HETATM   13  C   UNL     1      11.312  18.718   9.942  1.00  0.00     0.042 C 
BRANCH  13  14
HETATM   14  C   UNL     1      11.348  18.338   8.461  1.00  0.00    -0.019 C 
HETATM   15  C   UNL     1      11.195  19.598   7.607  1.00  0.00     0.010 C 
HETATM   16  C   UNL     1      12.681  17.663   8.139  1.00  0.00     0.010 C 
ENDBRANCH  13  14
ENDBRANCH   4  13
TORSDOF 5
ENDMDL
MODEL 3
REMARK VINA RESULT:    -5.767     12.484     14.268
REMARK INTER + INTRA:          -7.829
REMARK INTER:                  -7.228
REMARK INTRA:                  -0.601
REMARK UNBOUND:                -0.545
REMARK  5 active torsions:
REMARK  status: ('A' for Active; 'I' for Inactive)
REMARK    1  A    between atoms: C_1  and  C_6 
REMARK    2  A    between atoms: C_1  and  O_14 
REMARK    3  A    between atoms: C_2  and  C_3 
REMARK    4  A    between atoms: C_2  and  C_11 
REMARK    5  A    between atoms: C_6  and  C_8 
ROOT
HETATM    1  C   UNL     1       9.215  19.226  11.273  1.00  0.00    -0.044 A 
HETATM    2  C   UNL     1       8.725  18.447  12.304  1.00  0.00     0.008 A 
HETATM    3  C   UNL     1       8.175  19.046  13.421  1.00  0.00     0.007 A 
HETATM    4  C   UNL     1       8.116  20.424  13.507  1.00  0.00    -0.058 A 
HETATM    5  C   UNL     1       8.601  21.203  12.473  1.00  0.00     0.007 A 
HETATM    6  C   UNL     1       9.156  20.603  11.359  1.00  0.00     0.008 A 
ENDROOT
BRANCH   1   7
HETATM    7  C   UNL     1       9.817  18.572  10.055  1.00  0.00     0.112 C 
HETATM    8  C   UNL     1      11.309  18.899   9.985  1.00  0.00     0.026 C 
BRANCH   7   9
HETATM    9  C   UNL     1       9.131  19.089   8.818  1.00  0.00     0.148 C 
HETATM   10  O   UNL     1       9.768  19.676   7.975  1.00  0.00    -0.649 OA
BRANCH   9  11
HETATM   11  O   UNL     1       7.813  18.899   8.651  1.00  0.00    -0.776 OA
HETATM   12  H   UNL     1       7.405  18.067   8.930  1.00  0.00     0.167 HD
ENDBRANCH   9  11
ENDBRANCH   7   9
ENDBRANCH   1   7
BRANCH   4  13
HETATM   13  C   UNL     1       7.516  21.078  14.725  1.00  0.00     0.042 C 
BRANCH  13  14
HETATM   14  C   UNL     1       8.323  22.326  15.084  1.00  0.00    -0.019 C 
HETATM   15  C   UNL     1       7.372  23.438  15.532  1.00  0.00     0.010 C 
HETATM   16  C   UNL     1       9.293  21.997  16.220  1.00  0.00     0.010 C 
ENDBRANCH  13  14
ENDBRANCH   4  13
TORSDOF 5
ENDMDL
MODEL 4
REMARK VINA RESULT:    -5.754     12.467     14.257
REMARK INTER + INTRA:          -7.813
REMARK INTER:                  -7.209
REMARK INTRA:                  -0.604
REMARK UNBOUND:                -0.545
REMARK  5 active torsions:
REMARK  status: ('A' for Active; 'I' for Inactive)
REMARK    1  A    between atoms: C_1  and  C_6 
REMARK    2  A    between atoms: C_1  and  O_14 
REMARK    3  A    between atoms: C_2  and  C_3 
REMARK    4  A    between atoms: C_2  and  C_11 
REMARK    5  A    between atoms: C_6  and  C_8 
ROOT
HETATM    1  C   UNL     1       9.213  19.241  11.287  1.00  0.00    -0.044 A 
HETATM    2  C   UNL     1       9.132  20.618  11.378  1.00  0.00     0.008 A 
HETATM    3  C   UNL     1       8.589  21.204  12.504  1.00  0.00     0.007 A 
HETATM    4  C   UNL     1       8.125  20.414  13.539  1.00  0.00    -0.058 A 
HETATM    5  C   UNL     1       8.211  19.038  13.450  1.00  0.00     0.007 A 
HETATM    6  C   UNL     1       8.750  18.452  12.321  1.00  0.00     0.008 A 
ENDROOT
BRANCH   1   7
HETATM    7  C   UNL     1       9.805  18.600  10.058  1.00  0.00     0.112 C 
HETATM    8  C   UNL     1      11.293  18.942   9.970  1.00  0.00     0.026 C 
BRANCH   7   9
HETATM    9  C   UNL     1       9.098  19.117   8.832  1.00  0.00     0.148 C 
HETATM   10  O   UNL     1       9.708  19.754   8.006  1.00  0.00    -0.649 OA
BRANCH   9  11
HETATM   11  O   UNL     1       7.790  18.871   8.658  1.00  0.00    -0.776 OA
HETATM   12  H   UNL     1       7.208  19.567   8.321  1.00  0.00     0.167 HD
ENDBRANCH   9  11
ENDBRANCH   7   9
ENDBRANCH   1   7
BRANCH   4  13
HETATM   13  C   UNL     1       7.531  21.054  14.768  1.00  0.00     0.042 C 
BRANCH  13  14
HETATM   14  C   UNL     1       8.318  22.318  15.115  1.00  0.00    -0.019 C 
HETATM   15  C   UNL     1       7.351  23.414  15.568  1.00  0.00     0.010 C 
HETATM   16  C   UNL     1       9.305  22.012  16.242  1.00  0.00     0.010 C 
ENDBRANCH  13  14
ENDBRANCH   4  13
TORSDOF 5
ENDMDL
MODEL 5
REMARK VINA RESULT:    -5.645      1.255      1.721
REMARK INTER + INTRA:          -7.675
REMARK INTER:                  -7.406
REMARK INTRA:                  -0.269
REMARK UNBOUND:                -0.545
REMARK  5 active torsions:
REMARK  status: ('A' for Active; 'I' for Inactive)
REMARK    1  A    between atoms: C_1  and  C_6 
REMARK    2  A    between atoms: C_1  and  O_14 
REMARK    3  A    between atoms: C_2  and  C_3 
REMARK    4  A    between atoms: C_2  and  C_11 
REMARK    5  A    between atoms: C_6  and  C_8 
ROOT
HETATM    1  C   UNL     1      14.278  25.494  23.188  1.00  0.00    -0.044 A 
HETATM    2  C   UNL     1      15.034  24.373  22.902  1.00  0.00     0.008 A 
HETATM    3  C   UNL     1      15.148  23.361  23.836  1.00  0.00     0.007 A 
HETATM    4  C   UNL     1      14.508  23.471  25.056  1.00  0.00    -0.058 A 
HETATM    5  C   UNL     1      13.748  24.590  25.339  1.00  0.00     0.007 A 
HETATM    6  C   UNL     1      13.638  25.604  24.407  1.00  0.00     0.008 A 
ENDROOT
BRANCH   1   7
HETATM    7  C   UNL     1      14.154  26.599  22.170  1.00  0.00     0.112 C 
HETATM    8  C   UNL     1      12.944  27.470  22.507  1.00  0.00     0.026 C 
BRANCH   7   9
HETATM    9  C   UNL     1      13.976  26.001  20.799  1.00  0.00     0.148 C 
HETATM   10  O   UNL     1      14.798  26.207  19.938  1.00  0.00    -0.649 OA
BRANCH   9  11
HETATM   11  O   UNL     1      12.903  25.239  20.533  1.00  0.00    -0.776 OA
HETATM   12  H   UNL     1      12.114  25.303  21.089  1.00  0.00     0.167 HD
ENDBRANCH   9  11
ENDBRANCH   7   9
ENDBRANCH   1   7
BRANCH   4  13
HETATM   13  C   UNL     1      14.633  22.367  26.075  1.00  0.00     0.042 C 
BRANCH  13  14
HETATM   14  C   UNL     1      15.790  21.446  25.688  1.00  0.00    -0.019 C 
HETATM   15  C   UNL     1      16.480  20.934  26.955  1.00  0.00     0.010 C 
HETATM   16  C   UNL     1      15.252  20.260  24.886  1.00  0.00     0.010 C 
ENDBRANCH  13  14
ENDBRANCH   4  13
TORSDOF 5
ENDMDL
MODEL 6
REMARK VINA RESULT:    -5.638     13.572     15.135
REMARK INTER + INTRA:          -7.666
REMARK INTER:                  -7.228
REMARK INTRA:                  -0.438
REMARK UNBOUND:                -0.545
REMARK  5 active torsions:
REMARK  status: ('A' for Active; 'I' for Inactive)
REMARK    1  A    between atoms: C_1  and  C_6 
REMARK    2  A    between atoms: C_1  and  O_14 
REMARK    3  A    between atoms: C_2  and  C_3 
REMARK    4  A    between atoms: C_2  and  C_11 
REMARK    5  A    between atoms: C_6  and  C_8 
ROOT
HETATM    1  C   UNL     1       7.474  21.784  11.783  1.00  0.00    -0.044 A 
HETATM    2  C   UNL     1       8.689  21.198  12.085  1.00  0.00     0.008 A 
HETATM    3  C   UNL     1       9.280  20.332  11.186  1.00  0.00     0.007 A 
HETATM    4  C   UNL     1       8.656  20.050   9.986  1.00  0.00    -0.058 A 
HETATM    5  C   UNL     1       7.444  20.640   9.682  1.00  0.00     0.007 A 
HETATM    6  C   UNL     1       6.851  21.503  10.583  1.00  0.00     0.008 A 
ENDROOT
BRANCH   1   7
HETATM    7  C   UNL     1       6.828  22.728  12.765  1.00  0.00     0.112 C 
HETATM    8  C   UNL     1       5.385  22.292  13.018  1.00  0.00     0.026 C 
BRANCH   7   9
HETATM    9  C   UNL     1       6.839  24.124  12.200  1.00  0.00     0.148 C 
HETATM   10  O   UNL     1       7.850  24.784  12.240  1.00  0.00    -0.649 OA
BRANCH   9  11
HETATM   11  O   UNL     1       5.725  24.636  11.653  1.00  0.00    -0.776 OA
HETATM   12  H   UNL     1       4.989  24.054  11.419  1.00  0.00     0.167 HD
ENDBRANCH   9  11
ENDBRANCH   7   9
ENDBRANCH   1   7
BRANCH   4  13
HETATM   13  C   UNL     1       9.301  19.105   9.005  1.00  0.00     0.042 C 
BRANCH  13  14
HETATM   14  C   UNL     1      10.786  19.443   8.872  1.00  0.00    -0.019 C 
HETATM   15  C   UNL     1      11.616  18.406   9.632  1.00  0.00     0.010 C 
HETATM   16  C   UNL     1      11.183  19.431   7.395  1.00  0.00     0.010 C 
ENDBRANCH  13  14
ENDBRANCH   4  13
TORSDOF 5
ENDMDL
MODEL 7
REMARK VINA RESULT:    -5.582     14.793     16.426
REMARK INTER + INTRA:          -7.595
REMARK INTER:                  -7.132
REMARK INTRA:                  -0.463
REMARK UNBOUND:                -0.545
REMARK  5 active torsions:
REMARK  status: ('A' for Active; 'I' for Inactive)
REMARK    1  A    between atoms: C_1  and  C_6 
REMARK    2  A    between atoms: C_1  and  O_14 
REMARK    3  A    between atoms: C_2  and  C_3 
REMARK    4  A    between atoms: C_2  and  C_11 
REMARK    5  A    between atoms: C_6  and  C_8 
ROOT
HETATM    1  C   UNL     1       7.667  18.341  11.264  1.00  0.00    -0.044 A 
HETATM    2  C   UNL     1       7.753  18.798   9.963  1.00  0.00     0.008 A 
HETATM    3  C   UNL     1       8.989  19.028   9.392  1.00  0.00     0.007 A 
HETATM    4  C   UNL     1      10.140  18.801  10.122  1.00  0.00    -0.058 A 
HETATM    5  C   UNL     1      10.055  18.338  11.421  1.00  0.00     0.007 A 
HETATM    6  C   UNL     1       8.817  18.114  11.994  1.00  0.00     0.008 A 
ENDROOT
BRANCH   1   7
HETATM    7  C   UNL     1       6.318  18.092  11.888  1.00  0.00     0.112 C 
HETATM    8  C   UNL     1       5.695  16.838  11.274  1.00  0.00     0.026 C 
BRANCH   7   9
HETATM    9  C   UNL     1       5.421  19.274  11.634  1.00  0.00     0.148 C 
HETATM   10  O   UNL     1       5.620  20.319  12.208  1.00  0.00    -0.649 OA
BRANCH   9  11
HETATM   11  O   UNL     1       4.398  19.168  10.770  1.00  0.00    -0.776 OA
HETATM   12  H   UNL     1       3.935  18.325  10.671  1.00  0.00     0.167 HD
ENDBRANCH   9  11
ENDBRANCH   7   9
ENDBRANCH   1   7
BRANCH   4  13
HETATM   13  C   UNL     1      11.490  19.051   9.498  1.00  0.00     0.042 C 
BRANCH  13  14
HETATM   14  C   UNL     1      11.578  18.314   8.162  1.00  0.00    -0.019 C 
HETATM   15  C   UNL     1      11.519  19.327   7.016  1.00  0.00     0.010 C 
HETATM   16  C   UNL     1      12.896  17.542   8.091  1.00  0.00     0.010 C 
ENDBRANCH  13  14
ENDBRANCH   4  13
TORSDOF 5
ENDMDL
MODEL 8
REMARK VINA RESULT:    -5.532     11.316     13.276
REMARK INTER + INTRA:          -7.533
REMARK INTER:                  -6.916
REMARK INTRA:                  -0.617
REMARK UNBOUND:                -0.545
REMARK  5 active torsions:
REMARK  status: ('A' for Active; 'I' for Inactive)
REMARK    1  A    between atoms: C_1  and  C_6 
REMARK    2  A    between atoms: C_1  and  O_14 
REMARK    3  A    between atoms: C_2  and  C_3 
REMARK    4  A    between atoms: C_2  and  C_11 
REMARK    5  A    between atoms: C_6  and  C_8 
ROOT
HETATM    1  C   UNL     1       8.025  21.317  13.914  1.00  0.00    -0.044 A 
HETATM    2  C   UNL     1       7.926  19.956  14.132  1.00  0.00     0.008 A 
HETATM    3  C   UNL     1       8.312  19.069  13.145  1.00  0.00     0.007 A 
HETATM    4  C   UNL     1       8.797  19.543  11.941  1.00  0.00    -0.058 A 
HETATM    5  C   UNL     1       8.901  20.904  11.726  1.00  0.00     0.007 A 
HETATM    6  C   UNL     1       8.510  21.791  12.711  1.00  0.00     0.008 A 
ENDROOT
BRANCH   1   7
HETATM    7  C   UNL     1       7.602  22.285  14.989  1.00  0.00     0.112 C 
HETATM    8  C   UNL     1       7.610  23.707  14.428  1.00  0.00     0.026 C 
BRANCH   7   9
HETATM    9  C   UNL     1       8.559  22.197  16.149  1.00  0.00     0.148 C 
HETATM   10  O   UNL     1       8.137  22.023  17.268  1.00  0.00    -0.649 OA
BRANCH   9  11
HETATM   11  O   UNL     1       9.880  22.313  15.940  1.00  0.00    -0.776 OA
HETATM   12  H   UNL     1      10.449  22.672  16.635  1.00  0.00     0.167 HD
ENDBRANCH   9  11
ENDBRANCH   7   9
ENDBRANCH   1   7
BRANCH   4  13
HETATM   13  C   UNL     1       9.219  18.575  10.865  1.00  0.00     0.042 C 
BRANCH  13  14
HETATM   14  C   UNL     1      10.593  18.977  10.329  1.00  0.00    -0.019 C 
HETATM   15  C   UNL     1      11.623  17.914  10.717  1.00  0.00     0.010 C 
HETATM   16  C   UNL     1      10.531  19.094   8.805  1.00  0.00     0.010 C 
ENDBRANCH  13  14
ENDBRANCH   4  13
TORSDOF 5
ENDMDL
MODEL 9
REMARK VINA RESULT:    -5.495     12.597     14.787
REMARK INTER + INTRA:          -7.486
REMARK INTER:                  -7.251
REMARK INTRA:                  -0.235
REMARK UNBOUND:                -0.545
REMARK  5 active torsions:
REMARK  status: ('A' for Active; 'I' for Inactive)
REMARK    1  A    between atoms: C_1  and  C_6 
REMARK    2  A    between atoms: C_1  and  O_14 
REMARK    3  A    between atoms: C_2  and  C_3 
REMARK    4  A    between atoms: C_2  and  C_11 
REMARK    5  A    between atoms: C_6  and  C_8 
ROOT
HETATM    1  C   UNL     1       7.710  21.674  11.854  1.00  0.00    -0.044 A 
HETATM    2  C   UNL     1       7.047  21.456  10.660  1.00  0.00     0.008 A 
HETATM    3  C   UNL     1       7.587  20.606   9.716  1.00  0.00     0.007 A 
HETATM    4  C   UNL     1       8.791  19.974   9.963  1.00  0.00    -0.058 A 
HETATM    5  C   UNL     1       9.451  20.187  11.158  1.00  0.00     0.007 A 
HETATM    6  C   UNL     1       8.913  21.042  12.101  1.00  0.00     0.008 A 
ENDROOT
BRANCH   1   7
HETATM    7  C   UNL     1       7.122  22.603  12.884  1.00  0.00     0.112 C 
HETATM    8  C   UNL     1       7.504  24.045  12.549  1.00  0.00     0.026 C 
BRANCH   7   9
HETATM    9  C   UNL     1       7.656  22.245  14.246  1.00  0.00     0.148 C 
HETATM   10  O   UNL     1       7.094  21.411  14.915  1.00  0.00    -0.649 OA
BRANCH   9  11
HETATM   11  O   UNL     1       8.755  22.854  14.717  1.00  0.00    -0.776 OA
HETATM   12  H   UNL     1       9.412  23.211  14.103  1.00  0.00     0.167 HD
ENDBRANCH   9  11
ENDBRANCH   7   9
ENDBRANCH   1   7
BRANCH   4  13
HETATM   13  C   UNL     1       9.380  19.045   8.932  1.00  0.00     0.042 C 
BRANCH  13  14
HETATM   14  C   UNL     1      10.874  19.332   8.783  1.00  0.00    -0.019 C 
HETATM   15  C   UNL     1      11.677  18.230   9.479  1.00  0.00     0.010 C 
HETATM   16  C   UNL     1      11.242  19.369   7.299  1.00  0.00     0.010 C 
ENDBRANCH  13  14
ENDBRANCH   4  13
TORSDOF 5
ENDMDL
MODEL 10
REMARK VINA RESULT:    -5.364     14.131     15.713
REMARK INTER + INTRA:          -7.320
REMARK INTER:                  -6.856
REMARK INTRA:                  -0.464
REMARK UNBOUND:                -0.545
REMARK  5 active torsions:
REMARK  status: ('A' for Active; 'I' for Inactive)
REMARK    1  A    between atoms: C_1  and  C_6 
REMARK    2  A    between atoms: C_1  and  O_14 
REMARK    3  A    between atoms: C_2  and  C_3 
REMARK    4  A    between atoms: C_2  and  C_11 
REMARK    5  A    between atoms: C_6  and  C_8 
ROOT
HETATM    1  C   UNL     1       9.524  19.426   9.940  1.00  0.00    -0.044 A 
HETATM    2  C   UNL     1       9.623  20.022  11.183  1.00  0.00     0.008 A 
HETATM    3  C   UNL     1       8.677  20.947  11.583  1.00  0.00     0.007 A 
HETATM    4  C   UNL     1       7.633  21.276  10.739  1.00  0.00    -0.058 A 
HETATM    5  C   UNL     1       7.531  20.676   9.499  1.00  0.00     0.007 A 
HETATM    6  C   UNL     1       8.480  19.755   9.097  1.00  0.00     0.008 A 
ENDROOT
BRANCH   1   7
HETATM    7  C   UNL     1      10.555  18.418   9.503  1.00  0.00     0.112 C 
HETATM    8  C   UNL     1      11.394  17.990  10.708  1.00  0.00     0.026 C 
BRANCH   7   9
HETATM    9  C   UNL     1      11.452  19.037   8.462  1.00  0.00     0.148 C 
HETATM   10  O   UNL     1      11.095  19.084   7.309  1.00  0.00    -0.649 OA
BRANCH   9  11
HETATM   11  O   UNL     1      12.647  19.534   8.815  1.00  0.00    -0.776 OA
HETATM   12  H   UNL     1      13.292  18.971   9.265  1.00  0.00     0.167 HD
ENDBRANCH   9  11
ENDBRANCH   7   9
ENDBRANCH   1   7
BRANCH   4  13
HETATM   13  C   UNL     1       6.602  22.285  11.176  1.00  0.00     0.042 C 
BRANCH  13  14
HETATM   14  C   UNL     1       7.032  22.912  12.502  1.00  0.00    -0.019 C 
HETATM   15  C   UNL     1       7.225  24.419  12.316  1.00  0.00     0.010 C 
HETATM   16  C   UNL     1       5.954  22.664  13.558  1.00  0.00     0.010 C 
ENDBRANCH  13  14
ENDBRANCH   4  13
TORSDOF 5
ENDMDL
MODEL 11
REMARK VINA RESULT:    -5.279     12.502     14.512
REMARK INTER + INTRA:          -7.213
REMARK INTER:                  -6.646
REMARK INTRA:                  -0.567
REMARK UNBOUND:                -0.545
REMARK  5 active torsions:
REMARK  status: ('A' for Active; 'I' for Inactive)
REMARK    1  A    between atoms: C_1  and  C_6 
REMARK    2  A    between atoms: C_1  and  O_14 
REMARK    3  A    between atoms: C_2  and  C_3 
REMARK    4  A    between atoms: C_2  and  C_11 
REMARK    5  A    between atoms: C_6  and  C_8 
ROOT
HETATM    1  C   UNL     1       8.287  19.987  13.297  1.00  0.00    -0.044 A 
HETATM    2  C   UNL     1       8.311  18.653  12.933  1.00  0.00     0.008 A 
HETATM    3  C   UNL     1       8.734  18.290  11.670  1.00  0.00     0.007 A 
HETATM    4  C   UNL     1       9.134  19.259  10.769  1.00  0.00    -0.058 A 
HETATM    5  C   UNL     1       9.115  20.591  11.135  1.00  0.00     0.007 A 
HETATM    6  C   UNL     1       8.687  20.955  12.397  1.00  0.00     0.008 A 
ENDROOT
BRANCH   1   7
HETATM    7  C   UNL     1       7.824  20.384  14.675  1.00  0.00     0.112 C 
HETATM    8  C   UNL     1       7.712  19.139  15.555  1.00  0.00     0.026 C 
BRANCH   7   9
HETATM    9  C   UNL     1       6.478  21.053  14.578  1.00  0.00     0.148 C 
HETATM   10  O   UNL     1       5.532  20.446  14.134  1.00  0.00    -0.649 OA
BRANCH   9  11
HETATM   11  O   UNL     1       6.328  22.324  14.984  1.00  0.00    -0.776 OA
HETATM   12  H   UNL     1       6.988  22.989  14.743  1.00  0.00     0.167 HD
ENDBRANCH   9  11
ENDBRANCH   7   9
ENDBRANCH   1   7
BRANCH   4  13
HETATM   13  C   UNL     1       9.596  18.862   9.391  1.00  0.00     0.042 C 
BRANCH  13  14
HETATM   14  C   UNL     1      11.101  19.098   9.270  1.00  0.00    -0.019 C 
HETATM   15  C   UNL     1      11.852  18.016  10.050  1.00  0.00     0.010 C 
HETATM   16  C   UNL     1      11.511  19.041   7.798  1.00  0.00     0.010 C 
ENDBRANCH  13  14
ENDBRANCH   4  13
TORSDOF 5
ENDMDL
MODEL 12
REMARK VINA RESULT:    -5.256     11.828     12.935
REMARK INTER + INTRA:          -7.184
REMARK INTER:                  -6.612
REMARK INTRA:                  -0.572
REMARK UNBOUND:                -0.545
REMARK  5 active torsions:
REMARK  status: ('A' for Active; 'I' for Inactive)
REMARK    1  A    between atoms: C_1  and  C_6 
REMARK    2  A    between atoms: C_1  and  O_14 
REMARK    3  A    between atoms: C_2  and  C_3 
REMARK    4  A    between atoms: C_2  and  C_11 
REMARK    5  A    between atoms: C_6  and  C_8 
ROOT
HETATM    1  C   UNL     1       6.427  26.431  13.864  1.00  0.00    -0.044 A 
HETATM    2  C   UNL     1       6.868  25.952  12.645  1.00  0.00     0.008 A 
HETATM    3  C   UNL     1       7.397  24.679  12.554  1.00  0.00     0.007 A 
HETATM    4  C   UNL     1       7.485  23.885  13.682  1.00  0.00    -0.058 A 
HETATM    5  C   UNL     1       7.039  24.362  14.899  1.00  0.00     0.007 A 
HETATM    6  C   UNL     1       6.514  25.637  14.991  1.00  0.00     0.008 A 
ENDROOT
BRANCH   1   7
HETATM    7  C   UNL     1       5.851  27.820  13.964  1.00  0.00     0.112 C 
HETATM    8  C   UNL     1       5.365  28.272  12.586  1.00  0.00     0.026 C 
BRANCH   7   9
HETATM    9  C   UNL     1       6.912  28.769  14.457  1.00  0.00     0.148 C 
HETATM   10  O   UNL     1       7.033  28.977  15.641  1.00  0.00    -0.649 OA
BRANCH   9  11
HETATM   11  O   UNL     1       7.723  29.384  13.582  1.00  0.00    -0.776 OA
HETATM   12  H   UNL     1       8.060  30.270  13.774  1.00  0.00     0.167 HD
ENDBRANCH   9  11
ENDBRANCH   7   9
ENDBRANCH   1   7
BRANCH   4  13
HETATM   13  C   UNL     1       8.062  22.496  13.582  1.00  0.00     0.042 C 
BRANCH  13  14
HETATM   14  C   UNL     1       7.741  21.908  12.207  1.00  0.00    -0.019 C 
HETATM   15  C   UNL     1       8.875  20.976  11.774  1.00  0.00     0.010 C 
HETATM   16  C   UNL     1       6.433  21.120  12.282  1.00  0.00     0.010 C 
ENDBRANCH  13  14
ENDBRANCH   4  13
TORSDOF 5
ENDMDL
MODEL 13
REMARK VINA RESULT:    -5.249     14.275     15.601
REMARK INTER + INTRA:          -7.175
REMARK INTER:                  -6.941
REMARK INTRA:                  -0.234
REMARK UNBOUND:                -0.545
REMARK  5 active torsions:
REMARK  status: ('A' for Active; 'I' for Inactive)
REMARK    1  A    between atoms: C_1  and  C_6 
REMARK    2  A    between atoms: C_1  and  O_14 
REMARK    3  A    between atoms: C_2  and  C_3 
REMARK    4  A    between atoms: C_2  and  C_11 
REMARK    5  A    between atoms: C_6  and  C_8 
ROOT
HETATM    1  C   UNL     1       9.525  20.033  10.421  1.00  0.00    -0.044 A 
HETATM    2  C   UNL     1       9.229  20.677  11.607  1.00  0.00     0.008 A 
HETATM    3  C   UNL     1       8.029  21.347  11.749  1.00  0.00     0.007 A 
HETATM    4  C   UNL     1       7.125  21.373  10.704  1.00  0.00    -0.058 A 
HETATM    5  C   UNL     1       7.419  20.723   9.520  1.00  0.00     0.007 A 
HETATM    6  C   UNL     1       8.621  20.058   9.377  1.00  0.00     0.008 A 
ENDROOT
BRANCH   1   7
HETATM    7  C   UNL     1      10.835  19.304  10.266  1.00  0.00     0.112 C 
HETATM    8  C   UNL     1      10.963  18.783   8.834  1.00  0.00     0.026 C 
BRANCH   7   9
HETATM    9  C   UNL     1      10.882  18.146  11.228  1.00  0.00     0.148 C 
HETATM   10  O   UNL     1       9.874  17.781  11.784  1.00  0.00    -0.649 OA
BRANCH   9  11
HETATM   11  O   UNL     1      12.045  17.519  11.468  1.00  0.00    -0.776 OA
HETATM   12  H   UNL     1      12.679  17.384  10.750  1.00  0.00     0.167 HD
ENDBRANCH   9  11
ENDBRANCH   7   9
ENDBRANCH   1   7
BRANCH   4  13
HETATM   13  C   UNL     1       5.816  22.103  10.858  1.00  0.00     0.042 C 
BRANCH  13  14
HETATM   14  C   UNL     1       5.719  22.682  12.270  1.00  0.00    -0.019 C 
HETATM   15  C   UNL     1       5.710  24.211  12.195  1.00  0.00     0.010 C 
HETATM   16  C   UNL     1       4.429  22.197  12.933  1.00  0.00     0.010 C 
ENDBRANCH  13  14
ENDBRANCH   4  13
TORSDOF 5
ENDMDL
MODEL 14
REMARK VINA RESULT:    -5.185     13.127     15.360
REMARK INTER + INTRA:          -7.094
REMARK INTER:                  -6.938
REMARK INTRA:                  -0.157
REMARK UNBOUND:                -0.545
REMARK  5 active torsions:
REMARK  status: ('A' for Active; 'I' for Inactive)
REMARK    1  A    between atoms: C_1  and  C_6 
REMARK    2  A    between atoms: C_1  and  O_14 
REMARK    3  A    between atoms: C_2  and  C_3 
REMARK    4  A    between atoms: C_2  and  C_11 
REMARK    5  A    between atoms: C_6  and  C_8 
ROOT
HETATM    1  C   UNL     1       8.219  20.405  10.878  1.00  0.00    -0.044 A 
HETATM    2  C   UNL     1       8.674  21.029  12.024  1.00  0.00     0.008 A 
HETATM    3  C   UNL     1       8.016  22.140  12.514  1.00  0.00     0.007 A 
HETATM    4  C   UNL     1       6.902  22.629  11.857  1.00  0.00    -0.058 A 
HETATM    5  C   UNL     1       6.443  22.002  10.715  1.00  0.00     0.007 A 
HETATM    6  C   UNL     1       7.105  20.894  10.222  1.00  0.00     0.008 A 
ENDROOT
BRANCH   1   7
HETATM    7  C   UNL     1       8.937  19.194  10.342  1.00  0.00     0.112 C 
HETATM    8  C   UNL     1      10.438  19.335  10.601  1.00  0.00     0.026 C 
BRANCH   7   9
HETATM    9  C   UNL     1       8.692  19.079   8.860  1.00  0.00     0.148 C 
HETATM   10  O   UNL     1       9.501  19.519   8.078  1.00  0.00    -0.649 OA
BRANCH   9  11
HETATM   11  O   UNL     1       7.574  18.489   8.408  1.00  0.00    -0.776 OA
HETATM   12  H   UNL     1       6.732  18.963   8.436  1.00  0.00     0.167 HD
ENDBRANCH   9  11
ENDBRANCH   7   9
ENDBRANCH   1   7
BRANCH   4  13
HETATM   13  C   UNL     1       6.184  23.841  12.392  1.00  0.00     0.042 C 
BRANCH  13  14
HETATM   14  C   UNL     1       7.156  24.688  13.214  1.00  0.00    -0.019 C 
HETATM   15  C   UNL     1       6.981  26.164  12.850  1.00  0.00     0.010 C 
HETATM   16  C   UNL     1       6.870  24.493  14.704  1.00  0.00     0.010 C 
ENDBRANCH  13  14
ENDBRANCH   4  13
TORSDOF 5
ENDMDL
MODEL 15
REMARK VINA RESULT:    -5.125     12.694     14.835
REMARK INTER + INTRA:          -7.018
REMARK INTER:                  -6.439
REMARK INTRA:                  -0.580
REMARK UNBOUND:                -0.545
REMARK  5 active torsions:
REMARK  status: ('A' for Active; 'I' for Inactive)
REMARK    1  A    between atoms: C_1  and  C_6 
REMARK    2  A    between atoms: C_1  and  O_14 
REMARK    3  A    between atoms: C_2  and  C_3 
REMARK    4  A    between atoms: C_2  and  C_11 
REMARK    5  A    between atoms: C_6  and  C_8 
ROOT
HETATM    1  C   UNL     1       8.500  20.717  11.027  1.00  0.00    -0.044 A 
HETATM    2  C   UNL     1       7.303  21.101  10.452  1.00  0.00     0.008 A 
HETATM    3  C   UNL     1       6.537  22.086  11.045  1.00  0.00     0.007 A 
HETATM    4  C   UNL     1       6.967  22.686  12.213  1.00  0.00    -0.058 A 
HETATM    5  C   UNL     1       8.165  22.306  12.785  1.00  0.00     0.007 A 
HETATM    6  C   UNL     1       8.929  21.317  12.195  1.00  0.00     0.008 A 
ENDROOT
BRANCH   1   7
HETATM    7  C   UNL     1       9.335  19.641  10.382  1.00  0.00     0.112 C 
HETATM    8  C   UNL     1       8.684  19.209   9.067  1.00  0.00     0.026 C 
BRANCH   7   9
HETATM    9  C   UNL     1       9.431  18.457  11.308  1.00  0.00     0.148 C 
HETATM   10  O   UNL     1      10.511  17.985  11.574  1.00  0.00    -0.649 OA
BRANCH   9  11
HETATM   11  O   UNL     1       8.318  17.924  11.836  1.00  0.00    -0.776 OA
HETATM   12  H   UNL     1       8.379  17.159  12.424  1.00  0.00     0.167 HD
ENDBRANCH   9  11
ENDBRANCH   7   9
ENDBRANCH   1   7
BRANCH   4  13
HETATM   13  C   UNL     1       6.131  23.761  12.860  1.00  0.00     0.042 C 
BRANCH  13  14
HETATM   14  C   UNL     1       7.043  24.740  13.599  1.00  0.00    -0.019 C 
HETATM   15  C   UNL     1       6.889  26.138  12.994  1.00  0.00     0.010 C 
HETATM   16  C   UNL     1       6.656  24.781  15.078  1.00  0.00     0.010 C 
ENDBRANCH  13  14
ENDBRANCH   4  13
TORSDOF 5
ENDMDL
MODEL 16
REMARK VINA RESULT:    -5.076     10.048     11.968
REMARK INTER + INTRA:          -6.957
REMARK INTER:                  -6.405
REMARK INTRA:                  -0.552
REMARK UNBOUND:                -0.545
REMARK  5 active torsions:
REMARK  status: ('A' for Active; 'I' for Inactive)
REMARK    1  A    between atoms: C_1  and  C_6 
REMARK    2  A    between atoms: C_1  and  O_14 
REMARK    3  A    between atoms: C_2  and  C_3 
REMARK    4  A    between atoms: C_2  and  C_11 
REMARK    5  A    between atoms: C_6  and  C_8 
ROOT
HETATM    1  C   UNL     1       6.409  26.337  14.069  1.00  0.00    -0.044 A 
HETATM    2  C   UNL     1       6.956  25.738  12.950  1.00  0.00     0.008 A 
HETATM    3  C   UNL     1       7.472  24.460  13.033  1.00  0.00     0.007 A 
HETATM    4  C   UNL     1       7.443  23.780  14.236  1.00  0.00    -0.058 A 
HETATM    5  C   UNL     1       6.891  24.376  15.354  1.00  0.00     0.007 A 
HETATM    6  C   UNL     1       6.379  25.657  15.271  1.00  0.00     0.008 A 
ENDROOT
BRANCH   1   7
HETATM    7  C   UNL     1       5.847  27.732  13.979  1.00  0.00     0.112 C 
HETATM    8  C   UNL     1       5.389  28.007  12.546  1.00  0.00     0.026 C 
BRANCH   7   9
HETATM    9  C   UNL     1       6.908  28.727  14.367  1.00  0.00     0.148 C 
HETATM   10  O   UNL     1       7.062  29.025  15.528  1.00  0.00    -0.649 OA
BRANCH   9  11
HETATM   11  O   UNL     1       7.684  29.285  13.424  1.00  0.00    -0.776 OA
HETATM   12  H   UNL     1       8.013  30.187  13.539  1.00  0.00     0.167 HD
ENDBRANCH   9  11
ENDBRANCH   7   9
ENDBRANCH   1   7
BRANCH   4  13
HETATM   13  C   UNL     1       8.006  22.385  14.327  1.00  0.00     0.042 C 
BRANCH  13  14
HETATM   14  C   UNL     1       8.078  21.958  15.793  1.00  0.00    -0.019 C 
HETATM   15  C   UNL     1       7.534  20.535  15.938  1.00  0.00     0.010 C 
HETATM   16  C   UNL     1       9.531  21.999  16.267  1.00  0.00     0.010 C 
ENDBRANCH  13  14
ENDBRANCH   4  13
TORSDOF 5
ENDMDL
MODEL 17
REMARK VINA RESULT:    -5.063     13.701     15.276
REMARK INTER + INTRA:          -6.940
REMARK INTER:                  -6.361
REMARK INTRA:                  -0.579
REMARK UNBOUND:                -0.545
REMARK  5 active torsions:
REMARK  status: ('A' for Active; 'I' for Inactive)
REMARK    1  A    between atoms: C_1  and  C_6 
REMARK    2  A    between atoms: C_1  and  O_14 
REMARK    3  A    between atoms: C_2  and  C_3 
REMARK    4  A    between atoms: C_2  and  C_11 
REMARK    5  A    between atoms: C_6  and  C_8 
ROOT
HETATM    1  C   UNL     1       8.200  19.952  11.368  1.00  0.00    -0.044 A 
HETATM    2  C   UNL     1       6.838  20.052  11.579  1.00  0.00     0.008 A 
HETATM    3  C   UNL     1       6.326  21.121  12.288  1.00  0.00     0.007 A 
HETATM    4  C   UNL     1       7.176  22.090  12.787  1.00  0.00    -0.058 A 
HETATM    5  C   UNL     1       8.537  21.993  12.571  1.00  0.00     0.007 A 
HETATM    6  C   UNL     1       9.049  20.921  11.866  1.00  0.00     0.008 A 
ENDROOT
BRANCH   1   7
HETATM    7  C   UNL     1       8.760  18.785  10.596  1.00  0.00     0.112 C 
HETATM    8  C   UNL     1      10.219  18.562  10.994  1.00  0.00     0.026 C 
BRANCH   7   9
HETATM    9  C   UNL     1       8.680  19.075   9.120  1.00  0.00     0.148 C 
HETATM   10  O   UNL     1       9.600  19.625   8.562  1.00  0.00    -0.649 OA
BRANCH   9  11
HETATM   11  O   UNL     1       7.587  18.723   8.424  1.00  0.00    -0.776 OA
HETATM   12  H   UNL     1       6.939  18.120   8.814  1.00  0.00     0.167 HD
ENDBRANCH   9  11
ENDBRANCH   7   9
ENDBRANCH   1   7
BRANCH   4  13
HETATM   13  C   UNL     1       6.616  23.256  13.561  1.00  0.00     0.042 C 
BRANCH  13  14
HETATM   14  C   UNL     1       6.432  24.449  12.622  1.00  0.00    -0.019 C 
HETATM   15  C   UNL     1       4.947  24.608  12.285  1.00  0.00     0.010 C 
HETATM   16  C   UNL     1       6.938  25.720  13.306  1.00  0.00     0.010 C 
ENDBRANCH  13  14
ENDBRANCH   4  13
TORSDOF 5
ENDMDL
MODEL 18
REMARK VINA RESULT:    -4.977     12.846     14.411
REMARK INTER + INTRA:          -6.831
REMARK INTER:                  -6.421
REMARK INTRA:                  -0.411
REMARK UNBOUND:                -0.545
REMARK  5 active torsions:
REMARK  status: ('A' for Active; 'I' for Inactive)
REMARK    1  A    between atoms: C_1  and  C_6 
REMARK    2  A    between atoms: C_1  and  O_14 
REMARK    3  A    between atoms: C_2  and  C_3 
REMARK    4  A    between atoms: C_2  and  C_11 
REMARK    5  A    between atoms: C_6  and  C_8 
ROOT
HETATM    1  C   UNL     1       7.047  23.746  12.390  1.00  0.00    -0.044 A 
HETATM    2  C   UNL     1       8.138  23.194  13.035  1.00  0.00     0.008 A 
HETATM    3  C   UNL     1       8.575  21.929  12.695  1.00  0.00     0.007 A 
HETATM    4  C   UNL     1       7.921  21.214  11.710  1.00  0.00    -0.058 A 
HETATM    5  C   UNL     1       6.834  21.767  11.061  1.00  0.00     0.007 A 
HETATM    6  C   UNL     1       6.393  23.031  11.405  1.00  0.00     0.008 A 
ENDROOT
BRANCH   1   7
HETATM    7  C   UNL     1       6.569  25.125  12.762  1.00  0.00     0.112 C 
HETATM    8  C   UNL     1       6.867  25.388  14.239  1.00  0.00     0.026 C 
BRANCH   7   9
HETATM    9  C   UNL     1       5.085  25.224  12.524  1.00  0.00     0.148 C 
HETATM   10  O   UNL     1       4.313  24.729  13.311  1.00  0.00    -0.649 OA
BRANCH   9  11
HETATM   11  O   UNL     1       4.620  25.860  11.438  1.00  0.00    -0.776 OA
HETATM   12  H   UNL     1       5.160  26.536  11.005  1.00  0.00     0.167 HD
ENDBRANCH   9  11
ENDBRANCH   7   9
ENDBRANCH   1   7
BRANCH   4  13
HETATM   13  C   UNL     1       8.398  19.833  11.338  1.00  0.00     0.042 C 
BRANCH  13  14
HETATM   14  C   UNL     1       9.334  19.925  10.133  1.00  0.00    -0.019 C 
HETATM   15  C   UNL     1      10.576  19.066  10.384  1.00  0.00     0.010 C 
HETATM   16  C   UNL     1       8.609  19.419   8.885  1.00  0.00     0.010 C 
ENDBRANCH  13  14
ENDBRANCH   4  13
TORSDOF 5
ENDMDL
MODEL 19
REMARK VINA RESULT:    -4.937     11.361     13.403
REMARK INTER + INTRA:          -6.780
REMARK INTER:                  -6.175
REMARK INTRA:                  -0.605
REMARK UNBOUND:                -0.545
REMARK  5 active torsions:
REMARK  status: ('A' for Active; 'I' for Inactive)
REMARK    1  A    between atoms: C_1  and  C_6 
REMARK    2  A    between atoms: C_1  and  O_14 
REMARK    3  A    between atoms: C_2  and  C_3 
REMARK    4  A    between atoms: C_2  and  C_11 
REMARK    5  A    between atoms: C_6  and  C_8 
ROOT
HETATM    1  C   UNL     1       8.200  21.850  14.156  1.00  0.00    -0.044 A 
HETATM    2  C   UNL     1       8.542  22.262  12.882  1.00  0.00     0.008 A 
HETATM    3  C   UNL     1       8.764  21.326  11.890  1.00  0.00     0.007 A 
HETATM    4  C   UNL     1       8.646  19.979  12.172  1.00  0.00    -0.058 A 
HETATM    5  C   UNL     1       8.299  19.567  13.445  1.00  0.00     0.007 A 
HETATM    6  C   UNL     1       8.081  20.503  14.438  1.00  0.00     0.008 A 
ENDROOT
BRANCH   1   7
HETATM    7  C   UNL     1       7.958  22.870  15.239  1.00  0.00     0.112 C 
HETATM    8  C   UNL     1       7.632  22.155  16.551  1.00  0.00     0.026 C 
BRANCH   7   9
HETATM    9  C   UNL     1       6.803  23.754  14.848  1.00  0.00     0.148 C 
HETATM   10  O   UNL     1       5.682  23.305  14.820  1.00  0.00    -0.649 OA
BRANCH   9  11
HETATM   11  O   UNL     1       7.019  25.040  14.529  1.00  0.00    -0.776 OA
HETATM   12  H   UNL     1       6.461  25.733  14.909  1.00  0.00     0.167 HD
ENDBRANCH   9  11
ENDBRANCH   7   9
ENDBRANCH   1   7
BRANCH   4  13
HETATM   13  C   UNL     1       8.889  18.958  11.090  1.00  0.00     0.042 C 
BRANCH  13  14
HETATM   14  C   UNL     1       9.981  19.465  10.148  1.00  0.00    -0.019 C 
HETATM   15  C   UNL     1      11.214  18.565  10.266  1.00  0.00     0.010 C 
HETATM   16  C   UNL     1       9.467  19.437   8.708  1.00  0.00     0.010 C 
ENDBRANCH  13  14
ENDBRANCH   4  13
TORSDOF 5
ENDMDL
MODEL 20
REMARK VINA RESULT:    -4.917     13.272     15.007
REMARK INTER + INTRA:          -6.756
REMARK INTER:                  -6.211
REMARK INTRA:                  -0.545
REMARK UNBOUND:                -0.545
REMARK  5 active torsions:
REMARK  status: ('A' for Active; 'I' for Inactive)
REMARK    1  A    between atoms: C_1  and  C_6 
REMARK    2  A    between atoms: C_1  and  O_14 
REMARK    3  A    between atoms: C_2  and  C_3 
REMARK    4  A    between atoms: C_2  and  C_11 
REMARK    5  A    between atoms: C_6  and  C_8 
ROOT
HETATM    1  C   UNL     1       6.256  23.581  12.241  1.00  0.00    -0.044 A 
HETATM    2  C   UNL     1       4.973  24.096  12.236  1.00  0.00     0.008 A 
HETATM    3  C   UNL     1       4.767  25.436  12.502  1.00  0.00     0.007 A 
HETATM    4  C   UNL     1       5.843  26.260  12.774  1.00  0.00    -0.058 A 
HETATM    5  C   UNL     1       7.125  25.746  12.772  1.00  0.00     0.007 A 
HETATM    6  C   UNL     1       7.331  24.405  12.511  1.00  0.00     0.008 A 
ENDROOT
BRANCH   1   7
HETATM    7  C   UNL     1       6.482  22.119  11.952  1.00  0.00     0.112 C 
HETATM    8  C   UNL     1       7.973  21.801  12.062  1.00  0.00     0.026 C 
BRANCH   7   9
HETATM    9  C   UNL     1       6.002  21.802  10.560  1.00  0.00     0.148 C 
HETATM   10  O   UNL     1       5.245  20.878  10.378  1.00  0.00    -0.649 OA
BRANCH   9  11
HETATM   11  O   UNL     1       6.415  22.545   9.521  1.00  0.00    -0.776 OA
HETATM   12  H   UNL     1       6.217  23.492   9.495  1.00  0.00     0.167 HD
ENDBRANCH   9  11
ENDBRANCH   7   9
ENDBRANCH   1   7
BRANCH   4  13
HETATM   13  C   UNL     1       5.617  27.722  13.064  1.00  0.00     0.042 C 
BRANCH  13  14
HETATM   14  C   UNL     1       6.906  28.339  13.608  1.00  0.00    -0.019 C 
HETATM   15  C   UNL     1       7.090  29.739  13.019  1.00  0.00     0.010 C 
HETATM   16  C   UNL     1       6.823  28.434  15.132  1.00  0.00     0.010 C 
ENDBRANCH  13  14
ENDBRANCH   4  13
TORSDOF 5
ENDMDL
