MODEL 1
REMARK VINA RESULT:    -7.502      0.000      0.000
REMARK INTER + INTRA:          -9.582
REMARK INTER:                 -10.638
REMARK INTRA:                   1.056
REMARK UNBOUND:                 0.989
REMARK  7 active torsions:
REMARK  status: ('A' for Active; 'I' for Inactive)
REMARK    1  A    between atoms: C_13  and  C_14 
REMARK    2  A    between atoms: C_14  and  C_19 
REMARK    3  A    between atoms: C_15  and  C_20 
REMARK    4  A    between atoms: C_16  and  C_21 
REMARK    5  A    between atoms: C_17  and  C_23 
REMARK    6  A    between atoms: C_18  and  C_26 
REMARK    7  A    between atoms: C_22  and  C_28 
ROOT
HETATM    1  O   UNL     1      26.814  26.768  30.443  1.00  0.00    -0.304 OA
HETATM    2  O   UNL     1      29.003  22.024  30.479  1.00  0.00    -0.304 OA
HETATM    3  O   UNL     1      26.028  23.087  33.994  1.00  0.00    -0.304 OA
HETATM    4  O   UNL     1      29.843  25.098  30.255  1.00  0.00    -0.270 OA
HETATM    5  O   UNL     1      25.801  24.799  29.799  1.00  0.00    -0.263 OA
HETATM    6  O   UNL     1      28.019  25.717  32.483  1.00  0.00    -0.270 OA
HETATM    7  O   UNL     1      27.688  20.303  33.960  1.00  0.00    -0.270 OA
HETATM    8  O   UNL     1      29.791  20.039  29.633  1.00  0.00    -0.263 OA
HETATM    9  O   UNL     1      27.690  22.798  35.560  1.00  0.00    -0.263 OA
HETATM   10  N   UNL     1      28.357  24.330  28.646  1.00  0.00    -0.340 N 
HETATM   11  N   UNL     1      26.214  25.709  33.930  1.00  0.00    -0.340 N 
HETATM   12  N   UNL     1      26.975  20.907  31.830  1.00  0.00    -0.340 N 
HETATM   13  C   UNL     1      27.716  25.659  28.567  1.00  0.00     0.190 C 
HETATM   14  C   UNL     1      27.026  25.040  34.969  1.00  0.00     0.190 C 
HETATM   15  C   UNL     1      27.922  19.988  31.164  1.00  0.00     0.190 C 
HETATM   16  C   UNL     1      29.991  22.767  29.737  1.00  0.00     0.227 C 
HETATM   17  C   UNL     1      26.053  26.812  31.670  1.00  0.00     0.227 C 
HETATM   18  C   UNL     1      25.727  21.686  33.859  1.00  0.00     0.227 C 
HETATM   19  C   UNL     1      29.401  24.165  29.574  1.00  0.00     0.250 C 
HETATM   20  C   UNL     1      26.649  25.669  29.649  1.00  0.00     0.283 C 
HETATM   21  C   UNL     1      26.847  26.031  32.721  1.00  0.00     0.250 C 
HETATM   22  C   UNL     1      26.894  20.907  33.233  1.00  0.00     0.250 C 
HETATM   23  C   UNL     1      29.001  20.671  30.327  1.00  0.00     0.283 C 
HETATM   24  C   UNL     1      26.973  23.517  34.872  1.00  0.00     0.283 C 
HETATM   25  C   UNL     1      27.838  23.266  27.781  1.00  0.00     0.153 C 
HETATM   26  C   UNL     1      24.800  25.955  34.219  1.00  0.00     0.153 C 
HETATM   27  C   UNL     1      26.036  21.643  30.981  1.00  0.00     0.153 C 
ENDROOT
BRANCH  17  28
HETATM   28  C   UNL     1      25.937  28.277  32.064  1.00  0.00     0.016 C 
HETATM   29  C   UNL     1      27.307  28.847  32.432  1.00  0.00     0.012 C 
HETATM   30  C   UNL     1      25.305  29.091  30.936  1.00  0.00     0.012 C 
ENDBRANCH  17  28
BRANCH  13  31
HETATM   31  C   UNL     1      27.102  26.025  27.220  1.00  0.00     0.014 C 
HETATM   32  C   UNL     1      26.248  27.286  27.364  1.00  0.00     0.012 C 
BRANCH  31  33
HETATM   33  C   UNL     1      28.211  26.188  26.165  1.00  0.00     0.002 C 
HETATM   34  C   UNL     1      27.760  26.927  24.913  1.00  0.00     0.005 C 
ENDBRANCH  31  33
ENDBRANCH  13  31
BRANCH  14  35
HETATM   35  C   UNL     1      26.684  25.478  36.394  1.00  0.00     0.010 C 
HETATM   36  C   UNL     1      25.721  24.488  37.046  1.00  0.00     0.012 C 
HETATM   37  C   UNL     1      27.953  25.622  37.234  1.00  0.00     0.012 C 
ENDBRANCH  14  35
BRANCH  16  38
HETATM   38  C   UNL     1      31.289  22.792  30.540  1.00  0.00     0.016 C 
HETATM   39  C   UNL     1      32.367  21.961  29.846  1.00  0.00     0.012 C 
HETATM   40  C   UNL     1      31.054  22.284  31.961  1.00  0.00     0.012 C 
ENDBRANCH  16  38
BRANCH  18  41
HETATM   41  C   UNL     1      25.251  21.077  35.177  1.00  0.00     0.016 C 
HETATM   42  C   UNL     1      25.156  19.558  35.063  1.00  0.00     0.012 C 
HETATM   43  C   UNL     1      23.905  21.670  35.587  1.00  0.00     0.012 C 
ENDBRANCH  18  41
BRANCH  15  44
HETATM   44  C   UNL     1      27.186  18.936  30.334  1.00  0.00     0.010 C 
HETATM   45  C   UNL     1      26.531  19.579  29.115  1.00  0.00     0.012 C 
HETATM   46  C   UNL     1      26.147  18.214  31.187  1.00  0.00     0.012 C 
ENDBRANCH  15  44
TORSDOF 7
ENDMDL
MODEL 2
REMARK VINA RESULT:    -7.223      1.814      6.551
REMARK INTER + INTRA:          -9.190
REMARK INTER:                 -10.573
REMARK INTRA:                   1.383
REMARK UNBOUND:                 0.989
REMARK  7 active torsions:
REMARK  status: ('A' for Active; 'I' for Inactive)
REMARK    1  A    between atoms: C_13  and  C_14 
REMARK    2  A    between atoms: C_14  and  C_19 
REMARK    3  A    between atoms: C_15  and  C_20 
REMARK    4  A    between atoms: C_16  and  C_21 
REMARK    5  A    between atoms: C_17  and  C_23 
REMARK    6  A    between atoms: C_18  and  C_26 
REMARK    7  A    between atoms: C_22  and  C_28 
ROOT
HETATM    1  O   UNL     1      26.706  25.994  29.677  1.00  0.00    -0.304 OA
HETATM    2  O   UNL     1      26.707  23.371  34.195  1.00  0.00    -0.304 OA
HETATM    3  O   UNL     1      29.485  21.757  30.727  1.00  0.00    -0.304 OA
HETATM    4  O   UNL     1      24.649  24.498  32.028  1.00  0.00    -0.270 OA
HETATM    5  O   UNL     1      28.329  26.105  31.312  1.00  0.00    -0.263 OA
HETATM    6  O   UNL     1      26.376  23.433  29.893  1.00  0.00    -0.270 OA
HETATM    7  O   UNL     1      29.139  20.141  33.516  1.00  0.00    -0.270 OA
HETATM    8  O   UNL     1      26.689  23.054  36.470  1.00  0.00    -0.263 OA
HETATM    9  O   UNL     1      28.355  19.752  30.684  1.00  0.00    -0.263 OA
HETATM   10  N   UNL     1      26.050  26.066  33.011  1.00  0.00    -0.340 N 
HETATM   11  N   UNL     1      28.224  22.784  28.661  1.00  0.00    -0.340 N 
HETATM   12  N   UNL     1      29.199  22.441  33.856  1.00  0.00    -0.340 N 
HETATM   13  C   UNL     1      26.064  26.869  31.771  1.00  0.00     0.190 C 
HETATM   14  C   UNL     1      27.933  21.361  28.938  1.00  0.00     0.190 C 
HETATM   15  C   UNL     1      28.624  22.337  35.213  1.00  0.00     0.190 C 
HETATM   16  C   UNL     1      25.399  23.975  34.238  1.00  0.00     0.227 C 
HETATM   17  C   UNL     1      27.562  25.211  28.816  1.00  0.00     0.227 C 
HETATM   18  C   UNL     1      30.312  21.420  31.856  1.00  0.00     0.227 C 
HETATM   19  C   UNL     1      25.325  24.860  32.997  1.00  0.00     0.250 C 
HETATM   20  C   UNL     1      27.185  26.296  30.920  1.00  0.00     0.283 C 
HETATM   21  C   UNL     1      27.335  23.739  29.175  1.00  0.00     0.250 C 
HETATM   22  C   UNL     1      29.489  21.265  33.144  1.00  0.00     0.250 C 
HETATM   23  C   UNL     1      27.244  22.968  35.380  1.00  0.00     0.283 C 
HETATM   24  C   UNL     1      28.595  20.862  30.221  1.00  0.00     0.283 C 
HETATM   25  C   UNL     1      26.821  26.559  34.156  1.00  0.00     0.153 C 
HETATM   26  C   UNL     1      29.437  23.100  27.903  1.00  0.00     0.153 C 
HETATM   27  C   UNL     1      29.605  23.769  33.393  1.00  0.00     0.153 C 
ENDROOT
BRANCH  17  28
HETATM   28  C   UNL     1      27.122  25.489  27.386  1.00  0.00     0.016 C 
HETATM   29  C   UNL     1      26.107  26.631  27.347  1.00  0.00     0.012 C 
HETATM   30  C   UNL     1      28.327  25.813  26.504  1.00  0.00     0.012 C 
ENDBRANCH  17  28
BRANCH  13  31
HETATM   31  C   UNL     1      26.254  28.371  31.951  1.00  0.00     0.014 C 
HETATM   32  C   UNL     1      26.772  28.988  30.651  1.00  0.00     0.012 C 
BRANCH  31  33
HETATM   33  C   UNL     1      24.937  29.015  32.418  1.00  0.00     0.002 C 
HETATM   34  C   UNL     1      25.102  29.958  33.602  1.00  0.00     0.005 C 
ENDBRANCH  31  33
ENDBRANCH  13  31
BRANCH  14  35
HETATM   35  C   UNL     1      28.280  20.425  27.781  1.00  0.00     0.010 C 
HETATM   36  C   UNL     1      29.733  19.964  27.877  1.00  0.00     0.012 C 
HETATM   37  C   UNL     1      27.338  19.222  27.758  1.00  0.00     0.012 C 
ENDBRANCH  14  35
BRANCH  16  38
HETATM   38  C   UNL     1      24.348  22.868  34.205  1.00  0.00     0.016 C 
HETATM   39  C   UNL     1      23.825  22.578  35.610  1.00  0.00     0.012 C 
HETATM   40  C   UNL     1      24.922  21.599  33.575  1.00  0.00     0.012 C 
ENDBRANCH  16  38
BRANCH  18  41
HETATM   41  C   UNL     1      31.195  20.206  31.570  1.00  0.00     0.016 C 
HETATM   42  C   UNL     1      31.994  19.819  32.812  1.00  0.00     0.012 C 
HETATM   43  C   UNL     1      32.131  20.488  30.397  1.00  0.00     0.012 C 
ENDBRANCH  18  41
BRANCH  15  44
HETATM   44  C   UNL     1      29.591  22.878  36.268  1.00  0.00     0.010 C 
HETATM   45  C   UNL     1      29.824  24.372  36.065  1.00  0.00     0.012 C 
HETATM   46  C   UNL     1      30.911  22.115  36.223  1.00  0.00     0.012 C 
ENDBRANCH  15  44
TORSDOF 7
ENDMDL
MODEL 3
REMARK VINA RESULT:    -7.123      2.018      5.911
REMARK INTER + INTRA:          -9.048
REMARK INTER:                 -10.535
REMARK INTRA:                   1.487
REMARK UNBOUND:                 0.989
REMARK  7 active torsions:
REMARK  status: ('A' for Active; 'I' for Inactive)
REMARK    1  A    between atoms: C_13  and  C_14 
REMARK    2  A    between atoms: C_14  and  C_19 
REMARK    3  A    between atoms: C_15  and  C_20 
REMARK    4  A    between atoms: C_16  and  C_21 
REMARK    5  A    between atoms: C_17  and  C_23 
REMARK    6  A    between atoms: C_18  and  C_26 
REMARK    7  A    between atoms: C_22  and  C_28 
ROOT
HETATM    1  O   UNL     1      30.962  21.816  32.022  1.00  0.00    -0.304 OA
HETATM    2  O   UNL     1      26.538  22.979  29.499  1.00  0.00    -0.304 OA
HETATM    3  O   UNL     1      27.383  25.215  33.577  1.00  0.00    -0.304 OA
HETATM    4  O   UNL     1      28.146  20.430  30.558  1.00  0.00    -0.270 OA
HETATM    5  O   UNL     1      30.582  23.696  30.740  1.00  0.00    -0.263 OA
HETATM    6  O   UNL     1      28.609  21.832  33.107  1.00  0.00    -0.270 OA
HETATM    7  O   UNL     1      24.587  25.595  31.981  1.00  0.00    -0.270 OA
HETATM    8  O   UNL     1      25.162  23.430  27.715  1.00  0.00    -0.263 OA
HETATM    9  O   UNL     1      25.473  24.337  34.515  1.00  0.00    -0.263 OA
HETATM   10  N   UNL     1      29.280  21.801  29.068  1.00  0.00    -0.340 N 
HETATM   11  N   UNL     1      29.014  23.475  34.685  1.00  0.00    -0.340 N 
HETATM   12  N   UNL     1      26.396  25.451  30.526  1.00  0.00    -0.340 N 
HETATM   13  C   UNL     1      30.569  21.487  29.720  1.00  0.00     0.190 C 
HETATM   14  C   UNL     1      27.609  23.408  35.142  1.00  0.00     0.190 C 
HETATM   15  C   UNL     1      25.538  25.161  29.359  1.00  0.00     0.190 C 
HETATM   16  C   UNL     1      26.776  21.642  29.017  1.00  0.00     0.227 C 
HETATM   17  C   UNL     1      30.878  22.578  33.246  1.00  0.00     0.227 C 
HETATM   18  C   UNL     1      26.711  26.274  32.873  1.00  0.00     0.227 C 
HETATM   19  C   UNL     1      28.117  21.231  29.617  1.00  0.00     0.250 C 
HETATM   20  C   UNL     1      30.712  22.484  30.857  1.00  0.00     0.283 C 
HETATM   21  C   UNL     1      29.405  22.595  33.665  1.00  0.00     0.250 C 
HETATM   22  C   UNL     1      25.795  25.735  31.764  1.00  0.00     0.250 C 
HETATM   23  C   UNL     1      25.725  23.774  28.750  1.00  0.00     0.283 C 
HETATM   24  C   UNL     1      26.691  24.355  34.371  1.00  0.00     0.283 C 
HETATM   25  C   UNL     1      29.298  22.713  27.920  1.00  0.00     0.153 C 
HETATM   26  C   UNL     1      29.888  24.476  35.300  1.00  0.00     0.153 C 
HETATM   27  C   UNL     1      27.832  25.606  30.288  1.00  0.00     0.153 C 
ENDROOT
BRANCH  17  28
HETATM   28  C   UNL     1      31.722  21.845  34.279  1.00  0.00     0.016 C 
HETATM   29  C   UNL     1      30.949  20.665  34.868  1.00  0.00     0.012 C 
HETATM   30  C   UNL     1      33.037  21.370  33.663  1.00  0.00     0.012 C 
ENDBRANCH  17  28
BRANCH  13  31
HETATM   31  C   UNL     1      31.800  21.532  28.821  1.00  0.00     0.014 C 
HETATM   32  C   UNL     1      33.055  21.740  29.670  1.00  0.00     0.012 C 
BRANCH  31  33
HETATM   33  C   UNL     1      31.876  20.253  27.970  1.00  0.00     0.002 C 
HETATM   34  C   UNL     1      31.937  20.516  26.472  1.00  0.00     0.005 C 
ENDBRANCH  31  33
ENDBRANCH  13  31
BRANCH  14  35
HETATM   35  C   UNL     1      27.439  23.636  36.644  1.00  0.00     0.010 C 
HETATM   36  C   UNL     1      26.879  25.029  36.919  1.00  0.00     0.012 C 
HETATM   37  C   UNL     1      26.533  22.566  37.253  1.00  0.00     0.012 C 
ENDBRANCH  14  35
BRANCH  16  38
HETATM   38  C   UNL     1      25.642  20.739  29.497  1.00  0.00     0.016 C 
HETATM   39  C   UNL     1      25.428  20.897  31.002  1.00  0.00     0.012 C 
HETATM   40  C   UNL     1      25.930  19.280  29.148  1.00  0.00     0.012 C 
ENDBRANCH  16  38
BRANCH  18  41
HETATM   41  C   UNL     1      25.987  27.222  33.828  1.00  0.00     0.016 C 
HETATM   42  C   UNL     1      25.052  28.151  33.057  1.00  0.00     0.012 C 
HETATM   43  C   UNL     1      26.992  28.030  34.646  1.00  0.00     0.012 C 
ENDBRANCH  18  41
BRANCH  15  44
HETATM   44  C   UNL     1      25.676  26.241  28.285  1.00  0.00     0.010 C 
HETATM   45  C   UNL     1      27.014  26.108  27.562  1.00  0.00     0.012 C 
HETATM   46  C   UNL     1      25.533  27.629  28.902  1.00  0.00     0.012 C 
ENDBRANCH  15  44
TORSDOF 7
ENDMDL
MODEL 4
REMARK VINA RESULT:    -7.117      1.937      6.742
REMARK INTER + INTRA:          -9.040
REMARK INTER:                 -10.440
REMARK INTRA:                   1.400
REMARK UNBOUND:                 0.989
REMARK  7 active torsions:
REMARK  status: ('A' for Active; 'I' for Inactive)
REMARK    1  A    between atoms: C_13  and  C_14 
REMARK    2  A    between atoms: C_14  and  C_19 
REMARK    3  A    between atoms: C_15  and  C_20 
REMARK    4  A    between atoms: C_16  and  C_21 
REMARK    5  A    between atoms: C_17  and  C_23 
REMARK    6  A    between atoms: C_18  and  C_26 
REMARK    7  A    between atoms: C_22  and  C_28 
ROOT
HETATM    1  O   UNL     1      26.725  25.901  29.447  1.00  0.00    -0.304 OA
HETATM    2  O   UNL     1      27.398  22.871  33.650  1.00  0.00    -0.304 OA
HETATM    3  O   UNL     1      30.417  22.327  30.053  1.00  0.00    -0.304 OA
HETATM    4  O   UNL     1      25.103  23.724  31.599  1.00  0.00    -0.270 OA
HETATM    5  O   UNL     1      28.303  26.202  31.101  1.00  0.00    -0.263 OA
HETATM    6  O   UNL     1      26.995  23.324  29.377  1.00  0.00    -0.270 OA
HETATM    7  O   UNL     1      30.496  20.380  32.644  1.00  0.00    -0.270 OA
HETATM    8  O   UNL     1      27.489  22.312  35.876  1.00  0.00    -0.263 OA
HETATM    9  O   UNL     1      29.777  20.132  29.779  1.00  0.00    -0.263 OA
HETATM   10  N   UNL     1      26.122  25.455  32.762  1.00  0.00    -0.340 N 
HETATM   11  N   UNL     1      28.922  23.256  28.100  1.00  0.00    -0.340 N 
HETATM   12  N   UNL     1      30.031  22.581  33.235  1.00  0.00    -0.340 N 
HETATM   13  C   UNL     1      25.931  26.370  31.618  1.00  0.00     0.190 C 
HETATM   14  C   UNL     1      28.970  21.783  28.216  1.00  0.00     0.190 C 
HETATM   15  C   UNL     1      29.517  22.200  34.567  1.00  0.00     0.190 C 
HETATM   16  C   UNL     1      25.987  23.149  33.745  1.00  0.00     0.227 C 
HETATM   17  C   UNL     1      27.723  25.433  28.514  1.00  0.00     0.227 C 
HETATM   18  C   UNL     1      31.317  22.067  31.146  1.00  0.00     0.227 C 
HETATM   19  C   UNL     1      25.692  24.124  32.609  1.00  0.00     0.250 C 
HETATM   20  C   UNL     1      27.141  26.167  30.720  1.00  0.00     0.283 C 
HETATM   21  C   UNL     1      27.846  23.919  28.707  1.00  0.00     0.250 C 
HETATM   22  C   UNL     1      30.573  21.588  32.401  1.00  0.00     0.250 C 
HETATM   23  C   UNL     1      28.032  22.475  34.788  1.00  0.00     0.283 C 
HETATM   24  C   UNL     1      29.749  21.311  29.443  1.00  0.00     0.283 C 
HETATM   25  C   UNL     1      26.777  25.985  33.962  1.00  0.00     0.153 C 
HETATM   26  C   UNL     1      30.018  23.923  27.393  1.00  0.00     0.153 C 
HETATM   27  C   UNL     1      30.114  24.009  32.925  1.00  0.00     0.153 C 
ENDROOT
BRANCH  17  28
HETATM   28  C   UNL     1      27.209  25.757  27.119  1.00  0.00     0.016 C 
HETATM   29  C   UNL     1      26.158  26.865  27.176  1.00  0.00     0.012 C 
HETATM   30  C   UNL     1      28.361  26.159  26.199  1.00  0.00     0.012 C 
ENDBRANCH  17  28
BRANCH  13  31
HETATM   31  C   UNL     1      25.775  27.847  31.964  1.00  0.00     0.014 C 
HETATM   32  C   UNL     1      25.811  28.686  30.685  1.00  0.00     0.012 C 
BRANCH  31  33
HETATM   33  C   UNL     1      24.480  28.064  32.768  1.00  0.00     0.002 C 
HETATM   34  C   UNL     1      24.534  29.263  33.704  1.00  0.00     0.005 C 
ENDBRANCH  31  33
ENDBRANCH  13  31
BRANCH  14  35
HETATM   35  C   UNL     1      29.505  21.084  26.967  1.00  0.00     0.010 C 
HETATM   36  C   UNL     1      31.023  20.932  27.040  1.00  0.00     0.012 C 
HETATM   37  C   UNL     1      28.840  19.719  26.785  1.00  0.00     0.012 C 
ENDBRANCH  14  35
BRANCH  16  38
HETATM   38  C   UNL     1      25.218  21.841  33.580  1.00  0.00     0.016 C 
HETATM   39  C   UNL     1      24.551  21.438  34.894  1.00  0.00     0.012 C 
HETATM   40  C   UNL     1      26.144  20.730  33.088  1.00  0.00     0.012 C 
ENDBRANCH  16  38
BRANCH  18  41
HETATM   41  C   UNL     1      32.451  21.128  30.737  1.00  0.00     0.016 C 
HETATM   42  C   UNL     1      33.348  20.817  31.933  1.00  0.00     0.012 C 
HETATM   43  C   UNL     1      33.267  21.735  29.598  1.00  0.00     0.012 C 
ENDBRANCH  18  41
BRANCH  15  44
HETATM   44  C   UNL     1      30.350  22.830  35.685  1.00  0.00     0.010 C 
HETATM   45  C   UNL     1      30.673  21.794  36.758  1.00  0.00     0.012 C 
HETATM   46  C   UNL     1      29.617  24.023  36.290  1.00  0.00     0.012 C 
ENDBRANCH  15  44
TORSDOF 7
ENDMDL
MODEL 5
REMARK VINA RESULT:    -7.084      1.820      2.449
REMARK INTER + INTRA:          -8.994
REMARK INTER:                 -10.377
REMARK INTRA:                   1.383
REMARK UNBOUND:                 0.989
REMARK  7 active torsions:
REMARK  status: ('A' for Active; 'I' for Inactive)
REMARK    1  A    between atoms: C_13  and  C_14 
REMARK    2  A    between atoms: C_14  and  C_19 
REMARK    3  A    between atoms: C_15  and  C_20 
REMARK    4  A    between atoms: C_16  and  C_21 
REMARK    5  A    between atoms: C_17  and  C_23 
REMARK    6  A    between atoms: C_18  and  C_26 
REMARK    7  A    between atoms: C_22  and  C_28 
ROOT
HETATM    1  O   UNL     1      26.729  26.109  31.771  1.00  0.00    -0.304 OA
HETATM    2  O   UNL     1      28.426  21.979  29.059  1.00  0.00    -0.304 OA
HETATM    3  O   UNL     1      27.404  21.326  33.628  1.00  0.00    -0.304 OA
HETATM    4  O   UNL     1      29.252  25.003  29.672  1.00  0.00    -0.270 OA
HETATM    5  O   UNL     1      25.424  24.399  30.941  1.00  0.00    -0.263 OA
HETATM    6  O   UNL     1      28.656  24.546  32.520  1.00  0.00    -0.270 OA
HETATM    7  O   UNL     1      28.710  18.967  31.828  1.00  0.00    -0.270 OA
HETATM    8  O   UNL     1      28.637  20.546  27.276  1.00  0.00    -0.263 OA
HETATM    9  O   UNL     1      29.571  20.695  34.077  1.00  0.00    -0.263 OA
HETATM   10  N   UNL     1      27.162  24.694  28.711  1.00  0.00    -0.340 N 
HETATM   11  N   UNL     1      27.692  23.795  34.484  1.00  0.00    -0.340 N 
HETATM   12  N   UNL     1      27.156  20.210  30.623  1.00  0.00    -0.340 N 
HETATM   13  C   UNL     1      26.631  25.873  29.426  1.00  0.00     0.190 C 
HETATM   14  C   UNL     1      28.843  22.900  34.729  1.00  0.00     0.190 C 
HETATM   15  C   UNL     1      27.651  19.717  29.320  1.00  0.00     0.190 C 
HETATM   16  C   UNL     1      29.018  23.054  28.304  1.00  0.00     0.227 C 
HETATM   17  C   UNL     1      26.601  25.613  33.122  1.00  0.00     0.227 C 
HETATM   18  C   UNL     1      26.995  20.043  33.119  1.00  0.00     0.227 C 
HETATM   19  C   UNL     1      28.500  24.334  28.955  1.00  0.00     0.250 C 
HETATM   20  C   UNL     1      26.164  25.360  30.779  1.00  0.00     0.283 C 
HETATM   21  C   UNL     1      27.735  24.607  33.342  1.00  0.00     0.250 C 
HETATM   22  C   UNL     1      27.711  19.693  31.806  1.00  0.00     0.250 C 
HETATM   23  C   UNL     1      28.279  20.782  28.425  1.00  0.00     0.283 C 
HETATM   24  C   UNL     1      28.665  21.521  34.098  1.00  0.00     0.283 C 
HETATM   25  C   UNL     1      26.251  23.961  27.828  1.00  0.00     0.153 C 
HETATM   26  C   UNL     1      26.573  23.746  35.428  1.00  0.00     0.153 C 
HETATM   27  C   UNL     1      25.981  21.083  30.614  1.00  0.00     0.153 C 
ENDROOT
BRANCH  17  28
HETATM   28  C   UNL     1      26.758  26.810  34.048  1.00  0.00     0.016 C 
HETATM   29  C   UNL     1      28.153  27.419  33.910  1.00  0.00     0.012 C 
HETATM   30  C   UNL     1      25.685  27.859  33.759  1.00  0.00     0.012 C 
ENDBRANCH  17  28
BRANCH  13  31
HETATM   31  C   UNL     1      25.502  26.624  28.730  1.00  0.00     0.014 C 
HETATM   32  C   UNL     1      24.548  27.211  29.771  1.00  0.00     0.012 C 
BRANCH  31  33
HETATM   33  C   UNL     1      26.084  27.702  27.799  1.00  0.00     0.002 C 
HETATM   34  C   UNL     1      26.721  27.141  26.535  1.00  0.00     0.005 C 
ENDBRANCH  31  33
ENDBRANCH  13  31
BRANCH  14  35
HETATM   35  C   UNL     1      29.200  22.747  36.208  1.00  0.00     0.010 C 
HETATM   36  C   UNL     1      28.316  21.693  36.870  1.00  0.00     0.012 C 
HETATM   37  C   UNL     1      30.677  22.388  36.373  1.00  0.00     0.012 C 
ENDBRANCH  14  35
BRANCH  16  38
HETATM   38  C   UNL     1      30.538  22.945  28.406  1.00  0.00     0.016 C 
HETATM   39  C   UNL     1      31.140  22.533  27.064  1.00  0.00     0.012 C 
HETATM   40  C   UNL     1      30.934  21.952  29.498  1.00  0.00     0.012 C 
ENDBRANCH  16  38
BRANCH  18  41
HETATM   41  C   UNL     1      27.125  18.945  34.174  1.00  0.00     0.016 C 
HETATM   42  C   UNL     1      26.825  17.578  33.565  1.00  0.00     0.012 C 
HETATM   43  C   UNL     1      26.196  19.223  35.354  1.00  0.00     0.012 C 
ENDBRANCH  18  41
BRANCH  15  44
HETATM   44  C   UNL     1      26.562  18.955  28.564  1.00  0.00     0.010 C 
HETATM   45  C   UNL     1      25.811  18.019  29.506  1.00  0.00     0.012 C 
HETATM   46  C   UNL     1      27.167  18.177  27.399  1.00  0.00     0.012 C 
ENDBRANCH  15  44
TORSDOF 7
ENDMDL
MODEL 6
REMARK VINA RESULT:    -7.035      2.246      5.659
REMARK INTER + INTRA:          -8.924
REMARK INTER:                 -10.327
REMARK INTRA:                   1.403
REMARK UNBOUND:                 0.989
REMARK  7 active torsions:
REMARK  status: ('A' for Active; 'I' for Inactive)
REMARK    1  A    between atoms: C_13  and  C_14 
REMARK    2  A    between atoms: C_14  and  C_19 
REMARK    3  A    between atoms: C_15  and  C_20 
REMARK    4  A    between atoms: C_16  and  C_21 
REMARK    5  A    between atoms: C_17  and  C_23 
REMARK    6  A    between atoms: C_18  and  C_26 
REMARK    7  A    between atoms: C_22  and  C_28 
ROOT
HETATM    1  O   UNL     1      31.400  21.836  31.330  1.00  0.00    -0.304 OA
HETATM    2  O   UNL     1      26.423  22.382  29.841  1.00  0.00    -0.304 OA
HETATM    3  O   UNL     1      27.473  23.331  34.351  1.00  0.00    -0.304 OA
HETATM    4  O   UNL     1      28.778  20.226  29.742  1.00  0.00    -0.270 OA
HETATM    5  O   UNL     1      30.333  23.826  30.862  1.00  0.00    -0.263 OA
HETATM    6  O   UNL     1      29.371  20.803  32.568  1.00  0.00    -0.270 OA
HETATM    7  O   UNL     1      24.414  23.357  33.279  1.00  0.00    -0.270 OA
HETATM    8  O   UNL     1      24.659  22.953  28.484  1.00  0.00    -0.263 OA
HETATM    9  O   UNL     1      26.054  21.674  35.085  1.00  0.00    -0.263 OA
HETATM   10  N   UNL     1      29.232  22.274  28.750  1.00  0.00    -0.340 N 
HETATM   11  N   UNL     1      29.662  21.892  34.588  1.00  0.00    -0.340 N 
HETATM   12  N   UNL     1      25.885  24.232  31.704  1.00  0.00    -0.340 N 
HETATM   13  C   UNL     1      30.660  22.164  29.115  1.00  0.00     0.190 C 
HETATM   14  C   UNL     1      28.432  21.269  35.123  1.00  0.00     0.190 C 
HETATM   15  C   UNL     1      24.914  24.093  30.600  1.00  0.00     0.190 C 
HETATM   16  C   UNL     1      26.881  21.405  28.885  1.00  0.00     0.227 C 
HETATM   17  C   UNL     1      31.373  22.101  32.750  1.00  0.00     0.227 C 
HETATM   18  C   UNL     1      26.440  24.311  34.148  1.00  0.00     0.227 C 
HETATM   19  C   UNL     1      28.373  21.241  29.163  1.00  0.00     0.250 C 
HETATM   20  C   UNL     1      30.773  22.737  30.518  1.00  0.00     0.283 C 
HETATM   21  C   UNL     1      30.050  21.546  33.286  1.00  0.00     0.250 C 
HETATM   22  C   UNL     1      25.485  23.911  33.013  1.00  0.00     0.250 C 
HETATM   23  C   UNL     1      25.312  23.097  29.513  1.00  0.00     0.283 C 
HETATM   24  C   UNL     1      27.180  22.096  34.841  1.00  0.00     0.283 C 
HETATM   25  C   UNL     1      28.803  23.469  28.016  1.00  0.00     0.153 C 
HETATM   26  C   UNL     1      30.368  22.854  35.438  1.00  0.00     0.153 C 
HETATM   27  C   UNL     1      27.166  24.873  31.402  1.00  0.00     0.153 C 
ENDROOT
BRANCH  17  28
HETATM   28  C   UNL     1      32.554  21.360  33.360  1.00  0.00     0.016 C 
HETATM   29  C   UNL     1      32.330  19.850  33.302  1.00  0.00     0.012 C 
HETATM   30  C   UNL     1      33.853  21.737  32.649  1.00  0.00     0.012 C 
ENDBRANCH  17  28
BRANCH  13  31
HETATM   31  C   UNL     1      31.644  22.859  28.181  1.00  0.00     0.014 C 
HETATM   32  C   UNL     1      33.022  22.935  28.841  1.00  0.00     0.012 C 
BRANCH  31  33
HETATM   33  C   UNL     1      31.685  22.130  26.826  1.00  0.00     0.002 C 
HETATM   34  C   UNL     1      31.904  20.629  26.944  1.00  0.00     0.005 C 
ENDBRANCH  31  33
ENDBRANCH  13  31
BRANCH  14  35
HETATM   35  C   UNL     1      28.507  20.940  36.614  1.00  0.00     0.010 C 
HETATM   36  C   UNL     1      27.582  21.854  37.415  1.00  0.00     0.012 C 
HETATM   37  C   UNL     1      28.155  19.473  36.861  1.00  0.00     0.012 C 
ENDBRANCH  14  35
BRANCH  16  38
HETATM   38  C   UNL     1      26.118  20.103  29.112  1.00  0.00     0.016 C 
HETATM   39  C   UNL     1      26.014  19.791  30.603  1.00  0.00     0.012 C 
HETATM   40  C   UNL     1      26.789  18.948  28.369  1.00  0.00     0.012 C 
ENDBRANCH  16  38
BRANCH  18  41
HETATM   41  C   UNL     1      25.706  24.641  35.447  1.00  0.00     0.016 C 
HETATM   42  C   UNL     1      24.536  25.584  35.179  1.00  0.00     0.012 C 
HETATM   43  C   UNL     1      26.667  25.253  36.464  1.00  0.00     0.012 C 
ENDBRANCH  18  41
BRANCH  15  44
HETATM   44  C   UNL     1      24.574  25.451  29.984  1.00  0.00     0.010 C 
HETATM   45  C   UNL     1      25.732  25.954  29.126  1.00  0.00     0.012 C 
HETATM   46  C   UNL     1      24.232  26.461  31.075  1.00  0.00     0.012 C 
ENDBRANCH  15  44
TORSDOF 7
ENDMDL
MODEL 7
REMARK VINA RESULT:    -6.986      2.239      6.221
REMARK INTER + INTRA:          -8.856
REMARK INTER:                  -9.797
REMARK INTRA:                   0.942
REMARK UNBOUND:                 0.989
REMARK  7 active torsions:
REMARK  status: ('A' for Active; 'I' for Inactive)
REMARK    1  A    between atoms: C_13  and  C_14 
REMARK    2  A    between atoms: C_14  and  C_19 
REMARK    3  A    between atoms: C_15  and  C_20 
REMARK    4  A    between atoms: C_16  and  C_21 
REMARK    5  A    between atoms: C_17  and  C_23 
REMARK    6  A    between atoms: C_18  and  C_26 
REMARK    7  A    between atoms: C_22  and  C_28 
ROOT
HETATM    1  O   UNL     1      30.513  21.388  34.462  1.00  0.00    -0.304 OA
HETATM    2  O   UNL     1      28.484  22.049  29.693  1.00  0.00    -0.304 OA
HETATM    3  O   UNL     1      26.421  24.329  33.284  1.00  0.00    -0.304 OA
HETATM    4  O   UNL     1      29.342  19.696  31.675  1.00  0.00    -0.270 OA
HETATM    5  O   UNL     1      30.817  23.222  33.098  1.00  0.00    -0.263 OA
HETATM    6  O   UNL     1      28.002  21.118  33.879  1.00  0.00    -0.270 OA
HETATM    7  O   UNL     1      25.174  24.395  30.292  1.00  0.00    -0.270 OA
HETATM    8  O   UNL     1      28.458  22.354  27.416  1.00  0.00    -0.263 OA
HETATM    9  O   UNL     1      24.435  23.225  32.914  1.00  0.00    -0.263 OA
HETATM   10  N   UNL     1      31.011  21.205  31.105  1.00  0.00    -0.340 N 
HETATM   11  N   UNL     1      27.188  22.781  35.266  1.00  0.00    -0.340 N 
HETATM   12  N   UNL     1      27.499  24.478  30.259  1.00  0.00    -0.340 N 
HETATM   13  C   UNL     1      31.651  21.037  32.426  1.00  0.00     0.190 C 
HETATM   14  C   UNL     1      25.814  22.546  34.773  1.00  0.00     0.190 C 
HETATM   15  C   UNL     1      27.572  24.101  28.832  1.00  0.00     0.190 C 
HETATM   16  C   UNL     1      29.097  20.754  29.544  1.00  0.00     0.227 C 
HETATM   17  C   UNL     1      29.619  22.122  35.328  1.00  0.00     0.227 C 
HETATM   18  C   UNL     1      26.223  25.309  32.250  1.00  0.00     0.227 C 
HETATM   19  C   UNL     1      29.820  20.498  30.864  1.00  0.00     0.250 C 
HETATM   20  C   UNL     1      30.966  22.033  33.347  1.00  0.00     0.283 C 
HETATM   21  C   UNL     1      28.207  21.963  34.757  1.00  0.00     0.250 C 
HETATM   22  C   UNL     1      26.239  24.678  30.850  1.00  0.00     0.250 C 
HETATM   23  C   UNL     1      28.230  22.752  28.555  1.00  0.00     0.283 C 
HETATM   24  C   UNL     1      25.475  23.386  33.543  1.00  0.00     0.283 C 
HETATM   25  C   UNL     1      31.640  22.124  30.151  1.00  0.00     0.153 C 
HETATM   26  C   UNL     1      27.396  23.871  36.221  1.00  0.00     0.153 C 
HETATM   27  C   UNL     1      28.754  24.802  30.939  1.00  0.00     0.153 C 
ENDROOT
BRANCH  17  28
HETATM   28  C   UNL     1      29.717  21.483  36.705  1.00  0.00     0.016 C 
HETATM   29  C   UNL     1      28.733  20.321  36.832  1.00  0.00     0.012 C 
HETATM   30  C   UNL     1      31.144  21.008  36.980  1.00  0.00     0.012 C 
ENDBRANCH  17  28
BRANCH  13  31
HETATM   31  C   UNL     1      33.162  21.235  32.466  1.00  0.00     0.014 C 
HETATM   32  C   UNL     1      33.641  21.283  33.918  1.00  0.00     0.012 C 
BRANCH  31  33
HETATM   33  C   UNL     1      33.859  20.127  31.658  1.00  0.00     0.002 C 
HETATM   34  C   UNL     1      35.120  20.591  30.942  1.00  0.00     0.005 C 
ENDBRANCH  31  33
ENDBRANCH  13  31
BRANCH  14  35
HETATM   35  C   UNL     1      24.736  22.737  35.839  1.00  0.00     0.010 C 
HETATM   36  C   UNL     1      23.874  23.957  35.524  1.00  0.00     0.012 C 
HETATM   37  C   UNL     1      23.867  21.485  35.959  1.00  0.00     0.012 C 
ENDBRANCH  14  35
BRANCH  16  38
HETATM   38  C   UNL     1      28.004  19.721  29.289  1.00  0.00     0.016 C 
HETATM   39  C   UNL     1      28.102  19.170  27.867  1.00  0.00     0.012 C 
HETATM   40  C   UNL     1      26.622  20.326  29.533  1.00  0.00     0.012 C 
ENDBRANCH  16  38
BRANCH  18  41
HETATM   41  C   UNL     1      24.976  26.156  32.501  1.00  0.00     0.016 C 
HETATM   42  C   UNL     1      24.723  27.100  31.327  1.00  0.00     0.012 C 
HETATM   43  C   UNL     1      25.115  26.944  33.802  1.00  0.00     0.012 C 
ENDBRANCH  18  41
BRANCH  15  44
HETATM   44  C   UNL     1      28.234  25.200  28.000  1.00  0.00     0.010 C 
HETATM   45  C   UNL     1      27.368  25.554  26.794  1.00  0.00     0.012 C 
HETATM   46  C   UNL     1      29.627  24.766  27.554  1.00  0.00     0.012 C 
ENDBRANCH  15  44
TORSDOF 7
ENDMDL
MODEL 8
REMARK VINA RESULT:    -6.805      1.969      6.354
REMARK INTER + INTRA:          -8.600
REMARK INTER:                 -10.387
REMARK INTRA:                   1.787
REMARK UNBOUND:                 0.989
REMARK  7 active torsions:
REMARK  status: ('A' for Active; 'I' for Inactive)
REMARK    1  A    between atoms: C_13  and  C_14 
REMARK    2  A    between atoms: C_14  and  C_19 
REMARK    3  A    between atoms: C_15  and  C_20 
REMARK    4  A    between atoms: C_16  and  C_21 
REMARK    5  A    between atoms: C_17  and  C_23 
REMARK    6  A    between atoms: C_18  and  C_26 
REMARK    7  A    between atoms: C_22  and  C_28 
ROOT
HETATM    1  O   UNL     1      29.202  21.910  34.568  1.00  0.00    -0.304 OA
HETATM    2  O   UNL     1      28.302  21.865  29.422  1.00  0.00    -0.304 OA
HETATM    3  O   UNL     1      26.295  25.309  31.964  1.00  0.00    -0.304 OA
HETATM    4  O   UNL     1      28.150  19.910  31.943  1.00  0.00    -0.270 OA
HETATM    5  O   UNL     1      30.212  23.266  33.000  1.00  0.00    -0.263 OA
HETATM    6  O   UNL     1      26.853  22.061  33.482  1.00  0.00    -0.270 OA
HETATM    7  O   UNL     1      25.665  24.944  28.805  1.00  0.00    -0.270 OA
HETATM    8  O   UNL     1      28.764  21.629  27.184  1.00  0.00    -0.263 OA
HETATM    9  O   UNL     1      24.190  24.604  31.354  1.00  0.00    -0.263 OA
HETATM   10  N   UNL     1      30.228  20.847  31.507  1.00  0.00    -0.340 N 
HETATM   11  N   UNL     1      26.266  24.137  34.317  1.00  0.00    -0.340 N 
HETATM   12  N   UNL     1      27.898  24.513  29.293  1.00  0.00    -0.340 N 
HETATM   13  C   UNL     1      30.555  20.858  32.948  1.00  0.00     0.190 C 
HETATM   14  C   UNL     1      24.989  24.096  33.572  1.00  0.00     0.190 C 
HETATM   15  C   UNL     1      28.125  23.807  28.014  1.00  0.00     0.190 C 
HETATM   16  C   UNL     1      28.574  20.470  29.657  1.00  0.00     0.227 C 
HETATM   17  C   UNL     1      28.390  23.001  35.056  1.00  0.00     0.227 C 
HETATM   18  C   UNL     1      26.548  26.040  30.751  1.00  0.00     0.227 C 
HETATM   19  C   UNL     1      28.957  20.378  31.131  1.00  0.00     0.250 C 
HETATM   20  C   UNL     1      30.000  22.165  33.489  1.00  0.00     0.283 C 
HETATM   21  C   UNL     1      27.111  23.022  34.215  1.00  0.00     0.250 C 
HETATM   22  C   UNL     1      26.649  25.112  29.531  1.00  0.00     0.250 C 
HETATM   23  C   UNL     1      28.447  22.321  28.147  1.00  0.00     0.283 C 
HETATM   24  C   UNL     1      25.107  24.679  32.166  1.00  0.00     0.283 C 
HETATM   25  C   UNL     1      31.235  21.361  30.573  1.00  0.00     0.153 C 
HETATM   26  C   UNL     1      26.576  25.348  35.079  1.00  0.00     0.153 C 
HETATM   27  C   UNL     1      29.052  24.707  30.173  1.00  0.00     0.153 C 
ENDROOT
BRANCH  17  28
HETATM   28  C   UNL     1      28.071  22.695  36.512  1.00  0.00     0.016 C 
HETATM   29  C   UNL     1      26.711  22.008  36.633  1.00  0.00     0.012 C 
HETATM   30  C   UNL     1      29.165  21.829  37.134  1.00  0.00     0.012 C 
ENDBRANCH  17  28
BRANCH  13  31
HETATM   31  C   UNL     1      32.033  20.729  33.298  1.00  0.00     0.014 C 
HETATM   32  C   UNL     1      32.285  21.285  34.701  1.00  0.00     0.012 C 
BRANCH  31  33
HETATM   33  C   UNL     1      32.478  19.262  33.164  1.00  0.00     0.002 C 
HETATM   34  C   UNL     1      31.499  18.266  33.769  1.00  0.00     0.005 C 
ENDBRANCH  31  33
ENDBRANCH  13  31
BRANCH  14  35
HETATM   35  C   UNL     1      23.825  24.758  34.309  1.00  0.00     0.010 C 
HETATM   36  C   UNL     1      23.828  24.368  35.785  1.00  0.00     0.012 C 
HETATM   37  C   UNL     1      23.885  26.278  34.157  1.00  0.00     0.012 C 
ENDBRANCH  14  35
BRANCH  16  38
HETATM   38  C   UNL     1      27.313  19.666  29.350  1.00  0.00     0.016 C 
HETATM   39  C   UNL     1      27.481  18.872  28.056  1.00  0.00     0.012 C 
HETATM   40  C   UNL     1      26.097  20.587  29.258  1.00  0.00     0.012 C 
ENDBRANCH  16  38
BRANCH  18  41
HETATM   41  C   UNL     1      25.540  27.171  30.549  1.00  0.00     0.016 C 
HETATM   42  C   UNL     1      25.773  27.865  29.209  1.00  0.00     0.012 C 
HETATM   43  C   UNL     1      25.625  28.176  31.696  1.00  0.00     0.012 C 
ENDBRANCH  18  41
BRANCH  15  44
HETATM   44  C   UNL     1      29.188  24.512  27.171  1.00  0.00     0.010 C 
HETATM   45  C   UNL     1      30.454  24.743  27.991  1.00  0.00     0.012 C 
HETATM   46  C   UNL     1      28.649  25.833  26.629  1.00  0.00     0.012 C 
ENDBRANCH  15  44
TORSDOF 7
ENDMDL
MODEL 9
REMARK VINA RESULT:    -6.783      2.148      6.214
REMARK INTER + INTRA:          -8.570
REMARK INTER:                  -9.815
REMARK INTRA:                   1.245
REMARK UNBOUND:                 0.989
REMARK  7 active torsions:
REMARK  status: ('A' for Active; 'I' for Inactive)
REMARK    1  A    between atoms: C_13  and  C_14 
REMARK    2  A    between atoms: C_14  and  C_19 
REMARK    3  A    between atoms: C_15  and  C_20 
REMARK    4  A    between atoms: C_16  and  C_21 
REMARK    5  A    between atoms: C_17  and  C_23 
REMARK    6  A    between atoms: C_18  and  C_26 
REMARK    7  A    between atoms: C_22  and  C_28 
ROOT
HETATM    1  O   UNL     1      31.505  20.894  31.981  1.00  0.00    -0.304 OA
HETATM    2  O   UNL     1      27.329  22.718  29.428  1.00  0.00    -0.304 OA
HETATM    3  O   UNL     1      27.929  24.099  33.908  1.00  0.00    -0.304 OA
HETATM    4  O   UNL     1      28.767  19.943  30.086  1.00  0.00    -0.270 OA
HETATM    5  O   UNL     1      31.286  22.998  31.062  1.00  0.00    -0.263 OA
HETATM    6  O   UNL     1      29.077  20.813  32.883  1.00  0.00    -0.270 OA
HETATM    7  O   UNL     1      25.278  24.904  32.225  1.00  0.00    -0.270 OA
HETATM    8  O   UNL     1      26.110  23.562  27.672  1.00  0.00    -0.263 OA
HETATM    9  O   UNL     1      25.925  23.150  34.525  1.00  0.00    -0.263 OA
HETATM   10  N   UNL     1      30.057  21.517  28.971  1.00  0.00    -0.340 N 
HETATM   11  N   UNL     1      29.411  22.107  34.771  1.00  0.00    -0.340 N 
HETATM   12  N   UNL     1      27.188  24.955  30.899  1.00  0.00    -0.340 N 
HETATM   13  C   UNL     1      31.280  21.025  29.637  1.00  0.00     0.190 C 
HETATM   14  C   UNL     1      27.974  22.020  35.108  1.00  0.00     0.190 C 
HETATM   15  C   UNL     1      26.414  24.931  29.640  1.00  0.00     0.190 C 
HETATM   16  C   UNL     1      27.560  21.487  28.715  1.00  0.00     0.227 C 
HETATM   17  C   UNL     1      31.351  21.413  33.321  1.00  0.00     0.227 C 
HETATM   18  C   UNL     1      27.347  25.303  33.376  1.00  0.00     0.227 C 
HETATM   19  C   UNL     1      28.837  20.908  29.317  1.00  0.00     0.250 C 
HETATM   20  C   UNL     1      31.367  21.781  30.952  1.00  0.00     0.283 C 
HETATM   21  C   UNL     1      29.852  21.419  33.631  1.00  0.00     0.250 C 
HETATM   22  C   UNL     1      26.502  25.027  32.123  1.00  0.00     0.250 C 
HETATM   23  C   UNL     1      26.603  23.678  28.790  1.00  0.00     0.283 C 
HETATM   24  C   UNL     1      27.150  23.137  34.472  1.00  0.00     0.283 C 
HETATM   25  C   UNL     1      30.192  22.628  28.024  1.00  0.00     0.153 C 
HETATM   26  C   UNL     1      30.267  22.932  35.627  1.00  0.00     0.153 C 
HETATM   27  C   UNL     1      28.643  25.084  30.796  1.00  0.00     0.153 C 
ENDROOT
BRANCH  17  28
HETATM   28  C   UNL     1      32.089  20.459  34.250  1.00  0.00     0.016 C 
HETATM   29  C   UNL     1      32.069  19.037  33.690  1.00  0.00     0.012 C 
HETATM   30  C   UNL     1      33.526  20.926  34.472  1.00  0.00     0.012 C 
ENDBRANCH  17  28
BRANCH  13  31
HETATM   31  C   UNL     1      32.578  21.183  28.852  1.00  0.00     0.014 C 
HETATM   32  C   UNL     1      33.772  21.129  29.807  1.00  0.00     0.012 C 
BRANCH  31  33
HETATM   33  C   UNL     1      32.660  20.108  27.753  1.00  0.00     0.002 C 
HETATM   34  C   UNL     1      33.585  18.950  28.098  1.00  0.00     0.005 C 
ENDBRANCH  31  33
ENDBRANCH  13  31
BRANCH  14  35
HETATM   35  C   UNL     1      27.696  21.967  36.610  1.00  0.00     0.010 C 
HETATM   36  C   UNL     1      27.048  23.265  37.086  1.00  0.00     0.012 C 
HETATM   37  C   UNL     1      26.810  20.770  36.953  1.00  0.00     0.012 C 
ENDBRANCH  14  35
BRANCH  16  38
HETATM   38  C   UNL     1      26.364  20.563  28.933  1.00  0.00     0.016 C 
HETATM   39  C   UNL     1      25.969  20.531  30.408  1.00  0.00     0.012 C 
HETATM   40  C   UNL     1      26.673  19.154  28.431  1.00  0.00     0.012 C 
ENDBRANCH  16  38
BRANCH  18  41
HETATM   41  C   UNL     1      26.583  26.085  34.443  1.00  0.00     0.016 C 
HETATM   42  C   UNL     1      26.043  27.392  33.867  1.00  0.00     0.012 C 
HETATM   43  C   UNL     1      27.477  26.359  35.650  1.00  0.00     0.012 C 
ENDBRANCH  18  41
BRANCH  15  44
HETATM   44  C   UNL     1      26.670  26.187  28.807  1.00  0.00     0.010 C 
HETATM   45  C   UNL     1      25.364  26.936  28.554  1.00  0.00     0.012 C 
HETATM   46  C   UNL     1      27.347  25.824  27.489  1.00  0.00     0.012 C 
ENDBRANCH  15  44
TORSDOF 7
ENDMDL
MODEL 10
REMARK VINA RESULT:    -6.590      2.216      6.928
REMARK INTER + INTRA:          -8.297
REMARK INTER:                  -8.898
REMARK INTRA:                   0.601
REMARK UNBOUND:                 0.989
REMARK  7 active torsions:
REMARK  status: ('A' for Active; 'I' for Inactive)
REMARK    1  A    between atoms: C_13  and  C_14 
REMARK    2  A    between atoms: C_14  and  C_19 
REMARK    3  A    between atoms: C_15  and  C_20 
REMARK    4  A    between atoms: C_16  and  C_21 
REMARK    5  A    between atoms: C_17  and  C_23 
REMARK    6  A    between atoms: C_18  and  C_26 
REMARK    7  A    between atoms: C_22  and  C_28 
ROOT
HETATM    1  O   UNL     1      26.159  24.624  34.532  1.00  0.00    -0.304 OA
HETATM    2  O   UNL     1      29.363  20.668  33.361  1.00  0.00    -0.304 OA
HETATM    3  O   UNL     1      28.503  23.861  29.983  1.00  0.00    -0.304 OA
HETATM    4  O   UNL     1      26.456  21.174  34.585  1.00  0.00    -0.270 OA
HETATM    5  O   UNL     1      28.461  24.723  34.437  1.00  0.00    -0.263 OA
HETATM    6  O   UNL     1      25.934  23.118  32.435  1.00  0.00    -0.270 OA
HETATM    7  O   UNL     1      30.253  21.196  29.393  1.00  0.00    -0.270 OA
HETATM    8  O   UNL     1      31.031  19.118  33.670  1.00  0.00    -0.263 OA
HETATM    9  O   UNL     1      27.592  22.247  28.616  1.00  0.00    -0.263 OA
HETATM   10  N   UNL     1      28.220  22.188  35.701  1.00  0.00    -0.340 N 
HETATM   11  N   UNL     1      26.193  24.776  30.842  1.00  0.00    -0.340 N 
HETATM   12  N   UNL     1      30.697  22.068  31.503  1.00  0.00    -0.340 N 
HETATM   13  C   UNL     1      27.356  23.321  36.091  1.00  0.00     0.190 C 
HETATM   14  C   UNL     1      26.114  23.773  29.758  1.00  0.00     0.190 C 
HETATM   15  C   UNL     1      31.324  20.817  31.977  1.00  0.00     0.190 C 
HETATM   16  C   UNL     1      28.570  20.068  34.403  1.00  0.00     0.227 C 
HETATM   17  C   UNL     1      26.030  25.350  33.290  1.00  0.00     0.227 C 
HETATM   18  C   UNL     1      29.871  23.552  29.660  1.00  0.00     0.227 C 
HETATM   19  C   UNL     1      27.652  21.181  34.900  1.00  0.00     0.250 C 
HETATM   20  C   UNL     1      27.424  24.309  34.939  1.00  0.00     0.283 C 
HETATM   21  C   UNL     1      26.051  24.318  32.160  1.00  0.00     0.250 C 
HETATM   22  C   UNL     1      30.280  22.160  30.164  1.00  0.00     0.250 C 
HETATM   23  C   UNL     1      30.577  20.107  33.103  1.00  0.00     0.283 C 
HETATM   24  C   UNL     1      27.477  23.189  29.393  1.00  0.00     0.283 C 
HETATM   25  C   UNL     1      29.619  22.209  36.142  1.00  0.00     0.153 C 
HETATM   26  C   UNL     1      26.449  26.169  30.469  1.00  0.00     0.153 C 
HETATM   27  C   UNL     1      30.706  23.216  32.411  1.00  0.00     0.153 C 
ENDROOT
BRANCH  17  28
HETATM   28  C   UNL     1      24.689  26.068  33.337  1.00  0.00     0.016 C 
HETATM   29  C   UNL     1      23.825  25.524  34.474  1.00  0.00     0.012 C 
HETATM   30  C   UNL     1      24.888  27.575  33.490  1.00  0.00     0.012 C 
ENDBRANCH  17  28
BRANCH  13  31
HETATM   31  C   UNL     1      27.715  24.014  37.401  1.00  0.00     0.014 C 
HETATM   32  C   UNL     1      27.245  25.469  37.364  1.00  0.00     0.012 C 
BRANCH  31  33
HETATM   33  C   UNL     1      27.115  23.238  38.587  1.00  0.00     0.002 C 
HETATM   34  C   UNL     1      25.915  22.380  38.214  1.00  0.00     0.005 C 
ENDBRANCH  31  33
ENDBRANCH  13  31
BRANCH  14  35
HETATM   35  C   UNL     1      25.418  24.283  28.497  1.00  0.00     0.010 C 
HETATM   36  C   UNL     1      26.433  24.534  27.384  1.00  0.00     0.012 C 
HETATM   37  C   UNL     1      24.348  23.295  28.033  1.00  0.00     0.012 C 
ENDBRANCH  14  35
BRANCH  16  38
HETATM   38  C   UNL     1      27.777  18.906  33.808  1.00  0.00     0.016 C 
HETATM   39  C   UNL     1      28.258  17.575  34.383  1.00  0.00     0.012 C 
HETATM   40  C   UNL     1      27.889  18.903  32.285  1.00  0.00     0.012 C 
ENDBRANCH  16  38
BRANCH  18  41
HETATM   41  C   UNL     1      30.162  23.750  28.172  1.00  0.00     0.016 C 
HETATM   42  C   UNL     1      31.617  23.406  27.860  1.00  0.00     0.012 C 
HETATM   43  C   UNL     1      29.846  25.183  27.750  1.00  0.00     0.012 C 
ENDBRANCH  18  41
BRANCH  15  44
HETATM   44  C   UNL     1      32.787  21.041  32.363  1.00  0.00     0.010 C 
HETATM   45  C   UNL     1      33.674  19.962  31.746  1.00  0.00     0.012 C 
HETATM   46  C   UNL     1      32.942  21.063  33.881  1.00  0.00     0.012 C 
ENDBRANCH  15  44
TORSDOF 7
ENDMDL
MODEL 11
REMARK VINA RESULT:    -6.533      2.042      7.823
REMARK INTER + INTRA:          -8.217
REMARK INTER:                  -9.137
REMARK INTRA:                   0.920
REMARK UNBOUND:                 0.989
REMARK  7 active torsions:
REMARK  status: ('A' for Active; 'I' for Inactive)
REMARK    1  A    between atoms: C_13  and  C_14 
REMARK    2  A    between atoms: C_14  and  C_19 
REMARK    3  A    between atoms: C_15  and  C_20 
REMARK    4  A    between atoms: C_16  and  C_21 
REMARK    5  A    between atoms: C_17  and  C_23 
REMARK    6  A    between atoms: C_18  and  C_26 
REMARK    7  A    between atoms: C_22  and  C_28 
ROOT
HETATM    1  O   UNL     1      27.029  21.210  35.138  1.00  0.00    -0.304 OA
HETATM    2  O   UNL     1      26.814  25.834  32.716  1.00  0.00    -0.304 OA
HETATM    3  O   UNL     1      29.255  22.375  30.614  1.00  0.00    -0.304 OA
HETATM    4  O   UNL     1      27.533  24.609  35.577  1.00  0.00    -0.270 OA
HETATM    5  O   UNL     1      25.685  21.742  33.341  1.00  0.00    -0.263 OA
HETATM    6  O   UNL     1      29.090  22.498  34.237  1.00  0.00    -0.270 OA
HETATM    7  O   UNL     1      29.206  25.387  29.416  1.00  0.00    -0.270 OA
HETATM    8  O   UNL     1      25.891  27.794  31.952  1.00  0.00    -0.263 OA
HETATM    9  O   UNL     1      31.194  23.612  30.712  1.00  0.00    -0.263 OA
HETATM   10  N   UNL     1      25.394  24.170  34.791  1.00  0.00    -0.340 N 
HETATM   11  N   UNL     1      29.806  20.903  32.722  1.00  0.00    -0.340 N 
HETATM   12  N   UNL     1      27.135  24.768  30.277  1.00  0.00    -0.340 N 
HETATM   13  C   UNL     1      25.381  22.863  35.480  1.00  0.00     0.190 C 
HETATM   14  C   UNL     1      30.895  21.794  32.269  1.00  0.00     0.190 C 
HETATM   15  C   UNL     1      26.654  26.164  30.340  1.00  0.00     0.190 C 
HETATM   16  C   UNL     1      26.623  26.242  34.085  1.00  0.00     0.227 C 
HETATM   17  C   UNL     1      27.907  20.420  34.307  1.00  0.00     0.227 C 
HETATM   18  C   UNL     1      28.738  23.031  29.443  1.00  0.00     0.227 C 
HETATM   19  C   UNL     1      26.565  24.944  34.886  1.00  0.00     0.250 C 
HETATM   20  C   UNL     1      26.016  21.878  34.512  1.00  0.00     0.283 C 
HETATM   21  C   UNL     1      28.977  21.365  33.755  1.00  0.00     0.250 C 
HETATM   22  C   UNL     1      28.396  24.504  29.714  1.00  0.00     0.250 C 
HETATM   23  C   UNL     1      26.393  26.693  31.747  1.00  0.00     0.283 C 
HETATM   24  C   UNL     1      30.471  22.711  31.124  1.00  0.00     0.283 C 
HETATM   25  C   UNL     1      24.203  24.553  34.027  1.00  0.00     0.153 C 
HETATM   26  C   UNL     1      29.644  19.617  32.039  1.00  0.00     0.153 C 
HETATM   27  C   UNL     1      26.192  23.710  30.643  1.00  0.00     0.153 C 
ENDROOT
BRANCH  17  28
HETATM   28  C   UNL     1      28.534  19.365  35.207  1.00  0.00     0.016 C 
HETATM   29  C   UNL     1      28.528  19.826  36.664  1.00  0.00     0.012 C 
HETATM   30  C   UNL     1      27.804  18.030  35.065  1.00  0.00     0.012 C 
ENDBRANCH  17  28
BRANCH  13  31
HETATM   31  C   UNL     1      24.014  22.356  35.925  1.00  0.00     0.014 C 
HETATM   32  C   UNL     1      23.858  20.882  35.546  1.00  0.00     0.012 C 
BRANCH  31  33
HETATM   33  C   UNL     1      23.832  22.593  37.435  1.00  0.00     0.002 C 
HETATM   34  C   UNL     1      24.841  21.847  38.298  1.00  0.00     0.005 C 
ENDBRANCH  31  33
ENDBRANCH  13  31
BRANCH  14  35
HETATM   35  C   UNL     1      32.177  21.054  31.888  1.00  0.00     0.010 C 
HETATM   36  C   UNL     1      32.360  21.036  30.372  1.00  0.00     0.012 C 
HETATM   37  C   UNL     1      33.390  21.693  32.565  1.00  0.00     0.012 C 
ENDBRANCH  14  35
BRANCH  16  38
HETATM   38  C   UNL     1      27.803  27.113  34.507  1.00  0.00     0.016 C 
HETATM   39  C   UNL     1      27.418  28.591  34.487  1.00  0.00     0.012 C 
HETATM   40  C   UNL     1      29.008  26.862  33.601  1.00  0.00     0.012 C 
ENDBRANCH  16  38
BRANCH  18  41
HETATM   41  C   UNL     1      29.660  22.852  28.237  1.00  0.00     0.016 C 
HETATM   42  C   UNL     1      29.221  23.756  27.087  1.00  0.00     0.012 C 
HETATM   43  C   UNL     1      29.684  21.391  27.793  1.00  0.00     0.012 C 
ENDBRANCH  18  41
BRANCH  15  44
HETATM   44  C   UNL     1      25.424  26.368  29.454  1.00  0.00     0.010 C 
HETATM   45  C   UNL     1      25.636  27.545  28.507  1.00  0.00     0.012 C 
HETATM   46  C   UNL     1      24.179  26.583  30.311  1.00  0.00     0.012 C 
ENDBRANCH  15  44
TORSDOF 7
ENDMDL
MODEL 12
REMARK VINA RESULT:    -6.456      2.094      4.802
REMARK INTER + INTRA:          -8.108
REMARK INTER:                  -8.875
REMARK INTRA:                   0.766
REMARK UNBOUND:                 0.989
REMARK  7 active torsions:
REMARK  status: ('A' for Active; 'I' for Inactive)
REMARK    1  A    between atoms: C_13  and  C_14 
REMARK    2  A    between atoms: C_14  and  C_19 
REMARK    3  A    between atoms: C_15  and  C_20 
REMARK    4  A    between atoms: C_16  and  C_21 
REMARK    5  A    between atoms: C_17  and  C_23 
REMARK    6  A    between atoms: C_18  and  C_26 
REMARK    7  A    between atoms: C_22  and  C_28 
ROOT
HETATM    1  O   UNL     1      28.652  22.993  29.442  1.00  0.00    -0.304 OA
HETATM    2  O   UNL     1      29.245  21.091  34.271  1.00  0.00    -0.304 OA
HETATM    3  O   UNL     1      26.308  24.751  33.706  1.00  0.00    -0.304 OA
HETATM    4  O   UNL     1      31.015  22.128  31.822  1.00  0.00    -0.270 OA
HETATM    5  O   UNL     1      27.175  21.611  30.548  1.00  0.00    -0.263 OA
HETATM    6  O   UNL     1      29.195  24.425  31.532  1.00  0.00    -0.270 OA
HETATM    7  O   UNL     1      27.017  23.583  36.646  1.00  0.00    -0.270 OA
HETATM    8  O   UNL     1      29.485  19.508  35.919  1.00  0.00    -0.263 OA
HETATM    9  O   UNL     1      27.579  26.057  35.113  1.00  0.00    -0.263 OA
HETATM   10  N   UNL     1      29.589  20.354  31.367  1.00  0.00    -0.340 N 
HETATM   11  N   UNL     1      27.302  25.754  31.488  1.00  0.00    -0.340 N 
HETATM   12  N   UNL     1      26.811  21.884  35.070  1.00  0.00    -0.340 N 
HETATM   13  C   UNL     1      29.406  20.823  29.979  1.00  0.00     0.190 C 
HETATM   14  C   UNL     1      27.724  26.429  32.734  1.00  0.00     0.190 C 
HETATM   15  C   UNL     1      27.508  20.898  35.923  1.00  0.00     0.190 C 
HETATM   16  C   UNL     1      30.502  20.709  33.679  1.00  0.00     0.227 C 
HETATM   17  C   UNL     1      27.788  24.136  29.619  1.00  0.00     0.227 C 
HETATM   18  C   UNL     1      25.610  24.062  34.759  1.00  0.00     0.227 C 
HETATM   19  C   UNL     1      30.400  21.129  32.215  1.00  0.00     0.250 C 
HETATM   20  C   UNL     1      28.262  21.822  30.027  1.00  0.00     0.283 C 
HETATM   21  C   UNL     1      28.157  24.776  30.960  1.00  0.00     0.250 C 
HETATM   22  C   UNL     1      26.551  23.167  35.580  1.00  0.00     0.250 C 
HETATM   23  C   UNL     1      28.845  20.404  35.377  1.00  0.00     0.283 C 
HETATM   24  C   UNL     1      27.216  25.724  33.990  1.00  0.00     0.283 C 
HETATM   25  C   UNL     1      28.885  19.134  31.777  1.00  0.00     0.153 C 
HETATM   26  C   UNL     1      26.007  26.126  30.912  1.00  0.00     0.153 C 
HETATM   27  C   UNL     1      26.266  21.411  33.796  1.00  0.00     0.153 C 
ENDROOT
BRANCH  17  28
HETATM   28  C   UNL     1      28.079  25.091  28.470  1.00  0.00     0.016 C 
HETATM   29  C   UNL     1      29.380  24.706  27.765  1.00  0.00     0.012 C 
HETATM   30  C   UNL     1      26.918  25.110  27.477  1.00  0.00     0.012 C 
ENDBRANCH  17  28
BRANCH  13  31
HETATM   31  C   UNL     1      29.118  19.744  28.941  1.00  0.00     0.014 C 
HETATM   32  C   UNL     1      27.977  20.193  28.026  1.00  0.00     0.012 C 
BRANCH  31  33
HETATM   33  C   UNL     1      30.400  19.414  28.156  1.00  0.00     0.002 C 
HETATM   34  C   UNL     1      31.576  20.318  28.498  1.00  0.00     0.005 C 
ENDBRANCH  31  33
ENDBRANCH  13  31
BRANCH  14  35
HETATM   35  C   UNL     1      27.350  27.910  32.789  1.00  0.00     0.010 C 
HETATM   36  C   UNL     1      26.097  28.120  33.638  1.00  0.00     0.012 C 
HETATM   37  C   UNL     1      28.511  28.741  33.335  1.00  0.00     0.012 C 
ENDBRANCH  14  35
BRANCH  16  38
HETATM   38  C   UNL     1      31.627  21.445  34.401  1.00  0.00     0.016 C 
HETATM   39  C   UNL     1      32.555  20.456  35.104  1.00  0.00     0.012 C 
HETATM   40  C   UNL     1      31.058  22.450  35.401  1.00  0.00     0.012 C 
ENDBRANCH  16  38
BRANCH  18  41
HETATM   41  C   UNL     1      24.801  25.022  35.629  1.00  0.00     0.016 C 
HETATM   42  C   UNL     1      24.054  24.259  36.720  1.00  0.00     0.012 C 
HETATM   43  C   UNL     1      23.825  25.828  34.773  1.00  0.00     0.012 C 
ENDBRANCH  18  41
BRANCH  15  44
HETATM   44  C   UNL     1      26.599  19.717  36.263  1.00  0.00     0.010 C 
HETATM   45  C   UNL     1      26.716  19.360  37.742  1.00  0.00     0.012 C 
HETATM   46  C   UNL     1      26.939  18.513  35.389  1.00  0.00     0.012 C 
ENDBRANCH  15  44
TORSDOF 7
ENDMDL
MODEL 13
REMARK VINA RESULT:    -6.406      2.704      7.284
REMARK INTER + INTRA:          -8.038
REMARK INTER:                  -8.767
REMARK INTRA:                   0.729
REMARK UNBOUND:                 0.989
REMARK  7 active torsions:
REMARK  status: ('A' for Active; 'I' for Inactive)
REMARK    1  A    between atoms: C_13  and  C_14 
REMARK    2  A    between atoms: C_14  and  C_19 
REMARK    3  A    between atoms: C_15  and  C_20 
REMARK    4  A    between atoms: C_16  and  C_21 
REMARK    5  A    between atoms: C_17  and  C_23 
REMARK    6  A    between atoms: C_18  and  C_26 
REMARK    7  A    between atoms: C_22  and  C_28 
ROOT
HETATM    1  O   UNL     1      26.579  23.773  33.100  1.00  0.00    -0.304 OA
HETATM    2  O   UNL     1      30.537  20.786  34.743  1.00  0.00    -0.304 OA
HETATM    3  O   UNL     1      29.645  20.878  30.102  1.00  0.00    -0.304 OA
HETATM    4  O   UNL     1      27.442  21.286  35.352  1.00  0.00    -0.270 OA
HETATM    5  O   UNL     1      28.821  24.296  32.970  1.00  0.00    -0.263 OA
HETATM    6  O   UNL     1      26.913  21.285  32.454  1.00  0.00    -0.270 OA
HETATM    7  O   UNL     1      31.884  18.900  31.360  1.00  0.00    -0.270 OA
HETATM    8  O   UNL     1      32.379  20.186  35.978  1.00  0.00    -0.263 OA
HETATM    9  O   UNL     1      29.224  18.615  30.084  1.00  0.00    -0.263 OA
HETATM   10  N   UNL     1      28.832  23.133  35.563  1.00  0.00    -0.340 N 
HETATM   11  N   UNL     1      27.115  21.590  30.170  1.00  0.00    -0.340 N 
HETATM   12  N   UNL     1      31.868  20.969  32.423  1.00  0.00    -0.340 N 
HETATM   13  C   UNL     1      27.742  24.035  35.135  1.00  0.00     0.190 C 
HETATM   14  C   UNL     1      27.362  20.144  29.980  1.00  0.00     0.190 C 
HETATM   15  C   UNL     1      32.623  20.467  33.590  1.00  0.00     0.190 C 
HETATM   16  C   UNL     1      29.715  20.811  35.926  1.00  0.00     0.227 C 
HETATM   17  C   UNL     1      26.509  23.513  31.681  1.00  0.00     0.227 C 
HETATM   18  C   UNL     1      31.077  20.747  30.055  1.00  0.00     0.227 C 
HETATM   19  C   UNL     1      28.561  21.753  35.592  1.00  0.00     0.250 C 
HETATM   20  C   UNL     1      27.807  24.070  33.618  1.00  0.00     0.283 C 
HETATM   21  C   UNL     1      26.865  22.038  31.475  1.00  0.00     0.250 C 
HETATM   22  C   UNL     1      31.638  20.110  31.335  1.00  0.00     0.250 C 
HETATM   23  C   UNL     1      31.852  20.473  34.907  1.00  0.00     0.283 C 
HETATM   24  C   UNL     1      28.842  19.780  30.077  1.00  0.00     0.283 C 
HETATM   25  C   UNL     1      30.128  23.733  35.892  1.00  0.00     0.153 C 
HETATM   26  C   UNL     1      27.184  22.457  28.992  1.00  0.00     0.153 C 
HETATM   27  C   UNL     1      31.554  22.398  32.384  1.00  0.00     0.153 C 
ENDROOT
BRANCH  17  28
HETATM   28  C   UNL     1      25.073  23.783  31.254  1.00  0.00     0.016 C 
HETATM   29  C   UNL     1      24.195  24.078  32.470  1.00  0.00     0.012 C 
HETATM   30  C   UNL     1      25.015  24.942  30.259  1.00  0.00     0.012 C 
ENDBRANCH  17  28
BRANCH  13  31
HETATM   31  C   UNL     1      27.788  25.451  35.698  1.00  0.00     0.014 C 
HETATM   32  C   UNL     1      27.007  26.398  34.784  1.00  0.00     0.012 C 
BRANCH  31  33
HETATM   33  C   UNL     1      27.253  25.460  37.141  1.00  0.00     0.002 C 
HETATM   34  C   UNL     1      26.000  24.618  37.336  1.00  0.00     0.005 C 
ENDBRANCH  31  33
ENDBRANCH  13  31
BRANCH  14  35
HETATM   35  C   UNL     1      26.778  19.585  28.683  1.00  0.00     0.010 C 
HETATM   36  C   UNL     1      27.882  19.332  27.659  1.00  0.00     0.012 C 
HETATM   37  C   UNL     1      25.994  18.301  28.953  1.00  0.00     0.012 C 
ENDBRANCH  14  35
BRANCH  16  38
HETATM   38  C   UNL     1      29.223  19.395  36.211  1.00  0.00     0.016 C 
HETATM   39  C   UNL     1      29.864  18.847  37.485  1.00  0.00     0.012 C 
HETATM   40  C   UNL     1      29.514  18.475  35.027  1.00  0.00     0.012 C 
ENDBRANCH  16  38
BRANCH  18  41
HETATM   41  C   UNL     1      31.541  20.031  28.787  1.00  0.00     0.016 C 
HETATM   42  C   UNL     1      33.059  19.863  28.790  1.00  0.00     0.012 C 
HETATM   43  C   UNL     1      31.088  20.793  27.544  1.00  0.00     0.012 C 
ENDBRANCH  18  41
BRANCH  15  44
HETATM   44  C   UNL     1      33.957  21.198  33.746  1.00  0.00     0.010 C 
HETATM   45  C   UNL     1      34.509  21.600  32.381  1.00  0.00     0.012 C 
HETATM   46  C   UNL     1      34.959  20.327  34.498  1.00  0.00     0.012 C 
ENDBRANCH  15  44
TORSDOF 7
ENDMDL
MODEL 14
REMARK VINA RESULT:    -6.370      2.269      6.350
REMARK INTER + INTRA:          -7.987
REMARK INTER:                  -8.657
REMARK INTRA:                   0.670
REMARK UNBOUND:                 0.989
REMARK  7 active torsions:
REMARK  status: ('A' for Active; 'I' for Inactive)
REMARK    1  A    between atoms: C_13  and  C_14 
REMARK    2  A    between atoms: C_14  and  C_19 
REMARK    3  A    between atoms: C_15  and  C_20 
REMARK    4  A    between atoms: C_16  and  C_21 
REMARK    5  A    between atoms: C_17  and  C_23 
REMARK    6  A    between atoms: C_18  and  C_26 
REMARK    7  A    between atoms: C_22  and  C_28 
ROOT
HETATM    1  O   UNL     1      30.936  20.815  31.305  1.00  0.00    -0.304 OA
HETATM    2  O   UNL     1      26.875  24.069  30.849  1.00  0.00    -0.304 OA
HETATM    3  O   UNL     1      27.718  22.205  35.111  1.00  0.00    -0.304 OA
HETATM    4  O   UNL     1      28.073  21.452  29.463  1.00  0.00    -0.270 OA
HETATM    5  O   UNL     1      30.884  23.023  31.966  1.00  0.00    -0.263 OA
HETATM    6  O   UNL     1      28.536  20.299  32.134  1.00  0.00    -0.270 OA
HETATM    7  O   UNL     1      25.107  24.042  34.549  1.00  0.00    -0.270 OA
HETATM    8  O   UNL     1      25.691  25.907  30.144  1.00  0.00    -0.263 OA
HETATM    9  O   UNL     1      25.653  21.188  35.133  1.00  0.00    -0.263 OA
HETATM   10  N   UNL     1      29.470  23.305  29.516  1.00  0.00    -0.340 N 
HETATM   11  N   UNL     1      29.037  20.052  34.379  1.00  0.00    -0.340 N 
HETATM   12  N   UNL     1      26.978  24.836  33.417  1.00  0.00    -0.340 N 
HETATM   13  C   UNL     1      30.661  22.437  29.614  1.00  0.00     0.190 C 
HETATM   14  C   UNL     1      27.607  19.844  34.694  1.00  0.00     0.190 C 
HETATM   15  C   UNL     1      26.170  25.669  32.501  1.00  0.00     0.190 C 
HETATM   16  C   UNL     1      26.974  23.577  29.499  1.00  0.00     0.227 C 
HETATM   17  C   UNL     1      30.866  20.356  32.673  1.00  0.00     0.227 C 
HETATM   18  C   UNL     1      27.234  23.497  35.520  1.00  0.00     0.227 C 
HETATM   19  C   UNL     1      28.210  22.681  29.488  1.00  0.00     0.250 C 
HETATM   20  C   UNL     1      30.851  22.162  31.097  1.00  0.00     0.283 C 
HETATM   21  C   UNL     1      29.382  20.238  33.032  1.00  0.00     0.250 C 
HETATM   22  C   UNL     1      26.334  24.138  34.453  1.00  0.00     0.250 C 
HETATM   23  C   UNL     1      26.222  25.250  31.034  1.00  0.00     0.283 C 
HETATM   24  C   UNL     1      26.870  21.149  34.988  1.00  0.00     0.283 C 
HETATM   25  C   UNL     1      29.680  24.756  29.493  1.00  0.00     0.153 C 
HETATM   26  C   UNL     1      29.986  20.085  35.493  1.00  0.00     0.153 C 
HETATM   27  C   UNL     1      28.434  24.925  33.306  1.00  0.00     0.153 C 
ENDROOT
BRANCH  17  28
HETATM   28  C   UNL     1      31.539  18.991  32.714  1.00  0.00     0.016 C 
HETATM   29  C   UNL     1      31.632  18.393  31.311  1.00  0.00     0.012 C 
HETATM   30  C   UNL     1      32.926  19.092  33.346  1.00  0.00     0.012 C 
ENDBRANCH  17  28
BRANCH  13  31
HETATM   31  C   UNL     1      31.946  22.995  29.013  1.00  0.00     0.014 C 
HETATM   32  C   UNL     1      33.146  22.188  29.511  1.00  0.00     0.012 C 
BRANCH  31  33
HETATM   33  C   UNL     1      31.846  23.005  27.477  1.00  0.00     0.002 C 
HETATM   34  C   UNL     1      31.398  21.677  26.884  1.00  0.00     0.005 C 
ENDBRANCH  31  33
ENDBRANCH  13  31
BRANCH  14  35
HETATM   35  C   UNL     1      27.366  18.849  35.830  1.00  0.00     0.010 C 
HETATM   36  C   UNL     1      26.838  19.565  37.071  1.00  0.00     0.012 C 
HETATM   37  C   UNL     1      26.395  17.753  35.391  1.00  0.00     0.012 C 
ENDBRANCH  14  35
BRANCH  16  38
HETATM   38  C   UNL     1      25.706  22.794  29.169  1.00  0.00     0.016 C 
HETATM   39  C   UNL     1      24.779  23.619  28.278  1.00  0.00     0.012 C 
HETATM   40  C   UNL     1      24.985  22.373  30.448  1.00  0.00     0.012 C 
ENDBRANCH  16  38
BRANCH  18  41
HETATM   41  C   UNL     1      26.573  23.446  36.897  1.00  0.00     0.016 C 
HETATM   42  C   UNL     1      26.062  24.828  37.298  1.00  0.00     0.012 C 
HETATM   43  C   UNL     1      27.549  22.911  37.942  1.00  0.00     0.012 C 
ENDBRANCH  18  41
BRANCH  15  44
HETATM   44  C   UNL     1      26.517  27.151  32.647  1.00  0.00     0.010 C 
HETATM   45  C   UNL     1      25.255  27.973  32.894  1.00  0.00     0.012 C 
HETATM   46  C   UNL     1      27.253  27.652  31.408  1.00  0.00     0.012 C 
ENDBRANCH  15  44
TORSDOF 7
ENDMDL
MODEL 15
REMARK VINA RESULT:    -6.318      1.923      6.814
REMARK INTER + INTRA:          -7.914
REMARK INTER:                  -9.524
REMARK INTRA:                   1.610
REMARK UNBOUND:                 0.989
REMARK  7 active torsions:
REMARK  status: ('A' for Active; 'I' for Inactive)
REMARK    1  A    between atoms: C_13  and  C_14 
REMARK    2  A    between atoms: C_14  and  C_19 
REMARK    3  A    between atoms: C_15  and  C_20 
REMARK    4  A    between atoms: C_16  and  C_21 
REMARK    5  A    between atoms: C_17  and  C_23 
REMARK    6  A    between atoms: C_18  and  C_26 
REMARK    7  A    between atoms: C_22  and  C_28 
ROOT
HETATM    1  O   UNL     1      26.323  24.953  34.223  1.00  0.00    -0.304 OA
HETATM    2  O   UNL     1      28.705  20.507  32.861  1.00  0.00    -0.304 OA
HETATM    3  O   UNL     1      28.909  24.119  29.818  1.00  0.00    -0.304 OA
HETATM    4  O   UNL     1      25.864  21.535  33.897  1.00  0.00    -0.270 OA
HETATM    5  O   UNL     1      28.590  24.539  34.325  1.00  0.00    -0.263 OA
HETATM    6  O   UNL     1      25.999  23.744  31.953  1.00  0.00    -0.270 OA
HETATM    7  O   UNL     1      30.095  21.198  29.065  1.00  0.00    -0.270 OA
HETATM    8  O   UNL     1      29.958  18.599  33.121  1.00  0.00    -0.263 OA
HETATM    9  O   UNL     1      27.819  22.890  28.205  1.00  0.00    -0.263 OA
HETATM   10  N   UNL     1      27.679  22.015  35.262  1.00  0.00    -0.340 N 
HETATM   11  N   UNL     1      26.773  25.445  30.590  1.00  0.00    -0.340 N 
HETATM   12  N   UNL     1      30.494  21.742  31.292  1.00  0.00    -0.340 N 
HETATM   13  C   UNL     1      27.043  23.270  35.711  1.00  0.00     0.190 C 
HETATM   14  C   UNL     1      26.594  24.593  29.394  1.00  0.00     0.190 C 
HETATM   15  C   UNL     1      30.785  20.342  31.666  1.00  0.00     0.190 C 
HETATM   16  C   UNL     1      27.697  20.004  33.759  1.00  0.00     0.227 C 
HETATM   17  C   UNL     1      26.484  25.805  33.067  1.00  0.00     0.227 C 
HETATM   18  C   UNL     1      30.204  23.542  29.572  1.00  0.00     0.227 C 
HETATM   19  C   UNL     1      26.994  21.243  34.307  1.00  0.00     0.250 C 
HETATM   20  C   UNL     1      27.442  24.324  34.690  1.00  0.00     0.283 C 
HETATM   21  C   UNL     1      26.400  24.906  31.830  1.00  0.00     0.250 C 
HETATM   22  C   UNL     1      30.248  22.052  29.943  1.00  0.00     0.250 C 
HETATM   23  C   UNL     1      29.790  19.714  32.638  1.00  0.00     0.283 C 
HETATM   24  C   UNL     1      27.829  23.755  29.074  1.00  0.00     0.283 C 
HETATM   25  C   UNL     1      28.995  21.678  35.814  1.00  0.00     0.153 C 
HETATM   26  C   UNL     1      27.360  26.773  30.403  1.00  0.00     0.153 C 
HETATM   27  C   UNL     1      30.656  22.766  32.324  1.00  0.00     0.153 C 
ENDROOT
BRANCH  17  28
HETATM   28  C   UNL     1      25.331  26.798  33.089  1.00  0.00     0.016 C 
HETATM   29  C   UNL     1      24.182  26.272  33.947  1.00  0.00     0.012 C 
HETATM   30  C   UNL     1      25.801  28.159  33.600  1.00  0.00     0.012 C 
ENDBRANCH  17  28
BRANCH  13  31
HETATM   31  C   UNL     1      27.404  23.737  37.117  1.00  0.00     0.014 C 
HETATM   32  C   UNL     1      27.150  25.239  37.247  1.00  0.00     0.012 C 
BRANCH  31  33
HETATM   33  C   UNL     1      26.620  22.919  38.159  1.00  0.00     0.002 C 
HETATM   34  C   UNL     1      25.235  22.497  37.689  1.00  0.00     0.005 C 
ENDBRANCH  31  33
ENDBRANCH  13  31
BRANCH  14  35
HETATM   35  C   UNL     1      26.159  25.366  28.149  1.00  0.00     0.010 C 
HETATM   36  C   UNL     1      25.342  26.597  28.535  1.00  0.00     0.012 C 
HETATM   37  C   UNL     1      27.372  25.770  27.312  1.00  0.00     0.012 C 
ENDBRANCH  14  35
BRANCH  16  38
HETATM   38  C   UNL     1      26.739  19.113  32.972  1.00  0.00     0.016 C 
HETATM   39  C   UNL     1      26.878  17.656  33.406  1.00  0.00     0.012 C 
HETATM   40  C   UNL     1      26.988  19.250  31.470  1.00  0.00     0.012 C 
ENDBRANCH  16  38
BRANCH  18  41
HETATM   41  C   UNL     1      30.684  23.810  28.146  1.00  0.00     0.016 C 
HETATM   42  C   UNL     1      31.978  23.051  27.864  1.00  0.00     0.012 C 
HETATM   43  C   UNL     1      30.879  25.308  27.919  1.00  0.00     0.012 C 
ENDBRANCH  18  41
BRANCH  15  44
HETATM   44  C   UNL     1      32.214  20.193  32.191  1.00  0.00     0.010 C 
HETATM   45  C   UNL     1      32.352  20.854  33.559  1.00  0.00     0.012 C 
HETATM   46  C   UNL     1      33.211  20.787  31.201  1.00  0.00     0.012 C 
ENDBRANCH  15  44
TORSDOF 7
ENDMDL
MODEL 16
REMARK VINA RESULT:    -6.175      2.432      4.844
REMARK INTER + INTRA:          -7.713
REMARK INTER:                  -8.938
REMARK INTRA:                   1.226
REMARK UNBOUND:                 0.989
REMARK  7 active torsions:
REMARK  status: ('A' for Active; 'I' for Inactive)
REMARK    1  A    between atoms: C_13  and  C_14 
REMARK    2  A    between atoms: C_14  and  C_19 
REMARK    3  A    between atoms: C_15  and  C_20 
REMARK    4  A    between atoms: C_16  and  C_21 
REMARK    5  A    between atoms: C_17  and  C_23 
REMARK    6  A    between atoms: C_18  and  C_26 
REMARK    7  A    between atoms: C_22  and  C_28 
ROOT
HETATM    1  O   UNL     1      26.738  21.895  29.649  1.00  0.00    -0.304 OA
HETATM    2  O   UNL     1      30.110  20.390  33.345  1.00  0.00    -0.304 OA
HETATM    3  O   UNL     1      26.914  23.675  34.505  1.00  0.00    -0.304 OA
HETATM    4  O   UNL     1      30.104  21.444  30.329  1.00  0.00    -0.270 OA
HETATM    5  O   UNL     1      26.294  20.441  31.383  1.00  0.00    -0.263 OA
HETATM    6  O   UNL     1      28.153  23.512  31.098  1.00  0.00    -0.270 OA
HETATM    7  O   UNL     1      29.256  22.785  36.562  1.00  0.00    -0.270 OA
HETATM    8  O   UNL     1      31.409  18.955  34.583  1.00  0.00    -0.263 OA
HETATM    9  O   UNL     1      28.574  25.197  34.981  1.00  0.00    -0.263 OA
HETATM   10  N   UNL     1      28.897  19.503  30.731  1.00  0.00    -0.340 N 
HETATM   11  N   UNL     1      26.397  24.628  32.109  1.00  0.00    -0.340 N 
HETATM   12  N   UNL     1      28.435  20.973  35.356  1.00  0.00    -0.340 N 
HETATM   13  C   UNL     1      27.926  19.857  29.675  1.00  0.00     0.190 C 
HETATM   14  C   UNL     1      27.344  25.425  32.918  1.00  0.00     0.190 C 
HETATM   15  C   UNL     1      29.601  20.125  35.680  1.00  0.00     0.190 C 
HETATM   16  C   UNL     1      30.873  20.105  32.157  1.00  0.00     0.227 C 
HETATM   17  C   UNL     1      25.977  22.950  30.277  1.00  0.00     0.227 C 
HETATM   18  C   UNL     1      26.999  22.986  35.765  1.00  0.00     0.227 C 
HETATM   19  C   UNL     1      29.935  20.414  30.993  1.00  0.00     0.250 C 
HETATM   20  C   UNL     1      26.882  20.731  30.349  1.00  0.00     0.283 C 
HETATM   21  C   UNL     1      26.937  23.712  31.194  1.00  0.00     0.250 C 
HETATM   22  C   UNL     1      28.339  22.253  35.929  1.00  0.00     0.250 C 
HETATM   23  C   UNL     1      30.470  19.740  34.486  1.00  0.00     0.283 C 
HETATM   24  C   UNL     1      27.700  24.754  34.243  1.00  0.00     0.283 C 
HETATM   25  C   UNL     1      28.691  18.246  31.457  1.00  0.00     0.153 C 
HETATM   26  C   UNL     1      24.964  24.822  32.344  1.00  0.00     0.153 C 
HETATM   27  C   UNL     1      27.346  20.362  34.593  1.00  0.00     0.153 C 
ENDROOT
BRANCH  17  28
HETATM   28  C   UNL     1      25.470  23.851  29.161  1.00  0.00     0.016 C 
HETATM   29  C   UNL     1      26.560  24.078  28.114  1.00  0.00     0.012 C 
HETATM   30  C   UNL     1      24.221  23.257  28.512  1.00  0.00     0.012 C 
ENDBRANCH  17  28
BRANCH  13  31
HETATM   31  C   UNL     1      27.255  18.687  28.965  1.00  0.00     0.014 C 
HETATM   32  C   UNL     1      25.752  18.700  29.250  1.00  0.00     0.012 C 
BRANCH  31  33
HETATM   33  C   UNL     1      27.564  18.739  27.459  1.00  0.00     0.002 C 
HETATM   34  C   UNL     1      28.774  19.595  27.111  1.00  0.00     0.005 C 
ENDBRANCH  31  33
ENDBRANCH  13  31
BRANCH  14  35
HETATM   35  C   UNL     1      26.880  26.858  33.175  1.00  0.00     0.010 C 
HETATM   36  C   UNL     1      27.157  27.265  34.620  1.00  0.00     0.012 C 
HETATM   37  C   UNL     1      27.559  27.827  32.207  1.00  0.00     0.012 C 
ENDBRANCH  14  35
BRANCH  16  38
HETATM   38  C   UNL     1      32.108  21.003  32.140  1.00  0.00     0.016 C 
HETATM   39  C   UNL     1      33.378  20.176  32.335  1.00  0.00     0.012 C 
HETATM   40  C   UNL     1      32.003  22.083  33.215  1.00  0.00     0.012 C 
ENDBRANCH  16  38
BRANCH  18  41
HETATM   41  C   UNL     1      26.686  23.912  36.940  1.00  0.00     0.016 C 
HETATM   42  C   UNL     1      26.727  23.140  38.257  1.00  0.00     0.012 C 
HETATM   43  C   UNL     1      25.325  24.578  36.750  1.00  0.00     0.012 C 
ENDBRANCH  18  41
BRANCH  15  44
HETATM   44  C   UNL     1      29.182  18.879  36.462  1.00  0.00     0.010 C 
HETATM   45  C   UNL     1      28.045  19.210  37.425  1.00  0.00     0.012 C 
HETATM   46  C   UNL     1      30.374  18.296  37.215  1.00  0.00     0.012 C 
ENDBRANCH  15  44
TORSDOF 7
ENDMDL
MODEL 17
REMARK VINA RESULT:    -6.125      2.968      8.232
REMARK INTER + INTRA:          -7.643
REMARK INTER:                  -8.787
REMARK INTRA:                   1.145
REMARK UNBOUND:                 0.989
REMARK  7 active torsions:
REMARK  status: ('A' for Active; 'I' for Inactive)
REMARK    1  A    between atoms: C_13  and  C_14 
REMARK    2  A    between atoms: C_14  and  C_19 
REMARK    3  A    between atoms: C_15  and  C_20 
REMARK    4  A    between atoms: C_16  and  C_21 
REMARK    5  A    between atoms: C_17  and  C_23 
REMARK    6  A    between atoms: C_18  and  C_26 
REMARK    7  A    between atoms: C_22  and  C_28 
ROOT
HETATM    1  O   UNL     1      29.348  20.399  36.553  1.00  0.00    -0.304 OA
HETATM    2  O   UNL     1      27.226  23.844  33.248  1.00  0.00    -0.304 OA
HETATM    3  O   UNL     1      30.500  20.897  31.533  1.00  0.00    -0.304 OA
HETATM    4  O   UNL     1      28.645  23.761  36.109  1.00  0.00    -0.270 OA
HETATM    5  O   UNL     1      27.715  19.952  34.988  1.00  0.00    -0.263 OA
HETATM    6  O   UNL     1      30.699  21.968  34.994  1.00  0.00    -0.270 OA
HETATM    7  O   UNL     1      29.243  23.275  29.724  1.00  0.00    -0.270 OA
HETATM    8  O   UNL     1      25.584  25.113  32.264  1.00  0.00    -0.263 OA
HETATM    9  O   UNL     1      31.865  22.660  30.963  1.00  0.00    -0.263 OA
HETATM   10  N   UNL     1      26.733  22.464  35.884  1.00  0.00    -0.340 N 
HETATM   11  N   UNL     1      31.768  20.326  33.764  1.00  0.00    -0.340 N 
HETATM   12  N   UNL     1      27.639  22.298  31.097  1.00  0.00    -0.340 N 
HETATM   13  C   UNL     1      27.265  21.468  36.837  1.00  0.00     0.190 C 
HETATM   14  C   UNL     1      32.409  21.353  32.915  1.00  0.00     0.190 C 
HETATM   15  C   UNL     1      26.700  23.428  30.939  1.00  0.00     0.190 C 
HETATM   16  C   UNL     1      27.052  24.535  34.501  1.00  0.00     0.227 C 
HETATM   17  C   UNL     1      30.354  19.729  35.763  1.00  0.00     0.227 C 
HETATM   18  C   UNL     1      29.657  21.000  30.371  1.00  0.00     0.227 C 
HETATM   19  C   UNL     1      27.551  23.564  35.567  1.00  0.00     0.250 C 
HETATM   20  C   UNL     1      28.101  20.507  36.008  1.00  0.00     0.283 C 
HETATM   21  C   UNL     1      30.947  20.771  34.811  1.00  0.00     0.250 C 
HETATM   22  C   UNL     1      28.841  22.301  30.368  1.00  0.00     0.250 C 
HETATM   23  C   UNL     1      26.422  24.218  32.215  1.00  0.00     0.283 C 
HETATM   24  C   UNL     1      31.562  21.730  31.702  1.00  0.00     0.283 C 
HETATM   25  C   UNL     1      25.408  22.220  35.306  1.00  0.00     0.153 C 
HETATM   26  C   UNL     1      32.004  18.919  33.433  1.00  0.00     0.153 C 
HETATM   27  C   UNL     1      27.184  21.142  31.870  1.00  0.00     0.153 C 
ENDROOT
BRANCH  17  28
HETATM   28  C   UNL     1      31.413  19.224  36.733  1.00  0.00     0.016 C 
HETATM   29  C   UNL     1      31.975  20.375  37.565  1.00  0.00     0.012 C 
HETATM   30  C   UNL     1      30.837  18.138  37.642  1.00  0.00     0.012 C 
ENDBRANCH  17  28
BRANCH  13  31
HETATM   31  C   UNL     1      26.228  20.699  37.648  1.00  0.00     0.014 C 
HETATM   32  C   UNL     1      26.830  19.386  38.150  1.00  0.00     0.012 C 
BRANCH  31  33
HETATM   33  C   UNL     1      25.703  21.578  38.797  1.00  0.00     0.002 C 
HETATM   34  C   UNL     1      25.306  20.790  40.038  1.00  0.00     0.005 C 
ENDBRANCH  31  33
ENDBRANCH  13  31
BRANCH  14  35
HETATM   35  C   UNL     1      33.822  20.984  32.462  1.00  0.00     0.010 C 
HETATM   36  C   UNL     1      34.206  21.760  31.205  1.00  0.00     0.012 C 
HETATM   37  C   UNL     1      34.832  21.242  33.580  1.00  0.00     0.012 C 
ENDBRANCH  14  35
BRANCH  16  38
HETATM   38  C   UNL     1      27.881  25.817  34.472  1.00  0.00     0.016 C 
HETATM   39  C   UNL     1      26.973  27.044  34.417  1.00  0.00     0.012 C 
HETATM   40  C   UNL     1      28.844  25.809  33.286  1.00  0.00     0.012 C 
ENDBRANCH  16  38
BRANCH  18  41
HETATM   41  C   UNL     1      30.444  20.793  29.078  1.00  0.00     0.016 C 
HETATM   42  C   UNL     1      29.496  20.642  27.891  1.00  0.00     0.012 C 
HETATM   43  C   UNL     1      31.357  19.575  29.194  1.00  0.00     0.012 C 
ENDBRANCH  18  41
BRANCH  15  44
HETATM   44  C   UNL     1      25.389  22.974  30.294  1.00  0.00     0.010 C 
HETATM   45  C   UNL     1      25.638  21.808  29.341  1.00  0.00     0.012 C 
HETATM   46  C   UNL     1      24.725  24.136  29.562  1.00  0.00     0.012 C 
ENDBRANCH  15  44
TORSDOF 7
ENDMDL
MODEL 18
REMARK VINA RESULT:    -6.032      2.086      6.465
REMARK INTER + INTRA:          -7.512
REMARK INTER:                  -9.128
REMARK INTRA:                   1.616
REMARK UNBOUND:                 0.989
REMARK  7 active torsions:
REMARK  status: ('A' for Active; 'I' for Inactive)
REMARK    1  A    between atoms: C_13  and  C_14 
REMARK    2  A    between atoms: C_14  and  C_19 
REMARK    3  A    between atoms: C_15  and  C_20 
REMARK    4  A    between atoms: C_16  and  C_21 
REMARK    5  A    between atoms: C_17  and  C_23 
REMARK    6  A    between atoms: C_18  and  C_26 
REMARK    7  A    between atoms: C_22  and  C_28 
ROOT
HETATM    1  O   UNL     1      28.240  23.270  34.967  1.00  0.00    -0.304 OA
HETATM    2  O   UNL     1      27.736  20.512  30.560  1.00  0.00    -0.304 OA
HETATM    3  O   UNL     1      26.779  25.137  30.368  1.00  0.00    -0.304 OA
HETATM    4  O   UNL     1      26.783  20.437  33.608  1.00  0.00    -0.270 OA
HETATM    5  O   UNL     1      29.742  23.217  33.218  1.00  0.00    -0.263 OA
HETATM    6  O   UNL     1      26.148  23.308  33.438  1.00  0.00    -0.270 OA
HETATM    7  O   UNL     1      26.287  23.195  27.819  1.00  0.00    -0.270 OA
HETATM    8  O   UNL     1      28.252  18.946  28.960  1.00  0.00    -0.263 OA
HETATM    9  O   UNL     1      24.608  24.715  29.731  1.00  0.00    -0.263 OA
HETATM   10  N   UNL     1      29.078  20.454  33.259  1.00  0.00    -0.340 N 
HETATM   11  N   UNL     1      26.207  25.557  32.899  1.00  0.00    -0.340 N 
HETATM   12  N   UNL     1      28.221  22.621  28.978  1.00  0.00    -0.340 N 
HETATM   13  C   UNL     1      29.289  21.207  34.513  1.00  0.00     0.190 C 
HETATM   14  C   UNL     1      25.042  25.393  32.004  1.00  0.00     0.190 C 
HETATM   15  C   UNL     1      28.296  21.284  28.352  1.00  0.00     0.190 C 
HETATM   16  C   UNL     1      27.525  19.481  31.544  1.00  0.00     0.227 C 
HETATM   17  C   UNL     1      27.793  24.595  34.605  1.00  0.00     0.227 C 
HETATM   18  C   UNL     1      27.339  24.966  29.053  1.00  0.00     0.227 C 
HETATM   19  C   UNL     1      27.752  20.160  32.892  1.00  0.00     0.250 C 
HETATM   20  C   UNL     1      29.150  22.674  34.142  1.00  0.00     0.283 C 
HETATM   21  C   UNL     1      26.652  24.425  33.598  1.00  0.00     0.250 C 
HETATM   22  C   UNL     1      27.219  23.516  28.562  1.00  0.00     0.250 C 
HETATM   23  C   UNL     1      28.109  20.112  29.312  1.00  0.00     0.283 C 
HETATM   24  C   UNL     1      25.440  25.026  30.576  1.00  0.00     0.283 C 
HETATM   25  C   UNL     1      30.259  20.097  32.467  1.00  0.00     0.153 C 
HETATM   26  C   UNL     1      26.839  26.877  32.966  1.00  0.00     0.153 C 
HETATM   27  C   UNL     1      29.310  23.011  29.874  1.00  0.00     0.153 C 
ENDROOT
BRANCH  17  28
HETATM   28  C   UNL     1      27.290  25.255  35.881  1.00  0.00     0.016 C 
HETATM   29  C   UNL     1      25.990  24.603  36.349  1.00  0.00     0.012 C 
HETATM   30  C   UNL     1      28.350  25.183  36.979  1.00  0.00     0.012 C 
ENDBRANCH  17  28
BRANCH  13  31
HETATM   31  C   UNL     1      30.617  20.966  35.221  1.00  0.00     0.014 C 
HETATM   32  C   UNL     1      30.925  22.135  36.159  1.00  0.00     0.012 C 
BRANCH  31  33
HETATM   33  C   UNL     1      30.581  19.618  35.961  1.00  0.00     0.002 C 
HETATM   34  C   UNL     1      29.297  19.384  36.745  1.00  0.00     0.005 C 
ENDBRANCH  31  33
ENDBRANCH  13  31
BRANCH  14  35
HETATM   35  C   UNL     1      24.106  26.602  31.984  1.00  0.00     0.010 C 
HETATM   36  C   UNL     1      23.825  27.091  33.403  1.00  0.00     0.012 C 
HETATM   37  C   UNL     1      24.698  27.729  31.137  1.00  0.00     0.012 C 
ENDBRANCH  14  35
BRANCH  16  38
HETATM   38  C   UNL     1      26.096  18.960  31.409  1.00  0.00     0.016 C 
HETATM   39  C   UNL     1      26.085  17.575  30.764  1.00  0.00     0.012 C 
HETATM   40  C   UNL     1      25.242  19.934  30.600  1.00  0.00     0.012 C 
ENDBRANCH  16  38
BRANCH  18  41
HETATM   41  C   UNL     1      26.768  25.975  28.057  1.00  0.00     0.016 C 
HETATM   42  C   UNL     1      27.631  26.035  26.799  1.00  0.00     0.012 C 
HETATM   43  C   UNL     1      26.656  27.357  28.698  1.00  0.00     0.012 C 
ENDBRANCH  18  41
BRANCH  15  44
HETATM   44  C   UNL     1      29.586  21.119  27.548  1.00  0.00     0.010 C 
HETATM   45  C   UNL     1      29.993  22.444  26.912  1.00  0.00     0.012 C 
HETATM   46  C   UNL     1      29.416  20.039  26.484  1.00  0.00     0.012 C 
ENDBRANCH  15  44
TORSDOF 7
ENDMDL
MODEL 19
REMARK VINA RESULT:    -5.876      3.465      8.618
REMARK INTER + INTRA:          -7.291
REMARK INTER:                  -8.191
REMARK INTRA:                   0.900
REMARK UNBOUND:                 0.989
REMARK  7 active torsions:
REMARK  status: ('A' for Active; 'I' for Inactive)
REMARK    1  A    between atoms: C_13  and  C_14 
REMARK    2  A    between atoms: C_14  and  C_19 
REMARK    3  A    between atoms: C_15  and  C_20 
REMARK    4  A    between atoms: C_16  and  C_21 
REMARK    5  A    between atoms: C_17  and  C_23 
REMARK    6  A    between atoms: C_18  and  C_26 
REMARK    7  A    between atoms: C_22  and  C_28 
ROOT
HETATM    1  O   UNL     1      33.012  20.449  34.711  1.00  0.00    -0.304 OA
HETATM    2  O   UNL     1      28.116  22.271  34.688  1.00  0.00    -0.304 OA
HETATM    3  O   UNL     1      29.854  20.618  30.615  1.00  0.00    -0.304 OA
HETATM    4  O   UNL     1      31.049  23.166  35.582  1.00  0.00    -0.270 OA
HETATM    5  O   UNL     1      31.088  19.177  34.736  1.00  0.00    -0.263 OA
HETATM    6  O   UNL     1      32.091  22.175  33.011  1.00  0.00    -0.270 OA
HETATM    7  O   UNL     1      26.938  22.026  30.768  1.00  0.00    -0.270 OA
HETATM    8  O   UNL     1      25.980  22.640  35.451  1.00  0.00    -0.263 OA
HETATM    9  O   UNL     1      29.588  22.671  29.608  1.00  0.00    -0.263 OA
HETATM   10  N   UNL     1      30.248  21.209  36.537  1.00  0.00    -0.340 N 
HETATM   11  N   UNL     1      32.422  20.920  31.096  1.00  0.00    -0.340 N 
HETATM   12  N   UNL     1      27.360  20.713  32.641  1.00  0.00    -0.340 N 
HETATM   13  C   UNL     1      31.614  20.650  36.600  1.00  0.00     0.190 C 
HETATM   14  C   UNL     1      31.802  21.980  30.272  1.00  0.00     0.190 C 
HETATM   15  C   UNL     1      26.285  21.350  33.430  1.00  0.00     0.190 C 
HETATM   16  C   UNL     1      28.671  23.014  35.791  1.00  0.00     0.227 C 
HETATM   17  C   UNL     1      33.269  20.117  33.329  1.00  0.00     0.227 C 
HETATM   18  C   UNL     1      28.482  20.214  30.456  1.00  0.00     0.227 C 
HETATM   19  C   UNL     1      30.091  22.481  35.959  1.00  0.00     0.250 C 
HETATM   20  C   UNL     1      31.850  19.981  35.256  1.00  0.00     0.283 C 
HETATM   21  C   UNL     1      32.541  21.157  32.473  1.00  0.00     0.250 C 
HETATM   22  C   UNL     1      27.529  21.078  31.295  1.00  0.00     0.250 C 
HETATM   23  C   UNL     1      26.760  22.146  34.643  1.00  0.00     0.283 C 
HETATM   24  C   UNL     1      30.290  21.815  30.136  1.00  0.00     0.283 C 
HETATM   25  C   UNL     1      29.147  20.385  37.046  1.00  0.00     0.153 C 
HETATM   26  C   UNL     1      32.834  19.685  30.426  1.00  0.00     0.153 C 
HETATM   27  C   UNL     1      28.080  19.597  33.256  1.00  0.00     0.153 C 
ENDROOT
BRANCH  17  28
HETATM   28  C   UNL     1      34.774  20.212  33.125  1.00  0.00     0.016 C 
HETATM   29  C   UNL     1      35.427  20.973  34.278  1.00  0.00     0.012 C 
HETATM   30  C   UNL     1      35.389  18.820  32.987  1.00  0.00     0.012 C 
ENDBRANCH  17  28
BRANCH  13  31
HETATM   31  C   UNL     1      31.881  19.664  37.733  1.00  0.00     0.014 C 
HETATM   32  C   UNL     1      32.187  18.281  37.156  1.00  0.00     0.012 C 
BRANCH  31  33
HETATM   33  C   UNL     1      33.018  20.188  38.628  1.00  0.00     0.002 C 
HETATM   34  C   UNL     1      34.408  19.817  38.131  1.00  0.00     0.005 C 
ENDBRANCH  31  33
ENDBRANCH  13  31
BRANCH  14  35
HETATM   35  C   UNL     1      32.430  22.129  28.887  1.00  0.00     0.010 C 
HETATM   36  C   UNL     1      31.550  21.477  27.822  1.00  0.00     0.012 C 
HETATM   37  C   UNL     1      32.666  23.603  28.556  1.00  0.00     0.012 C 
ENDBRANCH  14  35
BRANCH  16  38
HETATM   38  C   UNL     1      28.663  24.498  35.435  1.00  0.00     0.016 C 
HETATM   39  C   UNL     1      27.675  25.259  36.317  1.00  0.00     0.012 C 
HETATM   40  C   UNL     1      28.324  24.696  33.959  1.00  0.00     0.012 C 
ENDBRANCH  16  38
BRANCH  18  41
HETATM   41  C   UNL     1      28.077  20.145  28.985  1.00  0.00     0.016 C 
HETATM   42  C   UNL     1      26.597  19.791  28.852  1.00  0.00     0.012 C 
HETATM   43  C   UNL     1      28.940  19.131  28.238  1.00  0.00     0.012 C 
ENDBRANCH  18  41
BRANCH  15  44
HETATM   44  C   UNL     1      25.220  20.332  33.842  1.00  0.00     0.010 C 
HETATM   45  C   UNL     1      23.825  20.940  33.722  1.00  0.00     0.012 C 
HETATM   46  C   UNL     1      25.473  19.841  35.264  1.00  0.00     0.012 C 
ENDBRANCH  15  44
TORSDOF 7
ENDMDL
MODEL 20
REMARK VINA RESULT:    -5.872      2.676      6.612
REMARK INTER + INTRA:          -7.286
REMARK INTER:                  -8.275
REMARK INTRA:                   0.989
REMARK UNBOUND:                 0.989
REMARK  7 active torsions:
REMARK  status: ('A' for Active; 'I' for Inactive)
REMARK    1  A    between atoms: C_13  and  C_14 
REMARK    2  A    between atoms: C_14  and  C_19 
REMARK    3  A    between atoms: C_15  and  C_20 
REMARK    4  A    between atoms: C_16  and  C_21 
REMARK    5  A    between atoms: C_17  and  C_23 
REMARK    6  A    between atoms: C_18  and  C_26 
REMARK    7  A    between atoms: C_22  and  C_28 
ROOT
HETATM    1  O   UNL     1      31.580  20.778  33.461  1.00  0.00    -0.304 OA
HETATM    2  O   UNL     1      29.792  21.450  28.599  1.00  0.00    -0.304 OA
HETATM    3  O   UNL     1      26.987  22.778  32.164  1.00  0.00    -0.304 OA
HETATM    4  O   UNL     1      31.059  19.167  30.439  1.00  0.00    -0.270 OA
HETATM    5  O   UNL     1      31.523  22.768  32.298  1.00  0.00    -0.263 OA
HETATM    6  O   UNL     1      29.259  19.986  32.623  1.00  0.00    -0.270 OA
HETATM    7  O   UNL     1      25.976  22.869  29.086  1.00  0.00    -0.270 OA
HETATM    8  O   UNL     1      29.853  21.983  26.365  1.00  0.00    -0.263 OA
HETATM    9  O   UNL     1      25.363  21.282  31.513  1.00  0.00    -0.263 OA
HETATM   10  N   UNL     1      32.344  21.080  30.163  1.00  0.00    -0.340 N 
HETATM   11  N   UNL     1      27.968  21.250  34.067  1.00  0.00    -0.340 N 
HETATM   12  N   UNL     1      28.206  23.502  29.278  1.00  0.00    -0.340 N 
HETATM   13  C   UNL     1      32.910  20.927  31.519  1.00  0.00     0.190 C 
HETATM   14  C   UNL     1      26.731  20.752  33.427  1.00  0.00     0.190 C 
HETATM   15  C   UNL     1      28.470  23.309  27.837  1.00  0.00     0.190 C 
HETATM   16  C   UNL     1      30.713  20.360  28.395  1.00  0.00     0.227 C 
HETATM   17  C   UNL     1      30.476  21.182  34.300  1.00  0.00     0.227 C 
HETATM   18  C   UNL     1      26.629  23.789  31.205  1.00  0.00     0.227 C 
HETATM   19  C   UNL     1      31.381  20.141  29.749  1.00  0.00     0.250 C 
HETATM   20  C   UNL     1      31.940  21.628  32.454  1.00  0.00     0.283 C 
HETATM   21  C   UNL     1      29.190  20.756  33.587  1.00  0.00     0.250 C 
HETATM   22  C   UNL     1      26.898  23.333  29.763  1.00  0.00     0.250 C 
HETATM   23  C   UNL     1      29.455  22.191  27.507  1.00  0.00     0.283 C 
HETATM   24  C   UNL     1      26.285  21.616  32.249  1.00  0.00     0.283 C 
HETATM   25  C   UNL     1      32.794  22.219  29.357  1.00  0.00     0.153 C 
HETATM   26  C   UNL     1      27.835  22.250  35.129  1.00  0.00     0.153 C 
HETATM   27  C   UNL     1      29.293  24.038  30.100  1.00  0.00     0.153 C 
ENDROOT
BRANCH  17  28
HETATM   28  C   UNL     1      30.630  20.440  35.619  1.00  0.00     0.016 C 
HETATM   29  C   UNL     1      31.513  19.205  35.443  1.00  0.00     0.012 C 
HETATM   30  C   UNL     1      31.208  21.362  36.693  1.00  0.00     0.012 C 
ENDBRANCH  17  28
BRANCH  13  31
HETATM   31  C   UNL     1      34.321  21.471  31.719  1.00  0.00     0.014 C 
HETATM   32  C   UNL     1      34.603  21.646  33.212  1.00  0.00     0.012 C 
BRANCH  31  33
HETATM   33  C   UNL     1      35.343  20.545  31.036  1.00  0.00     0.002 C 
HETATM   34  C   UNL     1      35.195  19.080  31.422  1.00  0.00     0.005 C 
ENDBRANCH  31  33
ENDBRANCH  13  31
BRANCH  14  35
HETATM   35  C   UNL     1      25.567  20.567  34.400  1.00  0.00     0.010 C 
HETATM   36  C   UNL     1      24.244  20.945  33.737  1.00  0.00     0.012 C 
HETATM   37  C   UNL     1      25.516  19.128  34.914  1.00  0.00     0.012 C 
ENDBRANCH  14  35
BRANCH  16  38
HETATM   38  C   UNL     1      29.926  19.131  27.948  1.00  0.00     0.016 C 
HETATM   39  C   UNL     1      30.285  18.753  26.513  1.00  0.00     0.012 C 
HETATM   40  C   UNL     1      28.424  19.377  28.077  1.00  0.00     0.012 C 
ENDBRANCH  16  38
BRANCH  18  41
HETATM   41  C   UNL     1      25.198  24.285  31.411  1.00  0.00     0.016 C 
HETATM   42  C   UNL     1      24.887  25.435  30.456  1.00  0.00     0.012 C 
HETATM   43  C   UNL     1      24.983  24.717  32.859  1.00  0.00     0.012 C 
ENDBRANCH  18  41
BRANCH  15  44
HETATM   44  C   UNL     1      28.900  24.616  27.171  1.00  0.00     0.010 C 
HETATM   45  C   UNL     1      30.231  25.096  27.744  1.00  0.00     0.012 C 
HETATM   46  C   UNL     1      27.823  25.683  27.344  1.00  0.00     0.012 C 
ENDBRANCH  15  44
TORSDOF 7
ENDMDL
