MODEL 1
REMARK VINA RESULT:   -10.134      0.000      0.000
REMARK INTER + INTRA:          -9.508
REMARK INTER:                 -11.294
REMARK INTRA:                   1.786
REMARK UNBOUND:                 5.365
REMARK  8 active torsions:
REMARK  status: ('A' for Active; 'I' for Inactive)
REMARK    1  A    between atoms: C_13  and  C_15 
REMARK    2  A    between atoms: C_14  and  C_16 
REMARK    3  A    between atoms: C_15  and  C_22 
REMARK    4  A    between atoms: C_16  and  C_23 
REMARK    5  A    between atoms: C_17  and  C_21 
REMARK    6  A    between atoms: C_18  and  C_24 
REMARK    7  A    between atoms: C_19  and  C_27 
REMARK    8  A    between atoms: C_20  and  C_30 
ROOT
HETATM    1  O   UNL     1       9.275  -1.540  -0.638  1.00  0.00    -0.304 OA
HETATM    2  O   UNL     1      12.204  -5.376  -0.247  1.00  0.00    -0.304 OA
HETATM    3  O   UNL     1      12.455  -3.010   3.036  1.00  0.00    -0.304 OA
HETATM    4  O   UNL     1       9.526  -3.867   0.571  1.00  0.00    -0.270 OA
HETATM    5  O   UNL     1      11.524  -1.309  -1.099  1.00  0.00    -0.263 OA
HETATM    6  O   UNL     1      10.370  -1.501   2.726  1.00  0.00    -0.270 OA
HETATM    7  O   UNL     1      12.101  -7.675  -0.280  1.00  0.00    -0.263 OA
HETATM    8  O   UNL     1      15.075  -7.140   0.483  1.00  0.00    -0.270 OA
HETATM    9  O   UNL     1      14.683  -3.600   3.119  1.00  0.00    -0.263 OA
HETATM   10  N   UNL     1       9.808  -5.131  -1.353  1.00  0.00    -0.340 N 
HETATM   11  N   UNL     1      11.594  -0.039   1.403  1.00  0.00    -0.340 N 
HETATM   12  N   UNL     1      13.992  -6.164   2.286  1.00  0.00    -0.340 N 
HETATM   13  C   UNL     1      10.072  -6.366  -0.578  1.00  0.00     0.190 C 
HETATM   14  C   UNL     1      10.441   0.168   0.506  1.00  0.00     0.190 C 
HETATM   15  C   UNL     1       9.181  -2.698  -1.490  1.00  0.00     0.227 C 
HETATM   16  C   UNL     1      12.938  -5.289   2.840  1.00  0.00     0.190 C 
HETATM   17  C   UNL     1      12.742  -1.596   2.988  1.00  0.00     0.227 C 
HETATM   18  C   UNL     1      13.621  -5.303  -0.061  1.00  0.00     0.227 C 
HETATM   19  C   UNL     1       9.523  -3.943  -0.663  1.00  0.00     0.250 C 
HETATM   20  C   UNL     1      10.509  -0.966  -0.508  1.00  0.00     0.283 C 
HETATM   21  C   UNL     1      11.462  -1.028   2.389  1.00  0.00     0.250 C 
HETATM   22  C   UNL     1      11.575  -6.575  -0.395  1.00  0.00     0.283 C 
HETATM   23  C   UNL     1      14.283  -6.298   0.919  1.00  0.00     0.250 C 
HETATM   24  C   UNL     1      13.500  -3.888   3.018  1.00  0.00     0.283 C 
HETATM   25  C   UNL     1       9.939  -5.234  -2.811  1.00  0.00     0.153 C 
HETATM   26  C   UNL     1      12.842   0.679   1.133  1.00  0.00     0.153 C 
HETATM   27  C   UNL     1      14.788  -6.947   3.232  1.00  0.00     0.153 C 
ENDROOT
BRANCH  15  28
HETATM   28  C   UNL     1       7.741  -2.775  -1.980  1.00  0.00     0.016 C 
HETATM   29  C   UNL     1       6.951  -3.806  -1.177  1.00  0.00     0.012 C 
HETATM   30  C   UNL     1       7.070  -1.405  -1.898  1.00  0.00     0.012 C 
ENDBRANCH  15  28
BRANCH  14  31
HETATM   31  C   UNL     1      10.375   1.504  -0.220  1.00  0.00     0.014 C 
HETATM   32  C   UNL     1       9.413   1.401  -1.406  1.00  0.00     0.012 C 
BRANCH  31  33
HETATM   33  C   UNL     1       9.940   2.653   0.707  1.00  0.00     0.002 C 
HETATM   34  C   UNL     1       8.771   3.464   0.164  1.00  0.00     0.005 C 
ENDBRANCH  31  33
ENDBRANCH  14  31
BRANCH  13  35
HETATM   35  C   UNL     1       9.402  -7.607  -1.167  1.00  0.00     0.014 C 
HETATM   36  C   UNL     1       7.892  -7.380  -1.274  1.00  0.00     0.012 C 
BRANCH  35  37
HETATM   37  C   UNL     1       9.970  -7.982  -2.547  1.00  0.00     0.002 C 
HETATM   38  C   UNL     1      10.576  -9.378  -2.597  1.00  0.00     0.005 C 
ENDBRANCH  35  37
ENDBRANCH  13  35
BRANCH  17  39
HETATM   39  C   UNL     1      12.965  -1.057   4.390  1.00  0.00     0.016 C 
HETATM   40  C   UNL     1      11.827  -0.123   4.793  1.00  0.00     0.012 C 
HETATM   41  C   UNL     1      14.309  -0.337   4.481  1.00  0.00     0.012 C 
ENDBRANCH  17  39
BRANCH  18  42
HETATM   42  C   UNL     1      14.271  -5.365  -1.444  1.00  0.00     0.016 C 
HETATM   43  C   UNL     1      13.235  -5.711  -2.513  1.00  0.00     0.012 C 
HETATM   44  C   UNL     1      14.961  -4.044  -1.776  1.00  0.00     0.012 C 
ENDBRANCH  18  42
BRANCH  16  45
HETATM   45  C   UNL     1      12.316  -5.774   4.149  1.00  0.00     0.010 C 
HETATM   46  C   UNL     1      10.793  -5.830   4.035  1.00  0.00     0.012 C 
HETATM   47  C   UNL     1      12.732  -4.874   5.311  1.00  0.00     0.012 C 
ENDBRANCH  16  45
TORSDOF 8
ENDMDL
MODEL 2
REMARK VINA RESULT:    -9.747      0.744      1.252
REMARK INTER + INTRA:          -8.940
REMARK INTER:                 -11.698
REMARK INTRA:                   2.758
REMARK UNBOUND:                 5.365
REMARK  8 active torsions:
REMARK  status: ('A' for Active; 'I' for Inactive)
REMARK    1  A    between atoms: C_13  and  C_15 
REMARK    2  A    between atoms: C_14  and  C_16 
REMARK    3  A    between atoms: C_15  and  C_22 
REMARK    4  A    between atoms: C_16  and  C_23 
REMARK    5  A    between atoms: C_17  and  C_21 
REMARK    6  A    between atoms: C_18  and  C_24 
REMARK    7  A    between atoms: C_19  and  C_27 
REMARK    8  A    between atoms: C_20  and  C_30 
ROOT
HETATM    1  O   UNL     1       9.036  -1.058  -0.543  1.00  0.00    -0.304 OA
HETATM    2  O   UNL     1      11.872  -4.978  -0.750  1.00  0.00    -0.304 OA
HETATM    3  O   UNL     1      12.217  -3.116   2.835  1.00  0.00    -0.304 OA
HETATM    4  O   UNL     1       9.242  -3.541   0.315  1.00  0.00    -0.270 OA
HETATM    5  O   UNL     1      11.286  -0.817  -0.999  1.00  0.00    -0.263 OA
HETATM    6  O   UNL     1      10.168  -1.530   2.775  1.00  0.00    -0.270 OA
HETATM    7  O   UNL     1      11.710  -7.245  -1.111  1.00  0.00    -0.263 OA
HETATM    8  O   UNL     1      14.705  -6.896  -0.322  1.00  0.00    -0.270 OA
HETATM    9  O   UNL     1      14.431  -3.764   2.800  1.00  0.00    -0.263 OA
HETATM   10  N   UNL     1       9.471  -4.521  -1.775  1.00  0.00    -0.340 N 
HETATM   11  N   UNL     1      11.414   0.078   1.659  1.00  0.00    -0.340 N 
HETATM   12  N   UNL     1      13.666  -6.165   1.618  1.00  0.00    -0.340 N 
HETATM   13  C   UNL     1       9.712  -5.860  -1.189  1.00  0.00     0.190 C 
HETATM   14  C   UNL     1      10.257   0.439   0.817  1.00  0.00     0.190 C 
HETATM   15  C   UNL     1       8.904  -2.080  -1.552  1.00  0.00     0.227 C 
HETATM   16  C   UNL     1      12.640  -5.354   2.307  1.00  0.00     0.190 C 
HETATM   17  C   UNL     1      12.540  -1.717   2.987  1.00  0.00     0.227 C 
HETATM   18  C   UNL     1      13.292  -4.967  -0.576  1.00  0.00     0.227 C 
HETATM   19  C   UNL     1       9.224  -3.438  -0.917  1.00  0.00     0.250 C 
HETATM   20  C   UNL     1      10.286  -0.539  -0.350  1.00  0.00     0.283 C 
HETATM   21  C   UNL     1      11.268  -1.039   2.494  1.00  0.00     0.250 C 
HETATM   22  C   UNL     1      11.211  -6.128  -1.059  1.00  0.00     0.283 C 
HETATM   23  C   UNL     1      13.939  -6.107   0.242  1.00  0.00     0.250 C 
HETATM   24  C   UNL     1      13.239  -4.006   2.677  1.00  0.00     0.283 C 
HETATM   25  C   UNL     1       9.584  -4.416  -3.234  1.00  0.00     0.153 C 
HETATM   26  C   UNL     1      12.677   0.798   1.476  1.00  0.00     0.153 C 
HETATM   27  C   UNL     1      14.452  -7.094   2.430  1.00  0.00     0.153 C 
ENDROOT
BRANCH  15  28
HETATM   28  C   UNL     1       7.457  -2.051  -2.028  1.00  0.00     0.016 C 
HETATM   29  C   UNL     1       6.719  -3.313  -1.586  1.00  0.00     0.012 C 
HETATM   30  C   UNL     1       6.743  -0.804  -1.508  1.00  0.00     0.012 C 
ENDBRANCH  15  28
BRANCH  14  31
HETATM   31  C   UNL     1      10.217   1.867   0.291  1.00  0.00     0.014 C 
HETATM   32  C   UNL     1       9.490   1.902  -1.055  1.00  0.00     0.012 C 
BRANCH  31  33
HETATM   33  C   UNL     1       9.538   2.834   1.277  1.00  0.00     0.002 C 
HETATM   34  C   UNL     1      10.520   3.611   2.143  1.00  0.00     0.005 C 
ENDBRANCH  31  33
ENDBRANCH  14  31
BRANCH  13  35
HETATM   35  C   UNL     1       9.004  -6.988  -1.940  1.00  0.00     0.014 C 
HETATM   36  C   UNL     1       9.998  -8.112  -2.244  1.00  0.00     0.012 C 
BRANCH  35  37
HETATM   37  C   UNL     1       7.804  -7.551  -1.159  1.00  0.00     0.002 C 
HETATM   38  C   UNL     1       7.593  -6.889   0.195  1.00  0.00     0.005 C 
ENDBRANCH  35  37
ENDBRANCH  13  35
BRANCH  17  39
HETATM   39  C   UNL     1      12.791  -1.391   4.448  1.00  0.00     0.016 C 
HETATM   40  C   UNL     1      11.817  -0.321   4.934  1.00  0.00     0.012 C 
HETATM   41  C   UNL     1      14.235  -0.938   4.656  1.00  0.00     0.012 C 
ENDBRANCH  17  39
BRANCH  18  42
HETATM   42  C   UNL     1      13.926  -4.844  -1.962  1.00  0.00     0.016 C 
HETATM   43  C   UNL     1      15.075  -3.836  -1.944  1.00  0.00     0.012 C 
HETATM   44  C   UNL     1      14.415  -6.204  -2.455  1.00  0.00     0.012 C 
ENDBRANCH  18  42
BRANCH  16  45
HETATM   45  C   UNL     1      12.021  -6.007   3.541  1.00  0.00     0.010 C 
HETATM   46  C   UNL     1      10.496  -6.027   3.434  1.00  0.00     0.012 C 
HETATM   47  C   UNL     1      12.457  -5.283   4.814  1.00  0.00     0.012 C 
ENDBRANCH  16  45
TORSDOF 8
ENDMDL
MODEL 3
REMARK VINA RESULT:    -9.667      1.967      8.280
REMARK INTER + INTRA:          -8.823
REMARK INTER:                  -9.684
REMARK INTRA:                   0.861
REMARK UNBOUND:                 5.365
REMARK  8 active torsions:
REMARK  status: ('A' for Active; 'I' for Inactive)
REMARK    1  A    between atoms: C_13  and  C_15 
REMARK    2  A    between atoms: C_14  and  C_16 
REMARK    3  A    between atoms: C_15  and  C_22 
REMARK    4  A    between atoms: C_16  and  C_23 
REMARK    5  A    between atoms: C_17  and  C_21 
REMARK    6  A    between atoms: C_18  and  C_24 
REMARK    7  A    between atoms: C_19  and  C_27 
REMARK    8  A    between atoms: C_20  and  C_30 
ROOT
HETATM    1  O   UNL     1      12.465  -4.615   2.380  1.00  0.00    -0.304 OA
HETATM    2  O   UNL     1      12.365   0.217   2.088  1.00  0.00    -0.304 OA
HETATM    3  O   UNL     1       9.764  -1.456  -0.534  1.00  0.00    -0.304 OA
HETATM    4  O   UNL     1      11.022  -2.509   3.029  1.00  0.00    -0.270 OA
HETATM    5  O   UNL     1      13.632  -3.549   0.698  1.00  0.00    -0.263 OA
HETATM    6  O   UNL     1       9.661  -3.891   0.347  1.00  0.00    -0.270 OA
HETATM    7  O   UNL     1      11.979   2.049   3.427  1.00  0.00    -0.263 OA
HETATM    8  O   UNL     1      12.274   3.325   0.598  1.00  0.00    -0.270 OA
HETATM    9  O   UNL     1      10.277   0.296  -1.945  1.00  0.00    -0.263 OA
HETATM   10  N   UNL     1      12.699  -1.386   4.172  1.00  0.00    -0.340 N 
HETATM   11  N   UNL     1      11.523  -4.454  -0.919  1.00  0.00    -0.340 N 
HETATM   12  N   UNL     1      10.414   1.981   0.265  1.00  0.00    -0.340 N 
HETATM   13  C   UNL     1      11.848  -0.189   4.370  1.00  0.00     0.190 C 
HETATM   14  C   UNL     1      12.040  -5.314   0.163  1.00  0.00     0.190 C 
HETATM   15  C   UNL     1      13.040  -3.749   3.379  1.00  0.00     0.227 C 
HETATM   16  C   UNL     1       9.716   0.686   0.402  1.00  0.00     0.190 C 
HETATM   17  C   UNL     1      10.134  -2.459  -1.505  1.00  0.00     0.227 C 
HETATM   18  C   UNL     1      12.641   0.968   0.902  1.00  0.00     0.227 C 
HETATM   19  C   UNL     1      12.163  -2.497   3.503  1.00  0.00     0.250 C 
HETATM   20  C   UNL     1      12.821  -4.383   1.081  1.00  0.00     0.283 C 
HETATM   21  C   UNL     1      10.393  -3.676  -0.626  1.00  0.00     0.250 C 
HETATM   22  C   UNL     1      12.107   0.842   3.271  1.00  0.00     0.283 C 
HETATM   23  C   UNL     1      11.762   2.200   0.594  1.00  0.00     0.250 C 
HETATM   24  C   UNL     1       9.957  -0.142  -0.850  1.00  0.00     0.283 C 
HETATM   25  C   UNL     1      14.087  -1.286   4.637  1.00  0.00     0.153 C 
HETATM   26  C   UNL     1      12.282  -4.350  -2.167  1.00  0.00     0.153 C 
HETATM   27  C   UNL     1       9.644   3.114  -0.247  1.00  0.00     0.153 C 
ENDROOT
BRANCH  15  28
HETATM   28  C   UNL     1      13.041  -4.522   4.691  1.00  0.00     0.016 C 
HETATM   29  C   UNL     1      12.035  -5.671   4.641  1.00  0.00     0.012 C 
HETATM   30  C   UNL     1      14.440  -5.049   5.006  1.00  0.00     0.012 C 
ENDBRANCH  15  28
BRANCH  14  31
HETATM   31  C   UNL     1      12.923  -6.481  -0.258  1.00  0.00     0.014 C 
HETATM   32  C   UNL     1      13.637  -7.058   0.967  1.00  0.00     0.012 C 
BRANCH  31  33
HETATM   33  C   UNL     1      12.127  -7.590  -0.969  1.00  0.00     0.002 C 
HETATM   34  C   UNL     1      13.002  -8.698  -1.538  1.00  0.00     0.005 C 
ENDBRANCH  31  33
ENDBRANCH  14  31
BRANCH  13  35
HETATM   35  C   UNL     1      11.985   0.429   5.761  1.00  0.00     0.014 C 
HETATM   36  C   UNL     1      13.047   1.532   5.737  1.00  0.00     0.012 C 
BRANCH  35  37
HETATM   37  C   UNL     1      10.654   1.000   6.283  1.00  0.00     0.002 C 
HETATM   38  C   UNL     1       9.433   0.219   5.820  1.00  0.00     0.005 C 
ENDBRANCH  35  37
ENDBRANCH  13  35
BRANCH  17  39
HETATM   39  C   UNL     1       8.981  -2.720  -2.457  1.00  0.00     0.016 C 
HETATM   40  C   UNL     1       7.648  -2.658  -1.715  1.00  0.00     0.012 C 
HETATM   41  C   UNL     1       9.149  -4.072  -3.146  1.00  0.00     0.012 C 
ENDBRANCH  17  39
BRANCH  18  42
HETATM   42  C   UNL     1      14.126   1.331   0.922  1.00  0.00     0.016 C 
HETATM   43  C   UNL     1      14.950   0.206   1.548  1.00  0.00     0.012 C 
HETATM   44  C   UNL     1      14.626   1.639  -0.488  1.00  0.00     0.012 C 
ENDBRANCH  18  42
BRANCH  16  45
HETATM   45  C   UNL     1       8.218   0.785   0.683  1.00  0.00     0.010 C 
HETATM   46  C   UNL     1       7.830  -0.097   1.869  1.00  0.00     0.012 C 
HETATM   47  C   UNL     1       7.408   0.401  -0.555  1.00  0.00     0.012 C 
ENDBRANCH  16  45
TORSDOF 8
ENDMDL
MODEL 4
REMARK VINA RESULT:    -9.469      1.924      6.213
REMARK INTER + INTRA:          -8.533
REMARK INTER:                  -9.189
REMARK INTRA:                   0.656
REMARK UNBOUND:                 5.365
REMARK  8 active torsions:
REMARK  status: ('A' for Active; 'I' for Inactive)
REMARK    1  A    between atoms: C_13  and  C_15 
REMARK    2  A    between atoms: C_14  and  C_16 
REMARK    3  A    between atoms: C_15  and  C_22 
REMARK    4  A    between atoms: C_16  and  C_23 
REMARK    5  A    between atoms: C_17  and  C_21 
REMARK    6  A    between atoms: C_18  and  C_24 
REMARK    7  A    between atoms: C_19  and  C_27 
REMARK    8  A    between atoms: C_20  and  C_30 
ROOT
HETATM    1  O   UNL     1      12.366  -1.002   3.733  1.00  0.00    -0.304 OA
HETATM    2  O   UNL     1      11.035  -5.209   1.737  1.00  0.00    -0.304 OA
HETATM    3  O   UNL     1       9.376  -2.074  -0.227  1.00  0.00    -0.304 OA
HETATM    4  O   UNL     1      12.788  -2.556   1.647  1.00  0.00    -0.270 OA
HETATM    5  O   UNL     1      10.304  -1.905   4.242  1.00  0.00    -0.263 OA
HETATM    6  O   UNL     1      10.778  -0.102   0.702  1.00  0.00    -0.270 OA
HETATM    7  O   UNL     1      11.982  -7.080   0.788  1.00  0.00    -0.263 OA
HETATM    8  O   UNL     1       8.937  -7.547   0.316  1.00  0.00    -0.270 OA
HETATM    9  O   UNL     1       7.543  -3.434  -0.560  1.00  0.00    -0.263 OA
HETATM   10  N   UNL     1      13.323  -4.466   2.849  1.00  0.00    -0.340 N 
HETATM   11  N   UNL     1       9.346   0.093   2.517  1.00  0.00    -0.340 N 
HETATM   12  N   UNL     1       9.260  -5.597  -0.896  1.00  0.00    -0.340 N 
HETATM   13  C   UNL     1      13.405  -5.291   1.621  1.00  0.00     0.190 C 
HETATM   14  C   UNL     1      10.477   0.382   3.421  1.00  0.00     0.190 C 
HETATM   15  C   UNL     1      13.024  -2.255   4.011  1.00  0.00     0.227 C 
HETATM   16  C   UNL     1       9.807  -4.230  -1.022  1.00  0.00     0.190 C 
HETATM   17  C   UNL     1       8.600  -1.040   0.418  1.00  0.00     0.227 C 
HETATM   18  C   UNL     1       9.681  -5.651   1.595  1.00  0.00     0.227 C 
HETATM   19  C   UNL     1      13.028  -3.100   2.731  1.00  0.00     0.250 C 
HETATM   20  C   UNL     1      11.005  -0.979   3.856  1.00  0.00     0.283 C 
HETATM   21  C   UNL     1       9.664  -0.286   1.205  1.00  0.00     0.250 C 
HETATM   22  C   UNL     1      12.077  -6.002   1.362  1.00  0.00     0.283 C 
HETATM   23  C   UNL     1       9.276  -6.359   0.283  1.00  0.00     0.250 C 
HETATM   24  C   UNL     1       8.747  -3.230  -0.588  1.00  0.00     0.283 C 
HETATM   25  C   UNL     1      13.489  -5.173   4.124  1.00  0.00     0.153 C 
HETATM   26  C   UNL     1       7.987   0.075   3.064  1.00  0.00     0.153 C 
HETATM   27  C   UNL     1       8.660  -6.198  -2.088  1.00  0.00     0.153 C 
ENDROOT
BRANCH  15  28
HETATM   28  C   UNL     1      14.451  -1.925   4.427  1.00  0.00     0.016 C 
HETATM   29  C   UNL     1      14.926  -0.638   3.754  1.00  0.00     0.012 C 
HETATM   30  C   UNL     1      14.557  -1.805   5.946  1.00  0.00     0.012 C 
ENDBRANCH  15  28
BRANCH  14  31
HETATM   31  C   UNL     1      10.169   1.230   4.648  1.00  0.00     0.014 C 
HETATM   32  C   UNL     1      11.129   0.866   5.782  1.00  0.00     0.012 C 
BRANCH  31  33
HETATM   33  C   UNL     1      10.256   2.738   4.353  1.00  0.00     0.002 C 
HETATM   34  C   UNL     1      10.932   3.537   5.459  1.00  0.00     0.005 C 
ENDBRANCH  31  33
ENDBRANCH  14  31
BRANCH  13  35
HETATM   35  C   UNL     1      14.575  -6.275   1.628  1.00  0.00     0.014 C 
HETATM   36  C   UNL     1      14.163  -7.566   2.341  1.00  0.00     0.012 C 
BRANCH  35  37
HETATM   37  C   UNL     1      15.075  -6.602   0.209  1.00  0.00     0.002 C 
HETATM   38  C   UNL     1      14.872  -5.467  -0.785  1.00  0.00     0.005 C 
ENDBRANCH  35  37
ENDBRANCH  13  35
BRANCH  17  39
HETATM   39  C   UNL     1       7.960  -0.139  -0.622  1.00  0.00     0.016 C 
HETATM   40  C   UNL     1       8.556   1.265  -0.555  1.00  0.00     0.012 C 
HETATM   41  C   UNL     1       6.446  -0.089  -0.430  1.00  0.00     0.012 C 
ENDBRANCH  17  39
BRANCH  18  42
HETATM   42  C   UNL     1       9.345  -6.506   2.818  1.00  0.00     0.016 C 
HETATM   43  C   UNL     1      10.088  -5.997   4.054  1.00  0.00     0.012 C 
HETATM   44  C   UNL     1       7.839  -6.522   3.069  1.00  0.00     0.012 C 
ENDBRANCH  18  42
BRANCH  16  45
HETATM   45  C   UNL     1      10.331  -3.868  -2.410  1.00  0.00     0.010 C 
HETATM   46  C   UNL     1      11.780  -3.388  -2.333  1.00  0.00     0.012 C 
HETATM   47  C   UNL     1       9.450  -2.802  -3.060  1.00  0.00     0.012 C 
ENDBRANCH  16  45
TORSDOF 8
ENDMDL
MODEL 5
REMARK VINA RESULT:    -9.200      1.786      7.619
REMARK INTER + INTRA:          -8.138
REMARK INTER:                 -10.064
REMARK INTRA:                   1.926
REMARK UNBOUND:                 5.365
REMARK  8 active torsions:
REMARK  status: ('A' for Active; 'I' for Inactive)
REMARK    1  A    between atoms: C_13  and  C_15 
REMARK    2  A    between atoms: C_14  and  C_16 
REMARK    3  A    between atoms: C_15  and  C_22 
REMARK    4  A    between atoms: C_16  and  C_23 
REMARK    5  A    between atoms: C_17  and  C_21 
REMARK    6  A    between atoms: C_18  and  C_24 
REMARK    7  A    between atoms: C_19  and  C_27 
REMARK    8  A    between atoms: C_20  and  C_30 
ROOT
HETATM    1  O   UNL     1      11.651  -5.809   1.102  1.00  0.00    -0.304 OA
HETATM    2  O   UNL     1      12.845  -1.140   1.574  1.00  0.00    -0.304 OA
HETATM    3  O   UNL     1       9.276  -1.550  -0.306  1.00  0.00    -0.304 OA
HETATM    4  O   UNL     1      11.090  -3.634   2.478  1.00  0.00    -0.270 OA
HETATM    5  O   UNL     1      12.578  -4.682  -0.686  1.00  0.00    -0.263 OA
HETATM    6  O   UNL     1       8.729  -4.033   0.192  1.00  0.00    -0.270 OA
HETATM    7  O   UNL     1      13.365   0.381   3.221  1.00  0.00    -0.263 OA
HETATM    8  O   UNL     1      13.241   2.162   0.666  1.00  0.00    -0.270 OA
HETATM    9  O   UNL     1       9.867   0.314  -1.531  1.00  0.00    -0.263 OA
HETATM   10  N   UNL     1      13.258  -3.206   3.184  1.00  0.00    -0.340 N 
HETATM   11  N   UNL     1       9.947  -4.700  -1.667  1.00  0.00    -0.340 N 
HETATM   12  N   UNL     1      11.060   1.382   0.745  1.00  0.00    -0.340 N 
HETATM   13  C   UNL     1      12.865  -1.924   3.816  1.00  0.00     0.190 C 
HETATM   14  C   UNL     1      10.471  -5.876  -0.944  1.00  0.00     0.190 C 
HETATM   15  C   UNL     1      12.692  -5.343   1.983  1.00  0.00     0.227 C 
HETATM   16  C   UNL     1      10.087   0.280   0.903  1.00  0.00     0.190 C 
HETATM   17  C   UNL     1       9.075  -2.364  -1.481  1.00  0.00     0.227 C 
HETATM   18  C   UNL     1      12.995  -0.223   0.486  1.00  0.00     0.227 C 
HETATM   19  C   UNL     1      12.272  -3.987   2.563  1.00  0.00     0.250 C 
HETATM   20  C   UNL     1      11.698  -5.376  -0.194  1.00  0.00     0.283 C 
HETATM   21  C   UNL     1       9.205  -3.774  -0.919  1.00  0.00     0.250 C 
HETATM   22  C   UNL     1      13.101  -0.757   2.856  1.00  0.00     0.283 C 
HETATM   23  C   UNL     1      12.451   1.212   0.658  1.00  0.00     0.250 C 
HETATM   24  C   UNL     1       9.741  -0.276  -0.469  1.00  0.00     0.283 C 
HETATM   25  C   UNL     1      14.689  -3.527   3.194  1.00  0.00     0.153 C 
HETATM   26  C   UNL     1      10.343  -4.491  -3.061  1.00  0.00     0.153 C 
HETATM   27  C   UNL     1      10.533   2.745   0.676  1.00  0.00     0.153 C 
ENDROOT
BRANCH  15  28
HETATM   28  C   UNL     1      12.825  -6.372   3.098  1.00  0.00     0.016 C 
HETATM   29  C   UNL     1      11.449  -6.794   3.610  1.00  0.00     0.012 C 
HETATM   30  C   UNL     1      13.615  -7.588   2.618  1.00  0.00     0.012 C 
ENDBRANCH  15  28
BRANCH  14  31
HETATM   31  C   UNL     1      10.842  -7.086  -1.791  1.00  0.00     0.014 C 
HETATM   32  C   UNL     1      12.043  -7.802  -1.169  1.00  0.00     0.012 C 
BRANCH  31  33
HETATM   33  C   UNL     1       9.671  -8.071  -1.949  1.00  0.00     0.002 C 
HETATM   34  C   UNL     1       8.303  -7.403  -1.905  1.00  0.00     0.005 C 
ENDBRANCH  31  33
ENDBRANCH  14  31
BRANCH  13  35
HETATM   35  C   UNL     1      13.536  -1.682   5.167  1.00  0.00     0.014 C 
HETATM   36  C   UNL     1      12.792  -0.581   5.927  1.00  0.00     0.012 C 
BRANCH  35  37
HETATM   37  C   UNL     1      13.599  -2.957   6.028  1.00  0.00     0.002 C 
HETATM   38  C   UNL     1      14.787  -2.992   6.978  1.00  0.00     0.005 C 
ENDBRANCH  35  37
ENDBRANCH  13  35
BRANCH  17  39
HETATM   39  C   UNL     1       7.685  -2.137  -2.045  1.00  0.00     0.016 C 
HETATM   40  C   UNL     1       6.837  -1.321  -1.073  1.00  0.00     0.012 C 
HETATM   41  C   UNL     1       7.008  -3.470  -2.358  1.00  0.00     0.012 C 
ENDBRANCH  17  39
BRANCH  18  42
HETATM   42  C   UNL     1      14.471  -0.218   0.088  1.00  0.00     0.016 C 
HETATM   43  C   UNL     1      15.062  -1.625   0.180  1.00  0.00     0.012 C 
HETATM   44  C   UNL     1      14.649   0.345  -1.321  1.00  0.00     0.012 C 
ENDBRANCH  18  42
BRANCH  16  45
HETATM   45  C   UNL     1       8.809   0.648   1.656  1.00  0.00     0.010 C 
HETATM   46  C   UNL     1       8.757  -0.059   3.010  1.00  0.00     0.012 C 
HETATM   47  C   UNL     1       7.574   0.304   0.825  1.00  0.00     0.012 C 
ENDBRANCH  16  45
TORSDOF 8
ENDMDL
MODEL 6
REMARK VINA RESULT:    -8.537      1.679      2.731
REMARK INTER + INTRA:          -7.166
REMARK INTER:                  -8.888
REMARK INTRA:                   1.722
REMARK UNBOUND:                 5.365
REMARK  8 active torsions:
REMARK  status: ('A' for Active; 'I' for Inactive)
REMARK    1  A    between atoms: C_13  and  C_15 
REMARK    2  A    between atoms: C_14  and  C_16 
REMARK    3  A    between atoms: C_15  and  C_22 
REMARK    4  A    between atoms: C_16  and  C_23 
REMARK    5  A    between atoms: C_17  and  C_21 
REMARK    6  A    between atoms: C_18  and  C_24 
REMARK    7  A    between atoms: C_19  and  C_27 
REMARK    8  A    between atoms: C_20  and  C_30 
ROOT
HETATM    1  O   UNL     1      10.831   0.273   1.046  1.00  0.00    -0.304 OA
HETATM    2  O   UNL     1      12.596  -4.045  -0.253  1.00  0.00    -0.304 OA
HETATM    3  O   UNL     1      12.864  -3.506   3.757  1.00  0.00    -0.304 OA
HETATM    4  O   UNL     1      10.281  -2.303   1.062  1.00  0.00    -0.270 OA
HETATM    5  O   UNL     1      13.111  -0.009   0.830  1.00  0.00    -0.263 OA
HETATM    6  O   UNL     1      11.309  -1.461   4.093  1.00  0.00    -0.270 OA
HETATM    7  O   UNL     1      11.927  -5.960  -1.340  1.00  0.00    -0.263 OA
HETATM    8  O   UNL     1      14.764  -6.725  -0.301  1.00  0.00    -0.270 OA
HETATM    9  O   UNL     1      14.826  -4.715   3.647  1.00  0.00    -0.263 OA
HETATM   10  N   UNL     1      10.563  -2.643  -1.216  1.00  0.00    -0.340 N 
HETATM   11  N   UNL     1      13.067  -0.017   3.637  1.00  0.00    -0.340 N 
HETATM   12  N   UNL     1      13.668  -6.337   1.705  1.00  0.00    -0.340 N 
HETATM   13  C   UNL     1      10.372  -4.107  -1.084  1.00  0.00     0.190 C 
HETATM   14  C   UNL     1      12.173   0.890   2.890  1.00  0.00     0.190 C 
HETATM   15  C   UNL     1      10.597  -0.322  -0.246  1.00  0.00     0.227 C 
HETATM   16  C   UNL     1      12.787  -5.511   2.557  1.00  0.00     0.190 C 
HETATM   17  C   UNL     1      13.500  -2.366   4.374  1.00  0.00     0.227 C 
HETATM   18  C   UNL     1      13.932  -4.489   0.001  1.00  0.00     0.227 C 
HETATM   19  C   UNL     1      10.471  -1.840  -0.069  1.00  0.00     0.250 C 
HETATM   20  C   UNL     1      12.129   0.335   1.472  1.00  0.00     0.283 C 
HETATM   21  C   UNL     1      12.525  -1.242   4.053  1.00  0.00     0.250 C 
HETATM   22  C   UNL     1      11.721  -4.815  -0.958  1.00  0.00     0.283 C 
HETATM   23  C   UNL     1      14.146  -5.955   0.441  1.00  0.00     0.250 C 
HETATM   24  C   UNL     1      13.643  -4.561   3.380  1.00  0.00     0.283 C 
HETATM   25  C   UNL     1      10.912  -2.148  -2.551  1.00  0.00     0.153 C 
HETATM   26  C   UNL     1      14.482   0.336   3.775  1.00  0.00     0.153 C 
HETATM   27  C   UNL     1      14.068  -7.649   2.216  1.00  0.00     0.153 C 
ENDROOT
BRANCH  15  28
HETATM   28  C   UNL     1       9.290   0.255  -0.772  1.00  0.00     0.016 C 
HETATM   29  C   UNL     1       8.169   0.070   0.248  1.00  0.00     0.012 C 
HETATM   30  C   UNL     1       9.456   1.733  -1.123  1.00  0.00     0.012 C 
ENDBRANCH  15  28
BRANCH  14  31
HETATM   31  C   UNL     1      12.570   2.360   2.856  1.00  0.00     0.014 C 
HETATM   32  C   UNL     1      12.095   2.992   1.545  1.00  0.00     0.012 C 
BRANCH  31  33
HETATM   33  C   UNL     1      12.002   3.146   4.050  1.00  0.00     0.002 C 
HETATM   34  C   UNL     1      10.891   2.413   4.790  1.00  0.00     0.005 C 
ENDBRANCH  31  33
ENDBRANCH  14  31
BRANCH  13  35
HETATM   35  C   UNL     1       9.524  -4.712  -2.201  1.00  0.00     0.014 C 
HETATM   36  C   UNL     1       9.022  -6.096  -1.781  1.00  0.00     0.012 C 
BRANCH  35  37
HETATM   37  C   UNL     1       8.329  -3.819  -2.581  1.00  0.00     0.002 C 
HETATM   38  C   UNL     1       7.221  -3.809  -1.539  1.00  0.00     0.005 C 
ENDBRANCH  35  37
ENDBRANCH  13  35
BRANCH  17  39
HETATM   39  C   UNL     1      13.607  -2.573   5.874  1.00  0.00     0.016 C 
HETATM   40  C   UNL     1      13.160  -1.320   6.622  1.00  0.00     0.012 C 
HETATM   41  C   UNL     1      15.035  -2.950   6.264  1.00  0.00     0.012 C 
ENDBRANCH  17  39
BRANCH  18  42
HETATM   42  C   UNL     1      14.773  -4.146  -1.229  1.00  0.00     0.016 C 
HETATM   43  C   UNL     1      14.378  -5.026  -2.416  1.00  0.00     0.012 C 
HETATM   44  C   UNL     1      14.628  -2.669  -1.588  1.00  0.00     0.012 C 
ENDBRANCH  18  42
BRANCH  16  45
HETATM   45  C   UNL     1      11.850  -6.296   3.472  1.00  0.00     0.010 C 
HETATM   46  C   UNL     1      10.428  -6.302   2.912  1.00  0.00     0.012 C 
HETATM   47  C   UNL     1      11.864  -5.719   4.886  1.00  0.00     0.012 C 
ENDBRANCH  16  45
TORSDOF 8
ENDMDL
MODEL 7
REMARK VINA RESULT:    -8.508      2.106      6.790
REMARK INTER + INTRA:          -7.123
REMARK INTER:                  -8.386
REMARK INTRA:                   1.264
REMARK UNBOUND:                 5.365
REMARK  8 active torsions:
REMARK  status: ('A' for Active; 'I' for Inactive)
REMARK    1  A    between atoms: C_13  and  C_15 
REMARK    2  A    between atoms: C_14  and  C_16 
REMARK    3  A    between atoms: C_15  and  C_22 
REMARK    4  A    between atoms: C_16  and  C_23 
REMARK    5  A    between atoms: C_17  and  C_21 
REMARK    6  A    between atoms: C_18  and  C_24 
REMARK    7  A    between atoms: C_19  and  C_27 
REMARK    8  A    between atoms: C_20  and  C_30 
ROOT
HETATM    1  O   UNL     1      11.678  -1.017   5.166  1.00  0.00    -0.304 OA
HETATM    2  O   UNL     1      11.115  -1.152   0.359  1.00  0.00    -0.304 OA
HETATM    3  O   UNL     1      11.835  -4.854   1.847  1.00  0.00    -0.304 OA
HETATM    4  O   UNL     1       9.978  -1.709   3.277  1.00  0.00    -0.270 OA
HETATM    5  O   UNL     1      13.537  -1.094   3.801  1.00  0.00    -0.263 OA
HETATM    6  O   UNL     1      11.453  -4.459   4.380  1.00  0.00    -0.270 OA
HETATM    7  O   UNL     1       9.559  -0.593  -1.243  1.00  0.00    -0.263 OA
HETATM    8  O   UNL     1      11.752  -2.055  -2.907  1.00  0.00    -0.270 OA
HETATM    9  O   UNL     1      12.982  -5.265  -0.112  1.00  0.00    -0.263 OA
HETATM   10  N   UNL     1       9.934   0.345   2.200  1.00  0.00    -0.340 N 
HETATM   11  N   UNL     1      13.656  -3.773   4.630  1.00  0.00    -0.340 N 
HETATM   12  N   UNL     1      11.086  -3.764  -1.489  1.00  0.00    -0.340 N 
HETATM   13  C   UNL     1       9.082  -0.177   1.105  1.00  0.00     0.190 C 
HETATM   14  C   UNL     1      13.255  -2.724   5.588  1.00  0.00     0.190 C 
HETATM   15  C   UNL     1      11.117   0.070   4.403  1.00  0.00     0.227 C 
HETATM   16  C   UNL     1      10.751  -4.266  -0.140  1.00  0.00     0.190 C 
HETATM   17  C   UNL     1      12.968  -5.179   2.680  1.00  0.00     0.227 C 
HETATM   18  C   UNL     1      12.095  -1.639  -0.563  1.00  0.00     0.227 C 
HETATM   19  C   UNL     1      10.299  -0.515   3.247  1.00  0.00     0.250 C 
HETATM   20  C   UNL     1      12.873  -1.522   4.735  1.00  0.00     0.283 C 
HETATM   21  C   UNL     1      12.624  -4.468   3.982  1.00  0.00     0.250 C 
HETATM   22  C   UNL     1       9.941  -0.617  -0.080  1.00  0.00     0.283 C 
HETATM   23  C   UNL     1      11.615  -2.491  -1.759  1.00  0.00     0.250 C 
HETATM   24  C   UNL     1      12.000  -4.861   0.492  1.00  0.00     0.283 C 
HETATM   25  C   UNL     1      10.399   1.730   2.063  1.00  0.00     0.153 C 
HETATM   26  C   UNL     1      15.075  -3.932   4.303  1.00  0.00     0.153 C 
HETATM   27  C   UNL     1      10.848  -4.658  -2.622  1.00  0.00     0.153 C 
ENDROOT
BRANCH  15  28
HETATM   28  C   UNL     1      10.210   0.853   5.344  1.00  0.00     0.016 C 
HETATM   29  C   UNL     1       9.705  -0.041   6.475  1.00  0.00     0.012 C 
HETATM   30  C   UNL     1      10.941   2.070   5.910  1.00  0.00     0.012 C 
ENDBRANCH  15  28
BRANCH  14  31
HETATM   31  C   UNL     1      14.296  -2.312   6.620  1.00  0.00     0.014 C 
HETATM   32  C   UNL     1      14.050  -0.865   7.054  1.00  0.00     0.012 C 
BRANCH  31  33
HETATM   33  C   UNL     1      14.295  -3.234   7.853  1.00  0.00     0.002 C 
HETATM   34  C   UNL     1      13.509  -2.675   9.031  1.00  0.00     0.005 C 
ENDBRANCH  31  33
ENDBRANCH  14  31
BRANCH  13  35
HETATM   35  C   UNL     1       7.987   0.796   0.672  1.00  0.00     0.014 C 
HETATM   36  C   UNL     1       8.500   1.682  -0.466  1.00  0.00     0.012 C 
BRANCH  35  37
HETATM   37  C   UNL     1       6.701   0.074   0.230  1.00  0.00     0.002 C 
HETATM   38  C   UNL     1       5.718   0.975  -0.502  1.00  0.00     0.005 C 
ENDBRANCH  35  37
ENDBRANCH  13  35
BRANCH  17  39
HETATM   39  C   UNL     1      13.050  -6.680   2.893  1.00  0.00     0.016 C 
HETATM   40  C   UNL     1      12.702  -7.037   4.336  1.00  0.00     0.012 C 
HETATM   41  C   UNL     1      14.441  -7.198   2.532  1.00  0.00     0.012 C 
ENDBRANCH  17  39
BRANCH  18  42
HETATM   42  C   UNL     1      12.925  -0.442  -1.028  1.00  0.00     0.016 C 
HETATM   43  C   UNL     1      12.790   0.723  -0.047  1.00  0.00     0.012 C 
HETATM   44  C   UNL     1      14.392  -0.834  -1.193  1.00  0.00     0.012 C 
ENDBRANCH  18  42
BRANCH  16  45
HETATM   45  C   UNL     1       9.608  -5.278  -0.091  1.00  0.00     0.010 C 
HETATM   46  C   UNL     1       8.283  -4.614  -0.465  1.00  0.00     0.012 C 
HETATM   47  C   UNL     1       9.511  -5.920   1.292  1.00  0.00     0.012 C 
ENDBRANCH  16  45
TORSDOF 8
ENDMDL
MODEL 8
REMARK VINA RESULT:    -8.417      1.553      2.215
REMARK INTER + INTRA:          -6.989
REMARK INTER:                 -10.270
REMARK INTRA:                   3.280
REMARK UNBOUND:                 5.365
REMARK  8 active torsions:
REMARK  status: ('A' for Active; 'I' for Inactive)
REMARK    1  A    between atoms: C_13  and  C_15 
REMARK    2  A    between atoms: C_14  and  C_16 
REMARK    3  A    between atoms: C_15  and  C_22 
REMARK    4  A    between atoms: C_16  and  C_23 
REMARK    5  A    between atoms: C_17  and  C_21 
REMARK    6  A    between atoms: C_18  and  C_24 
REMARK    7  A    between atoms: C_19  and  C_27 
REMARK    8  A    between atoms: C_20  and  C_30 
ROOT
HETATM    1  O   UNL     1      10.942  -0.468   0.220  1.00  0.00    -0.304 OA
HETATM    2  O   UNL     1      12.167  -5.142  -0.097  1.00  0.00    -0.304 OA
HETATM    3  O   UNL     1      13.219  -3.600   3.502  1.00  0.00    -0.304 OA
HETATM    4  O   UNL     1      10.251  -2.874   1.043  1.00  0.00    -0.270 OA
HETATM    5  O   UNL     1      13.119  -1.046  -0.282  1.00  0.00    -0.263 OA
HETATM    6  O   UNL     1      11.880  -1.381   3.507  1.00  0.00    -0.270 OA
HETATM    7  O   UNL     1      11.191  -7.191  -0.483  1.00  0.00    -0.263 OA
HETATM    8  O   UNL     1      14.122  -7.961   0.245  1.00  0.00    -0.270 OA
HETATM    9  O   UNL     1      15.048  -5.003   3.411  1.00  0.00    -0.263 OA
HETATM   10  N   UNL     1      10.077  -3.829  -1.064  1.00  0.00    -0.340 N 
HETATM   11  N   UNL     1      13.605  -0.310   2.384  1.00  0.00    -0.340 N 
HETATM   12  N   UNL     1      13.449  -6.942   2.216  1.00  0.00    -0.340 N 
HETATM   13  C   UNL     1       9.827  -5.177  -0.500  1.00  0.00     0.190 C 
HETATM   14  C   UNL     1      12.643   0.461   1.572  1.00  0.00     0.190 C 
HETATM   15  C   UNL     1      10.433  -1.353  -0.798  1.00  0.00     0.227 C 
HETATM   16  C   UNL     1      12.797  -5.830   2.937  1.00  0.00     0.190 C 
HETATM   17  C   UNL     1      14.027  -2.415   3.664  1.00  0.00     0.227 C 
HETATM   18  C   UNL     1      13.498  -5.647   0.046  1.00  0.00     0.227 C 
HETATM   19  C   UNL     1      10.251  -2.748  -0.187  1.00  0.00     0.250 C 
HETATM   20  C   UNL     1      12.298  -0.439   0.392  1.00  0.00     0.283 C 
HETATM   21  C   UNL     1      13.078  -1.315   3.208  1.00  0.00     0.250 C 
HETATM   22  C   UNL     1      11.130  -5.970  -0.406  1.00  0.00     0.283 C 
HETATM   23  C   UNL     1      13.702  -6.960   0.835  1.00  0.00     0.250 C 
HETATM   24  C   UNL     1      13.848  -4.797   3.311  1.00  0.00     0.283 C 
HETATM   25  C   UNL     1      10.197  -3.744  -2.523  1.00  0.00     0.153 C 
HETATM   26  C   UNL     1      15.039  -0.090   2.183  1.00  0.00     0.153 C 
HETATM   27  C   UNL     1      13.859  -8.109   2.999  1.00  0.00     0.153 C 
ENDROOT
BRANCH  15  28
HETATM   28  C   UNL     1       9.088  -0.795  -1.241  1.00  0.00     0.016 C 
HETATM   29  C   UNL     1       7.955  -1.391  -0.407  1.00  0.00     0.012 C 
HETATM   30  C   UNL     1       9.077   0.730  -1.144  1.00  0.00     0.012 C 
ENDBRANCH  15  28
BRANCH  14  31
HETATM   31  C   UNL     1      13.113   1.817   1.065  1.00  0.00     0.014 C 
HETATM   32  C   UNL     1      11.980   2.503   0.298  1.00  0.00     0.012 C 
BRANCH  31  33
HETATM   33  C   UNL     1      13.600   2.730   2.204  1.00  0.00     0.002 C 
HETATM   34  C   UNL     1      12.543   2.997   3.266  1.00  0.00     0.005 C 
ENDBRANCH  31  33
ENDBRANCH  14  31
BRANCH  13  35
HETATM   35  C   UNL     1       8.749  -5.958  -1.249  1.00  0.00     0.014 C 
HETATM   36  C   UNL     1       8.236  -7.105  -0.374  1.00  0.00     0.012 C 
BRANCH  35  37
HETATM   37  C   UNL     1       7.570  -5.066  -1.680  1.00  0.00     0.002 C 
HETATM   38  C   UNL     1       6.269  -5.830  -1.879  1.00  0.00     0.005 C 
ENDBRANCH  35  37
ENDBRANCH  13  35
BRANCH  17  39
HETATM   39  C   UNL     1      14.402  -2.231   5.123  1.00  0.00     0.016 C 
HETATM   40  C   UNL     1      13.607  -3.189   6.007  1.00  0.00     0.012 C 
HETATM   41  C   UNL     1      14.173  -0.785   5.558  1.00  0.00     0.012 C 
ENDBRANCH  17  39
BRANCH  18  42
HETATM   42  C   UNL     1      14.111  -5.735  -1.353  1.00  0.00     0.016 C 
HETATM   43  C   UNL     1      13.037  -6.047  -2.395  1.00  0.00     0.012 C 
HETATM   44  C   UNL     1      14.838  -4.438  -1.705  1.00  0.00     0.012 C 
ENDBRANCH  18  42
BRANCH  16  45
HETATM   45  C   UNL     1      12.003  -6.240   4.176  1.00  0.00     0.010 C 
HETATM   46  C   UNL     1      12.031  -7.757   4.359  1.00  0.00     0.012 C 
HETATM   47  C   UNL     1      10.561  -5.740   4.085  1.00  0.00     0.012 C 
ENDBRANCH  16  45
TORSDOF 8
ENDMDL
MODEL 9
REMARK VINA RESULT:    -8.274      1.929      7.630
REMARK INTER + INTRA:          -6.779
REMARK INTER:                  -8.245
REMARK INTRA:                   1.466
REMARK UNBOUND:                 5.365
REMARK  8 active torsions:
REMARK  status: ('A' for Active; 'I' for Inactive)
REMARK    1  A    between atoms: C_13  and  C_15 
REMARK    2  A    between atoms: C_14  and  C_16 
REMARK    3  A    between atoms: C_15  and  C_22 
REMARK    4  A    between atoms: C_16  and  C_23 
REMARK    5  A    between atoms: C_17  and  C_21 
REMARK    6  A    between atoms: C_18  and  C_24 
REMARK    7  A    between atoms: C_19  and  C_27 
REMARK    8  A    between atoms: C_20  and  C_30 
ROOT
HETATM    1  O   UNL     1      12.062  -5.505   0.826  1.00  0.00    -0.304 OA
HETATM    2  O   UNL     1      12.825  -0.925   2.200  1.00  0.00    -0.304 OA
HETATM    3  O   UNL     1       9.123  -1.373   0.609  1.00  0.00    -0.304 OA
HETATM    4  O   UNL     1      11.447  -3.750   2.691  1.00  0.00    -0.270 OA
HETATM    5  O   UNL     1      12.657  -3.926  -0.748  1.00  0.00    -0.263 OA
HETATM    6  O   UNL     1       8.890  -3.954   0.598  1.00  0.00    -0.270 OA
HETATM    7  O   UNL     1      13.375   0.274   4.086  1.00  0.00    -0.263 OA
HETATM    8  O   UNL     1      12.778   2.517   2.006  1.00  0.00    -0.270 OA
HETATM    9  O   UNL     1       9.377   0.763  -0.226  1.00  0.00    -0.263 OA
HETATM   10  N   UNL     1      13.627  -3.212   3.273  1.00  0.00    -0.340 N 
HETATM   11  N   UNL     1       9.947  -4.065  -1.465  1.00  0.00    -0.340 N 
HETATM   12  N   UNL     1      10.710   1.474   2.111  1.00  0.00    -0.340 N 
HETATM   13  C   UNL     1      13.182  -2.148   4.204  1.00  0.00     0.190 C 
HETATM   14  C   UNL     1      10.666  -5.291  -1.068  1.00  0.00     0.190 C 
HETATM   15  C   UNL     1      13.145  -5.107   1.689  1.00  0.00     0.227 C 
HETATM   16  C   UNL     1       9.878   0.252   2.111  1.00  0.00     0.190 C 
HETATM   17  C   UNL     1       8.870  -1.945  -0.692  1.00  0.00     0.227 C 
HETATM   18  C   UNL     1      12.754   0.209   1.330  1.00  0.00     0.227 C 
HETATM   19  C   UNL     1      12.660  -3.964   2.588  1.00  0.00     0.250 C 
HETATM   20  C   UNL     1      11.915  -4.810  -0.342  1.00  0.00     0.283 C 
HETATM   21  C   UNL     1       9.206  -3.413  -0.468  1.00  0.00     0.250 C 
HETATM   22  C   UNL     1      13.187  -0.788   3.506  1.00  0.00     0.283 C 
HETATM   23  C   UNL     1      12.092   1.499   1.862  1.00  0.00     0.250 C 
HETATM   24  C   UNL     1       9.434  -0.046   0.688  1.00  0.00     0.283 C 
HETATM   25  C   UNL     1      15.075  -3.350   3.082  1.00  0.00     0.153 C 
HETATM   26  C   UNL     1      10.156  -3.523  -2.810  1.00  0.00     0.153 C 
HETATM   27  C   UNL     1      10.044   2.746   2.390  1.00  0.00     0.153 C 
ENDROOT
BRANCH  15  28
HETATM   28  C   UNL     1      13.510  -6.320   2.535  1.00  0.00     0.016 C 
HETATM   29  C   UNL     1      12.277  -6.871   3.249  1.00  0.00     0.012 C 
HETATM   30  C   UNL     1      14.157  -7.404   1.674  1.00  0.00     0.012 C 
ENDBRANCH  15  28
BRANCH  14  31
HETATM   31  C   UNL     1      11.058  -6.243  -2.190  1.00  0.00     0.014 C 
HETATM   32  C   UNL     1      12.583  -6.342  -2.276  1.00  0.00     0.012 C 
BRANCH  31  33
HETATM   33  C   UNL     1      10.453  -7.646  -2.004  1.00  0.00     0.002 C 
HETATM   34  C   UNL     1      11.373  -8.771  -2.459  1.00  0.00     0.005 C 
ENDBRANCH  31  33
ENDBRANCH  14  31
BRANCH  13  35
HETATM   35  C   UNL     1      13.978  -2.111   5.508  1.00  0.00     0.014 C 
HETATM   36  C   UNL     1      13.394  -1.047   6.441  1.00  0.00     0.012 C 
BRANCH  35  37
HETATM   37  C   UNL     1      13.998  -3.475   6.222  1.00  0.00     0.002 C 
HETATM   38  C   UNL     1      14.665  -3.436   7.589  1.00  0.00     0.005 C 
ENDBRANCH  35  37
ENDBRANCH  13  35
BRANCH  17  39
HETATM   39  C   UNL     1       7.408  -1.778  -1.064  1.00  0.00     0.016 C 
HETATM   40  C   UNL     1       6.981  -2.857  -2.057  1.00  0.00     0.012 C 
HETATM   41  C   UNL     1       7.156  -0.387  -1.642  1.00  0.00     0.012 C 
ENDBRANCH  17  39
BRANCH  18  42
HETATM   42  C   UNL     1      14.167   0.480   0.810  1.00  0.00     0.016 C 
HETATM   43  C   UNL     1      14.872  -0.829   0.456  1.00  0.00     0.012 C 
HETATM   44  C   UNL     1      14.128   1.411  -0.399  1.00  0.00     0.012 C 
ENDBRANCH  18  42
BRANCH  16  45
HETATM   45  C   UNL     1       8.666   0.295   3.039  1.00  0.00     0.010 C 
HETATM   46  C   UNL     1       8.852  -0.660   4.217  1.00  0.00     0.012 C 
HETATM   47  C   UNL     1       7.386  -0.043   2.275  1.00  0.00     0.012 C 
ENDBRANCH  16  45
TORSDOF 8
ENDMDL
MODEL 10
REMARK VINA RESULT:    -8.202      2.479      6.939
REMARK INTER + INTRA:          -6.673
REMARK INTER:                  -8.165
REMARK INTRA:                   1.492
REMARK UNBOUND:                 5.365
REMARK  8 active torsions:
REMARK  status: ('A' for Active; 'I' for Inactive)
REMARK    1  A    between atoms: C_13  and  C_15 
REMARK    2  A    between atoms: C_14  and  C_16 
REMARK    3  A    between atoms: C_15  and  C_22 
REMARK    4  A    between atoms: C_16  and  C_23 
REMARK    5  A    between atoms: C_17  and  C_21 
REMARK    6  A    between atoms: C_18  and  C_24 
REMARK    7  A    between atoms: C_19  and  C_27 
REMARK    8  A    between atoms: C_20  and  C_30 
ROOT
HETATM    1  O   UNL     1      10.154  -4.067   0.664  1.00  0.00    -0.304 OA
HETATM    2  O   UNL     1      13.383  -0.759   2.106  1.00  0.00    -0.304 OA
HETATM    3  O   UNL     1       9.764   0.937   1.425  1.00  0.00    -0.304 OA
HETATM    4  O   UNL     1      10.862  -2.595   2.731  1.00  0.00    -0.270 OA
HETATM    5  O   UNL     1      11.190  -2.725  -0.902  1.00  0.00    -0.263 OA
HETATM    6  O   UNL     1       8.244  -1.158   1.304  1.00  0.00    -0.270 OA
HETATM    7  O   UNL     1      14.789  -0.334   3.879  1.00  0.00    -0.263 OA
HETATM    8  O   UNL     1      15.075   2.245   2.152  1.00  0.00    -0.270 OA
HETATM    9  O   UNL     1      10.927   2.789   0.693  1.00  0.00    -0.263 OA
HETATM   10  N   UNL     1      13.072  -3.297   2.806  1.00  0.00    -0.340 N 
HETATM   11  N   UNL     1       8.715  -1.401  -0.955  1.00  0.00    -0.340 N 
HETATM   12  N   UNL     1      12.820   2.337   2.682  1.00  0.00    -0.340 N 
HETATM   13  C   UNL     1      13.405  -2.335   3.883  1.00  0.00     0.190 C 
HETATM   14  C   UNL     1       8.760  -2.870  -0.822  1.00  0.00     0.190 C 
HETATM   15  C   UNL     1      11.419  -4.405   1.266  1.00  0.00     0.227 C 
HETATM   16  C   UNL     1      11.494   1.695   2.803  1.00  0.00     0.190 C 
HETATM   17  C   UNL     1       9.032   0.800   0.188  1.00  0.00     0.227 C 
HETATM   18  C   UNL     1      13.754   0.400   1.354  1.00  0.00     0.227 C 
HETATM   19  C   UNL     1      11.754  -3.349   2.326  1.00  0.00     0.250 C 
HETATM   20  C   UNL     1      10.184  -3.193  -0.388  1.00  0.00     0.283 C 
HETATM   21  C   UNL     1       8.601  -0.660   0.231  1.00  0.00     0.250 C 
HETATM   22  C   UNL     1      13.985  -1.049   3.293  1.00  0.00     0.283 C 
HETATM   23  C   UNL     1      13.951   1.732   2.111  1.00  0.00     0.250 C 
HETATM   24  C   UNL     1      10.720   1.907   1.512  1.00  0.00     0.283 C 
HETATM   25  C   UNL     1      14.185  -4.084   2.265  1.00  0.00     0.153 C 
HETATM   26  C   UNL     1       8.934  -0.800  -2.273  1.00  0.00     0.153 C 
HETATM   27  C   UNL     1      12.961   3.700   3.195  1.00  0.00     0.153 C 
ENDROOT
BRANCH  15  28
HETATM   28  C   UNL     1      11.251  -5.770   1.919  1.00  0.00     0.016 C 
HETATM   29  C   UNL     1       9.798  -6.233   1.835  1.00  0.00     0.012 C 
HETATM   30  C   UNL     1      12.178  -6.797   1.270  1.00  0.00     0.012 C 
ENDBRANCH  15  28
BRANCH  14  31
HETATM   31  C   UNL     1       8.406  -3.677  -2.064  1.00  0.00     0.014 C 
HETATM   32  C   UNL     1       9.483  -4.733  -2.319  1.00  0.00     0.012 C 
BRANCH  31  33
HETATM   33  C   UNL     1       7.028  -4.353  -1.949  1.00  0.00     0.002 C 
HETATM   34  C   UNL     1       6.976  -5.453  -0.897  1.00  0.00     0.005 C 
ENDBRANCH  31  33
ENDBRANCH  14  31
BRANCH  13  35
HETATM   35  C   UNL     1      14.320  -2.921   4.958  1.00  0.00     0.014 C 
HETATM   36  C   UNL     1      15.047  -1.791   5.692  1.00  0.00     0.012 C 
BRANCH  35  37
HETATM   37  C   UNL     1      13.554  -3.791   5.970  1.00  0.00     0.002 C 
HETATM   38  C   UNL     1      13.835  -3.427   7.421  1.00  0.00     0.005 C 
ENDBRANCH  35  37
ENDBRANCH  13  35
BRANCH  17  39
HETATM   39  C   UNL     1       7.823   1.718   0.189  1.00  0.00     0.016 C 
HETATM   40  C   UNL     1       6.572   0.959  -0.247  1.00  0.00     0.012 C 
HETATM   41  C   UNL     1       8.063   2.923  -0.718  1.00  0.00     0.012 C 
ENDBRANCH  17  39
BRANCH  18  42
HETATM   42  C   UNL     1      14.990   0.038   0.529  1.00  0.00     0.016 C 
HETATM   43  C   UNL     1      14.994  -1.452   0.187  1.00  0.00     0.012 C 
HETATM   44  C   UNL     1      15.054   0.879  -0.745  1.00  0.00     0.012 C 
ENDBRANCH  18  42
BRANCH  16  45
HETATM   45  C   UNL     1      10.659   2.156   3.996  1.00  0.00     0.010 C 
HETATM   46  C   UNL     1      11.281   1.679   5.308  1.00  0.00     0.012 C 
HETATM   47  C   UNL     1       9.220   1.656   3.875  1.00  0.00     0.012 C 
ENDBRANCH  16  45
TORSDOF 8
ENDMDL
MODEL 11
REMARK VINA RESULT:    -7.796      1.804      6.910
REMARK INTER + INTRA:          -6.077
REMARK INTER:                  -8.661
REMARK INTRA:                   2.584
REMARK UNBOUND:                 5.365
REMARK  8 active torsions:
REMARK  status: ('A' for Active; 'I' for Inactive)
REMARK    1  A    between atoms: C_13  and  C_15 
REMARK    2  A    between atoms: C_14  and  C_16 
REMARK    3  A    between atoms: C_15  and  C_22 
REMARK    4  A    between atoms: C_16  and  C_23 
REMARK    5  A    between atoms: C_17  and  C_21 
REMARK    6  A    between atoms: C_18  and  C_24 
REMARK    7  A    between atoms: C_19  and  C_27 
REMARK    8  A    between atoms: C_20  and  C_30 
ROOT
HETATM    1  O   UNL     1       7.412  -3.220  -1.569  1.00  0.00    -0.304 OA
HETATM    2  O   UNL     1      11.210  -3.356   1.432  1.00  0.00    -0.304 OA
HETATM    3  O   UNL     1      11.444  -6.295  -1.351  1.00  0.00    -0.304 OA
HETATM    4  O   UNL     1       9.981  -2.657  -1.418  1.00  0.00    -0.270 OA
HETATM    5  O   UNL     1       7.434  -4.731   0.176  1.00  0.00    -0.263 OA
HETATM    6  O   UNL     1       9.657  -5.514  -3.057  1.00  0.00    -0.270 OA
HETATM    7  O   UNL     1      12.928  -2.004   2.151  1.00  0.00    -0.263 OA
HETATM    8  O   UNL     1      13.616  -4.740   3.477  1.00  0.00    -0.270 OA
HETATM    9  O   UNL     1      12.421  -7.582   0.296  1.00  0.00    -0.263 OA
HETATM   10  N   UNL     1       9.841  -1.304   0.461  1.00  0.00    -0.340 N 
HETATM   11  N   UNL     1       7.995  -6.593  -1.849  1.00  0.00    -0.340 N 
HETATM   12  N   UNL     1      13.732  -5.314   1.234  1.00  0.00    -0.340 N 
HETATM   13  C   UNL     1      11.313  -1.157   0.541  1.00  0.00     0.190 C 
HETATM   14  C   UNL     1       7.047  -5.492  -2.105  1.00  0.00     0.190 C 
HETATM   15  C   UNL     1       7.762  -2.137  -0.684  1.00  0.00     0.227 C 
HETATM   16  C   UNL     1      13.173  -5.297  -0.135  1.00  0.00     0.190 C 
HETATM   17  C   UNL     1      10.393  -7.255  -1.597  1.00  0.00     0.227 C 
HETATM   18  C   UNL     1      11.569  -4.479   2.241  1.00  0.00     0.227 C 
HETATM   19  C   UNL     1       9.290  -2.063  -0.582  1.00  0.00     0.250 C 
HETATM   20  C   UNL     1       7.314  -4.465  -1.013  1.00  0.00     0.283 C 
HETATM   21  C   UNL     1       9.323  -6.395  -2.257  1.00  0.00     0.250 C 
HETATM   22  C   UNL     1      11.904  -2.186   1.505  1.00  0.00     0.283 C 
HETATM   23  C   UNL     1      13.066  -4.837   2.374  1.00  0.00     0.250 C 
HETATM   24  C   UNL     1      12.328  -6.544  -0.341  1.00  0.00     0.283 C 
HETATM   25  C   UNL     1       9.063  -0.691   1.543  1.00  0.00     0.153 C 
HETATM   26  C   UNL     1       7.547  -7.749  -1.069  1.00  0.00     0.153 C 
HETATM   27  C   UNL     1      15.075  -5.867   1.410  1.00  0.00     0.153 C 
ENDROOT
BRANCH  15  28
HETATM   28  C   UNL     1       7.215  -0.859  -1.307  1.00  0.00     0.016 C 
HETATM   29  C   UNL     1       6.230  -1.184  -2.428  1.00  0.00     0.012 C 
HETATM   30  C   UNL     1       6.550   0.017  -0.247  1.00  0.00     0.012 C 
ENDBRANCH  15  28
BRANCH  14  31
HETATM   31  C   UNL     1       5.568  -5.856  -2.118  1.00  0.00     0.014 C 
HETATM   32  C   UNL     1       4.868  -5.218  -0.916  1.00  0.00     0.012 C 
BRANCH  31  33
HETATM   33  C   UNL     1       4.871  -5.423  -3.419  1.00  0.00     0.002 C 
HETATM   34  C   UNL     1       4.004  -6.512  -4.037  1.00  0.00     0.005 C 
ENDBRANCH  31  33
ENDBRANCH  14  31
BRANCH  13  35
HETATM   35  C   UNL     1      11.763   0.261   0.891  1.00  0.00     0.014 C 
HETATM   36  C   UNL     1      13.235   0.447   0.511  1.00  0.00     0.012 C 
BRANCH  35  37
HETATM   37  C   UNL     1      10.907   1.337   0.199  1.00  0.00     0.002 C 
HETATM   38  C   UNL     1      10.678   2.576   1.053  1.00  0.00     0.005 C 
ENDBRANCH  35  37
ENDBRANCH  13  35
BRANCH  17  39
HETATM   39  C   UNL     1      10.879  -8.332  -2.549  1.00  0.00     0.016 C 
HETATM   40  C   UNL     1       9.734  -9.267  -2.931  1.00  0.00     0.012 C 
HETATM   41  C   UNL     1      12.030  -9.120  -1.926  1.00  0.00     0.012 C 
ENDBRANCH  17  39
BRANCH  18  42
HETATM   42  C   UNL     1      10.916  -4.289   3.611  1.00  0.00     0.016 C 
HETATM   43  C   UNL     1      10.012  -3.056   3.612  1.00  0.00     0.012 C 
HETATM   44  C   UNL     1      10.124  -5.532   4.009  1.00  0.00     0.012 C 
ENDBRANCH  18  42
BRANCH  16  45
HETATM   45  C   UNL     1      14.206  -5.174  -1.253  1.00  0.00     0.010 C 
HETATM   46  C   UNL     1      14.370  -3.715  -1.680  1.00  0.00     0.012 C 
HETATM   47  C   UNL     1      13.813  -6.039  -2.450  1.00  0.00     0.012 C 
ENDBRANCH  16  45
TORSDOF 8
ENDMDL
MODEL 12
REMARK VINA RESULT:    -7.589      2.114      7.238
REMARK INTER + INTRA:          -5.773
REMARK INTER:                  -8.251
REMARK INTRA:                   2.478
REMARK UNBOUND:                 5.365
REMARK  8 active torsions:
REMARK  status: ('A' for Active; 'I' for Inactive)
REMARK    1  A    between atoms: C_13  and  C_15 
REMARK    2  A    between atoms: C_14  and  C_16 
REMARK    3  A    between atoms: C_15  and  C_22 
REMARK    4  A    between atoms: C_16  and  C_23 
REMARK    5  A    between atoms: C_17  and  C_21 
REMARK    6  A    between atoms: C_18  and  C_24 
REMARK    7  A    between atoms: C_19  and  C_27 
REMARK    8  A    between atoms: C_20  and  C_30 
ROOT
HETATM    1  O   UNL     1       8.728  -3.234  -1.178  1.00  0.00    -0.304 OA
HETATM    2  O   UNL     1      10.678   0.188   1.640  1.00  0.00    -0.304 OA
HETATM    3  O   UNL     1      13.529  -2.295   0.176  1.00  0.00    -0.304 OA
HETATM    4  O   UNL     1      10.117  -0.997  -1.258  1.00  0.00    -0.270 OA
HETATM    5  O   UNL     1       9.275  -3.731   1.009  1.00  0.00    -0.263 OA
HETATM    6  O   UNL     1      12.217  -3.518  -1.694  1.00  0.00    -0.270 OA
HETATM    7  O   UNL     1      10.797   2.482   1.790  1.00  0.00    -0.263 OA
HETATM    8  O   UNL     1      12.732   1.553   4.050  1.00  0.00    -0.270 OA
HETATM    9  O   UNL     1      14.624  -1.992   2.184  1.00  0.00    -0.263 OA
HETATM   10  N   UNL     1       8.622   0.283  -0.031  1.00  0.00    -0.340 N 
HETATM   11  N   UNL     1      11.441  -5.079  -0.162  1.00  0.00    -0.340 N 
HETATM   12  N   UNL     1      13.793   0.663   2.190  1.00  0.00    -0.340 N 
HETATM   13  C   UNL     1       9.536   1.450  -0.016  1.00  0.00     0.190 C 
HETATM   14  C   UNL     1      10.117  -5.110  -0.814  1.00  0.00     0.190 C 
HETATM   15  C   UNL     1       8.021  -2.046  -0.770  1.00  0.00     0.227 C 
HETATM   16  C   UNL     1      13.757  -0.089   0.919  1.00  0.00     0.190 C 
HETATM   17  C   UNL     1      13.493  -3.731   0.314  1.00  0.00     0.227 C 
HETATM   18  C   UNL     1      11.456  -0.068   2.813  1.00  0.00     0.227 C 
HETATM   19  C   UNL     1       9.017  -0.881  -0.707  1.00  0.00     0.250 C 
HETATM   20  C   UNL     1       9.334  -3.962  -0.192  1.00  0.00     0.283 C 
HETATM   21  C   UNL     1      12.351  -4.113  -0.619  1.00  0.00     0.250 C 
HETATM   22  C   UNL     1      10.372   1.461   1.263  1.00  0.00     0.283 C 
HETATM   23  C   UNL     1      12.706   0.803   3.068  1.00  0.00     0.250 C 
HETATM   24  C   UNL     1      14.043  -1.555   1.202  1.00  0.00     0.283 C 
HETATM   25  C   UNL     1       7.382   0.415   0.742  1.00  0.00     0.153 C 
HETATM   26  C   UNL     1      11.682  -5.940   0.998  1.00  0.00     0.153 C 
HETATM   27  C   UNL     1      15.053   1.310   2.558  1.00  0.00     0.153 C 
ENDROOT
BRANCH  15  28
HETATM   28  C   UNL     1       6.961  -1.773  -1.828  1.00  0.00     0.016 C 
HETATM   29  C   UNL     1       6.384  -3.082  -2.364  1.00  0.00     0.012 C 
HETATM   30  C   UNL     1       5.849  -0.890  -1.263  1.00  0.00     0.012 C 
ENDBRANCH  15  28
BRANCH  14  31
HETATM   31  C   UNL     1       9.325  -6.404  -0.683  1.00  0.00     0.014 C 
HETATM   32  C   UNL     1       7.901  -6.093  -0.216  1.00  0.00     0.012 C 
BRANCH  31  33
HETATM   33  C   UNL     1       9.281  -7.198  -2.001  1.00  0.00     0.002 C 
HETATM   34  C   UNL     1      10.561  -7.968  -2.291  1.00  0.00     0.005 C 
ENDBRANCH  31  33
ENDBRANCH  14  31
BRANCH  13  35
HETATM   35  C   UNL     1       8.821   2.783  -0.230  1.00  0.00     0.014 C 
HETATM   36  C   UNL     1       9.682   3.699  -1.104  1.00  0.00     0.012 C 
BRANCH  35  37
HETATM   37  C   UNL     1       7.432   2.609  -0.870  1.00  0.00     0.002 C 
HETATM   38  C   UNL     1       6.443   3.700  -0.485  1.00  0.00     0.005 C 
ENDBRANCH  35  37
ENDBRANCH  13  35
BRANCH  17  39
HETATM   39  C   UNL     1      14.800  -4.338  -0.162  1.00  0.00     0.016 C 
HETATM   40  C   UNL     1      14.776  -4.550  -1.673  1.00  0.00     0.012 C 
HETATM   41  C   UNL     1      15.075  -5.655   0.561  1.00  0.00     0.012 C 
ENDBRANCH  17  39
BRANCH  18  42
HETATM   42  C   UNL     1      10.505  -0.044   4.011  1.00  0.00     0.016 C 
HETATM   43  C   UNL     1       9.169  -0.695   3.653  1.00  0.00     0.012 C 
HETATM   44  C   UNL     1      11.134  -0.743   5.214  1.00  0.00     0.012 C 
ENDBRANCH  18  42
BRANCH  16  45
HETATM   45  C   UNL     1      14.699   0.428  -0.166  1.00  0.00     0.010 C 
HETATM   46  C   UNL     1      14.674   1.955  -0.221  1.00  0.00     0.012 C 
HETATM   47  C   UNL     1      14.332  -0.161  -1.528  1.00  0.00     0.012 C 
ENDBRANCH  16  45
TORSDOF 8
ENDMDL
MODEL 13
REMARK VINA RESULT:    -7.531      2.204      6.270
REMARK INTER + INTRA:          -5.689
REMARK INTER:                  -8.089
REMARK INTRA:                   2.400
REMARK UNBOUND:                 5.365
REMARK  8 active torsions:
REMARK  status: ('A' for Active; 'I' for Inactive)
REMARK    1  A    between atoms: C_13  and  C_15 
REMARK    2  A    between atoms: C_14  and  C_16 
REMARK    3  A    between atoms: C_15  and  C_22 
REMARK    4  A    between atoms: C_16  and  C_23 
REMARK    5  A    between atoms: C_17  and  C_21 
REMARK    6  A    between atoms: C_18  and  C_24 
REMARK    7  A    between atoms: C_19  and  C_27 
REMARK    8  A    between atoms: C_20  and  C_30 
ROOT
HETATM    1  O   UNL     1      10.841   0.107   3.408  1.00  0.00    -0.304 OA
HETATM    2  O   UNL     1       9.620  -1.769  -0.886  1.00  0.00    -0.304 OA
HETATM    3  O   UNL     1      10.544  -4.688   1.771  1.00  0.00    -0.304 OA
HETATM    4  O   UNL     1       8.897  -1.149   2.149  1.00  0.00    -0.270 OA
HETATM    5  O   UNL     1      12.494  -0.562   1.943  1.00  0.00    -0.263 OA
HETATM    6  O   UNL     1      10.514  -3.366   4.000  1.00  0.00    -0.270 OA
HETATM    7  O   UNL     1       7.858  -1.765  -2.367  1.00  0.00    -0.263 OA
HETATM    8  O   UNL     1       9.802  -3.847  -3.631  1.00  0.00    -0.270 OA
HETATM    9  O   UNL     1      11.411  -5.852  -0.022  1.00  0.00    -0.263 OA
HETATM   10  N   UNL     1       8.702   0.361   0.398  1.00  0.00    -0.340 N 
HETATM   11  N   UNL     1      12.730  -2.747   3.691  1.00  0.00    -0.340 N 
HETATM   12  N   UNL     1       9.341  -4.874  -1.604  1.00  0.00    -0.340 N 
HETATM   13  C   UNL     1       7.709  -0.486  -0.303  1.00  0.00     0.190 C 
HETATM   14  C   UNL     1      12.464  -1.399   4.230  1.00  0.00     0.190 C 
HETATM   15  C   UNL     1      10.178   0.862   2.373  1.00  0.00     0.227 C 
HETATM   16  C   UNL     1       9.196  -4.824  -0.134  1.00  0.00     0.190 C 
HETATM   17  C   UNL     1      11.782  -4.738   2.512  1.00  0.00     0.227 C 
HETATM   18  C   UNL     1      10.464  -2.611  -1.677  1.00  0.00     0.227 C 
HETATM   19  C   UNL     1       9.209  -0.069   1.634  1.00  0.00     0.250 C 
HETATM   20  C   UNL     1      11.966  -0.581   3.047  1.00  0.00     0.283 C 
HETATM   21  C   UNL     1      11.619  -3.580   3.487  1.00  0.00     0.250 C 
HETATM   22  C   UNL     1       8.396  -1.376  -1.338  1.00  0.00     0.283 C 
HETATM   23  C   UNL     1       9.825  -3.820  -2.396  1.00  0.00     0.250 C 
HETATM   24  C   UNL     1      10.520  -5.204   0.508  1.00  0.00     0.283 C 
HETATM   25  C   UNL     1       9.141   1.571  -0.304  1.00  0.00     0.153 C 
HETATM   26  C   UNL     1      14.090  -3.087   3.267  1.00  0.00     0.153 C 
HETATM   27  C   UNL     1       8.949  -6.111  -2.281  1.00  0.00     0.153 C 
ENDROOT
BRANCH  15  28
HETATM   28  C   UNL     1       9.409   1.981   3.061  1.00  0.00     0.016 C 
HETATM   29  C   UNL     1       9.271   1.701   4.557  1.00  0.00     0.012 C 
HETATM   30  C   UNL     1      10.093   3.328   2.830  1.00  0.00     0.012 C 
ENDBRANCH  15  28
BRANCH  14  31
HETATM   31  C   UNL     1      13.637  -0.688   4.891  1.00  0.00     0.014 C 
HETATM   32  C   UNL     1      13.374   0.820   4.925  1.00  0.00     0.012 C 
BRANCH  31  33
HETATM   33  C   UNL     1      13.906  -1.203   6.316  1.00  0.00     0.002 C 
HETATM   34  C   UNL     1      13.992  -0.097   7.358  1.00  0.00     0.005 C 
ENDBRANCH  31  33
ENDBRANCH  14  31
BRANCH  13  35
HETATM   35  C   UNL     1       6.562   0.312  -0.923  1.00  0.00     0.014 C 
HETATM   36  C   UNL     1       5.260  -0.487  -0.821  1.00  0.00     0.012 C 
BRANCH  35  37
HETATM   37  C   UNL     1       6.380   1.690  -0.262  1.00  0.00     0.002 C 
HETATM   38  C   UNL     1       5.251   2.511  -0.867  1.00  0.00     0.005 C 
ENDBRANCH  35  37
ENDBRANCH  13  35
BRANCH  17  39
HETATM   39  C   UNL     1      11.895  -6.056   3.258  1.00  0.00     0.016 C 
HETATM   40  C   UNL     1      10.558  -6.429   3.893  1.00  0.00     0.012 C 
HETATM   41  C   UNL     1      12.991  -5.980   4.319  1.00  0.00     0.012 C 
ENDBRANCH  17  39
BRANCH  18  42
HETATM   42  C   UNL     1      11.221  -1.714  -2.658  1.00  0.00     0.016 C 
HETATM   43  C   UNL     1      10.409  -0.459  -2.980  1.00  0.00     0.012 C 
HETATM   44  C   UNL     1      12.590  -1.335  -2.096  1.00  0.00     0.012 C 
ENDBRANCH  18  42
BRANCH  16  45
HETATM   45  C   UNL     1       8.071  -5.687   0.435  1.00  0.00     0.010 C 
HETATM   46  C   UNL     1       8.534  -7.133   0.605  1.00  0.00     0.012 C 
HETATM   47  C   UNL     1       6.834  -5.624  -0.460  1.00  0.00     0.012 C 
ENDBRANCH  16  45
TORSDOF 8
ENDMDL
MODEL 14
REMARK VINA RESULT:    -7.517      2.060      5.995
REMARK INTER + INTRA:          -5.668
REMARK INTER:                  -6.869
REMARK INTRA:                   1.201
REMARK UNBOUND:                 5.365
REMARK  8 active torsions:
REMARK  status: ('A' for Active; 'I' for Inactive)
REMARK    1  A    between atoms: C_13  and  C_15 
REMARK    2  A    between atoms: C_14  and  C_16 
REMARK    3  A    between atoms: C_15  and  C_22 
REMARK    4  A    between atoms: C_16  and  C_23 
REMARK    5  A    between atoms: C_17  and  C_21 
REMARK    6  A    between atoms: C_18  and  C_24 
REMARK    7  A    between atoms: C_19  and  C_27 
REMARK    8  A    between atoms: C_20  and  C_30 
ROOT
HETATM    1  O   UNL     1      11.722  -0.832   4.415  1.00  0.00    -0.304 OA
HETATM    2  O   UNL     1      11.624  -2.584  -0.098  1.00  0.00    -0.304 OA
HETATM    3  O   UNL     1      12.057  -5.566   2.614  1.00  0.00    -0.304 OA
HETATM    4  O   UNL     1      10.189  -2.118   2.702  1.00  0.00    -0.270 OA
HETATM    5  O   UNL     1      13.701  -1.371   3.356  1.00  0.00    -0.263 OA
HETATM    6  O   UNL     1      11.446  -4.337   4.812  1.00  0.00    -0.270 OA
HETATM    7  O   UNL     1      10.253  -2.596  -1.948  1.00  0.00    -0.263 OA
HETATM    8  O   UNL     1      12.541  -4.540  -2.785  1.00  0.00    -0.270 OA
HETATM    9  O   UNL     1      13.372  -6.618   1.038  1.00  0.00    -0.263 OA
HETATM   10  N   UNL     1      10.327  -0.549   0.999  1.00  0.00    -0.340 N 
HETATM   11  N   UNL     1      13.638  -3.612   5.046  1.00  0.00    -0.340 N 
HETATM   12  N   UNL     1      11.677  -5.667  -0.953  1.00  0.00    -0.340 N 
HETATM   13  C   UNL     1       9.567  -1.409   0.061  1.00  0.00     0.190 C 
HETATM   14  C   UNL     1      13.186  -2.300   5.548  1.00  0.00     0.190 C 
HETATM   15  C   UNL     1      11.279  -0.066   3.277  1.00  0.00     0.227 C 
HETATM   16  C   UNL     1      11.194  -5.682   0.444  1.00  0.00     0.190 C 
HETATM   17  C   UNL     1      13.091  -5.593   3.621  1.00  0.00     0.227 C 
HETATM   18  C   UNL     1      12.670  -3.357  -0.696  1.00  0.00     0.227 C 
HETATM   19  C   UNL     1      10.555  -1.006   2.306  1.00  0.00     0.250 C 
HETATM   20  C   UNL     1      12.934  -1.457   4.306  1.00  0.00     0.283 C 
HETATM   21  C   UNL     1      12.648  -4.483   4.565  1.00  0.00     0.250 C 
HETATM   22  C   UNL     1      10.519  -2.226  -0.811  1.00  0.00     0.283 C 
HETATM   23  C   UNL     1      12.277  -4.562  -1.578  1.00  0.00     0.250 C 
HETATM   24  C   UNL     1      12.352  -6.031   1.365  1.00  0.00     0.283 C 
HETATM   25  C   UNL     1      10.854   0.706   0.454  1.00  0.00     0.153 C 
HETATM   26  C   UNL     1      15.075  -3.876   4.941  1.00  0.00     0.153 C 
HETATM   27  C   UNL     1      11.516  -6.891  -1.738  1.00  0.00     0.153 C 
ENDROOT
BRANCH  15  28
HETATM   28  C   UNL     1      10.315   0.991   3.800  1.00  0.00     0.016 C 
HETATM   29  C   UNL     1       9.909   0.685   5.240  1.00  0.00     0.012 C 
HETATM   30  C   UNL     1      10.938   2.383   3.704  1.00  0.00     0.012 C 
ENDBRANCH  15  28
BRANCH  14  31
HETATM   31  C   UNL     1      14.137  -1.566   6.484  1.00  0.00     0.014 C 
HETATM   32  C   UNL     1      13.796  -0.074   6.501  1.00  0.00     0.012 C 
BRANCH  31  33
HETATM   33  C   UNL     1      14.097  -2.127   7.916  1.00  0.00     0.002 C 
HETATM   34  C   UNL     1      13.017  -1.498   8.787  1.00  0.00     0.005 C 
ENDBRANCH  31  33
ENDBRANCH  14  31
BRANCH  13  35
HETATM   35  C   UNL     1       8.555  -0.637  -0.785  1.00  0.00     0.014 C 
HETATM   36  C   UNL     1       7.626  -1.617  -1.506  1.00  0.00     0.012 C 
BRANCH  35  37
HETATM   37  C   UNL     1       7.721   0.350   0.051  1.00  0.00     0.002 C 
HETATM   38  C   UNL     1       6.341   0.625  -0.528  1.00  0.00     0.005 C 
ENDBRANCH  35  37
ENDBRANCH  13  35
BRANCH  17  39
HETATM   39  C   UNL     1      13.096  -6.934   4.333  1.00  0.00     0.016 C 
HETATM   40  C   UNL     1      14.135  -7.866   3.715  1.00  0.00     0.012 C 
HETATM   41  C   UNL     1      11.708  -7.571   4.287  1.00  0.00     0.012 C 
ENDBRANCH  17  39
BRANCH  18  42
HETATM   42  C   UNL     1      13.586  -2.389  -1.446  1.00  0.00     0.016 C 
HETATM   43  C   UNL     1      13.580  -1.013  -0.781  1.00  0.00     0.012 C 
HETATM   44  C   UNL     1      15.008  -2.941  -1.522  1.00  0.00     0.012 C 
ENDBRANCH  18  42
BRANCH  16  45
HETATM   45  C   UNL     1      10.014  -6.615   0.710  1.00  0.00     0.010 C 
HETATM   46  C   UNL     1       8.918  -6.412  -0.335  1.00  0.00     0.012 C 
HETATM   47  C   UNL     1       9.457  -6.396   2.117  1.00  0.00     0.012 C 
ENDBRANCH  16  45
TORSDOF 8
ENDMDL
MODEL 15
REMARK VINA RESULT:    -7.396      1.475      6.448
REMARK INTER + INTRA:          -5.490
REMARK INTER:                  -9.608
REMARK INTRA:                   4.117
REMARK UNBOUND:                 5.365
REMARK  8 active torsions:
REMARK  status: ('A' for Active; 'I' for Inactive)
REMARK    1  A    between atoms: C_13  and  C_15 
REMARK    2  A    between atoms: C_14  and  C_16 
REMARK    3  A    between atoms: C_15  and  C_22 
REMARK    4  A    between atoms: C_16  and  C_23 
REMARK    5  A    between atoms: C_17  and  C_21 
REMARK    6  A    between atoms: C_18  and  C_24 
REMARK    7  A    between atoms: C_19  and  C_27 
REMARK    8  A    between atoms: C_20  and  C_30 
ROOT
HETATM    1  O   UNL     1       9.552  -1.199  -1.288  1.00  0.00    -0.304 OA
HETATM    2  O   UNL     1      12.855  -3.266   1.587  1.00  0.00    -0.304 OA
HETATM    3  O   UNL     1      11.654  -5.819  -1.325  1.00  0.00    -0.304 OA
HETATM    4  O   UNL     1      12.083  -1.923  -1.191  1.00  0.00    -0.270 OA
HETATM    5  O   UNL     1       8.870  -2.631   0.389  1.00  0.00    -0.263 OA
HETATM    6  O   UNL     1      10.437  -4.200  -2.941  1.00  0.00    -0.270 OA
HETATM    7  O   UNL     1      15.013  -2.925   2.311  1.00  0.00    -0.263 OA
HETATM    8  O   UNL     1      14.335  -5.727   3.496  1.00  0.00    -0.270 OA
HETATM    9  O   UNL     1      11.918  -7.499   0.234  1.00  0.00    -0.263 OA
HETATM   10  N   UNL     1      12.612  -0.764   0.748  1.00  0.00    -0.340 N 
HETATM   11  N   UNL     1       8.471  -4.429  -1.730  1.00  0.00    -0.340 N 
HETATM   12  N   UNL     1      14.151  -6.169   1.228  1.00  0.00    -0.340 N 
HETATM   13  C   UNL     1      13.979  -1.333   0.789  1.00  0.00     0.190 C 
HETATM   14  C   UNL     1       8.154  -2.999  -1.910  1.00  0.00     0.190 C 
HETATM   15  C   UNL     1      10.378  -0.457  -0.369  1.00  0.00     0.227 C 
HETATM   16  C   UNL     1      13.658  -5.819  -0.121  1.00  0.00     0.190 C 
HETATM   17  C   UNL     1      10.274  -6.156  -1.581  1.00  0.00     0.227 C 
HETATM   18  C   UNL     1      12.646  -4.468   2.336  1.00  0.00     0.227 C 
HETATM   19  C   UNL     1      11.760  -1.118  -0.310  1.00  0.00     0.250 C 
HETATM   20  C   UNL     1       8.882  -2.279  -0.783  1.00  0.00     0.283 C 
HETATM   21  C   UNL     1       9.732  -4.859  -2.169  1.00  0.00     0.250 C 
HETATM   22  C   UNL     1      14.020  -2.568   1.689  1.00  0.00     0.283 C 
HETATM   23  C   UNL     1      13.798  -5.495   2.408  1.00  0.00     0.250 C 
HETATM   24  C   UNL     1      12.323  -6.508  -0.354  1.00  0.00     0.283 C 
HETATM   25  C   UNL     1      12.223   0.086   1.879  1.00  0.00     0.153 C 
HETATM   26  C   UNL     1       7.535  -5.276  -0.987  1.00  0.00     0.153 C 
HETATM   27  C   UNL     1      15.075  -7.299   1.339  1.00  0.00     0.153 C 
ENDROOT
BRANCH  15  28
HETATM   28  C   UNL     1      10.496   0.958  -0.919  1.00  0.00     0.016 C 
HETATM   29  C   UNL     1       9.946   1.031  -2.342  1.00  0.00     0.012 C 
HETATM   30  C   UNL     1       9.771   1.952  -0.013  1.00  0.00     0.012 C 
ENDBRANCH  15  28
BRANCH  14  31
HETATM   31  C   UNL     1       6.678  -2.622  -1.893  1.00  0.00     0.014 C 
HETATM   32  C   UNL     1       5.830  -3.869  -1.631  1.00  0.00     0.012 C 
BRANCH  31  33
HETATM   33  C   UNL     1       6.362  -1.545  -0.841  1.00  0.00     0.002 C 
HETATM   34  C   UNL     1       5.843  -0.244  -1.439  1.00  0.00     0.005 C 
ENDBRANCH  31  33
ENDBRANCH  14  31
BRANCH  13  35
HETATM   35  C   UNL     1      15.048  -0.316   1.186  1.00  0.00     0.014 C 
HETATM   36  C   UNL     1      14.925   0.935   0.311  1.00  0.00     0.012 C 
BRANCH  35  37
HETATM   37  C   UNL     1      14.961   0.079   2.672  1.00  0.00     0.002 C 
HETATM   38  C   UNL     1      15.034   1.580   2.908  1.00  0.00     0.005 C 
ENDBRANCH  35  37
ENDBRANCH  13  35
BRANCH  17  39
HETATM   39  C   UNL     1      10.186  -7.283  -2.593  1.00  0.00     0.016 C 
HETATM   40  C   UNL     1       9.001  -8.193  -2.281  1.00  0.00     0.012 C 
HETATM   41  C   UNL     1      11.487  -8.085  -2.616  1.00  0.00     0.012 C 
ENDBRANCH  17  39
BRANCH  18  42
HETATM   42  C   UNL     1      12.169  -4.064   3.732  1.00  0.00     0.016 C 
HETATM   43  C   UNL     1      11.313  -2.799   3.665  1.00  0.00     0.012 C 
HETATM   44  C   UNL     1      11.391  -5.202   4.387  1.00  0.00     0.012 C 
ENDBRANCH  18  42
BRANCH  16  45
HETATM   45  C   UNL     1      14.619  -6.139  -1.264  1.00  0.00     0.010 C 
HETATM   46  C   UNL     1      14.640  -5.004  -2.286  1.00  0.00     0.012 C 
HETATM   47  C   UNL     1      14.239  -7.457  -1.938  1.00  0.00     0.012 C 
ENDBRANCH  16  45
TORSDOF 8
ENDMDL
MODEL 16
REMARK VINA RESULT:    -7.378      2.298      8.687
REMARK INTER + INTRA:          -5.464
REMARK INTER:                  -7.891
REMARK INTRA:                   2.428
REMARK UNBOUND:                 5.365
REMARK  8 active torsions:
REMARK  status: ('A' for Active; 'I' for Inactive)
REMARK    1  A    between atoms: C_13  and  C_15 
REMARK    2  A    between atoms: C_14  and  C_16 
REMARK    3  A    between atoms: C_15  and  C_22 
REMARK    4  A    between atoms: C_16  and  C_23 
REMARK    5  A    between atoms: C_17  and  C_21 
REMARK    6  A    between atoms: C_18  and  C_24 
REMARK    7  A    between atoms: C_19  and  C_27 
REMARK    8  A    between atoms: C_20  and  C_30 
ROOT
HETATM    1  O   UNL     1      13.642  -3.624   3.281  1.00  0.00    -0.304 OA
HETATM    2  O   UNL     1      12.647   0.989   2.192  1.00  0.00    -0.304 OA
HETATM    3  O   UNL     1      10.089  -1.537   0.316  1.00  0.00    -0.304 OA
HETATM    4  O   UNL     1      11.935  -1.678   3.773  1.00  0.00    -0.270 OA
HETATM    5  O   UNL     1      14.388  -2.736   1.285  1.00  0.00    -0.263 OA
HETATM    6  O   UNL     1      10.529  -3.743   1.602  1.00  0.00    -0.270 OA
HETATM    7  O   UNL     1      12.104   2.963   3.243  1.00  0.00    -0.263 OA
HETATM    8  O   UNL     1      11.823   3.700   0.227  1.00  0.00    -0.270 OA
HETATM    9  O   UNL     1      10.107  -0.032  -1.433  1.00  0.00    -0.263 OA
HETATM   10  N   UNL     1      13.511  -0.113   4.443  1.00  0.00    -0.340 N 
HETATM   11  N   UNL     1      12.295  -4.247   0.183  1.00  0.00    -0.340 N 
HETATM   12  N   UNL     1      10.207   2.048   0.413  1.00  0.00    -0.340 N 
HETATM   13  C   UNL     1      12.491   0.955   4.561  1.00  0.00     0.190 C 
HETATM   14  C   UNL     1      13.084  -4.793   1.305  1.00  0.00     0.190 C 
HETATM   15  C   UNL     1      14.169  -2.504   4.019  1.00  0.00     0.227 C 
HETATM   16  C   UNL     1       9.773   0.712   0.872  1.00  0.00     0.190 C 
HETATM   17  C   UNL     1      10.512  -2.639  -0.515  1.00  0.00     0.227 C 
HETATM   18  C   UNL     1      12.639   1.530   0.867  1.00  0.00     0.227 C 
HETATM   19  C   UNL     1      13.105  -1.401   4.061  1.00  0.00     0.250 C 
HETATM   20  C   UNL     1      13.791  -3.594   1.922  1.00  0.00     0.283 C 
HETATM   21  C   UNL     1      11.089  -3.609   0.508  1.00  0.00     0.250 C 
HETATM   22  C   UNL     1      12.427   1.782   3.277  1.00  0.00     0.283 C 
HETATM   23  C   UNL     1      11.524   2.531   0.492  1.00  0.00     0.250 C 
HETATM   24  C   UNL     1      10.005  -0.295  -0.244  1.00  0.00     0.283 C 
HETATM   25  C   UNL     1      14.904   0.287   4.668  1.00  0.00     0.153 C 
HETATM   26  C   UNL     1      12.867  -4.270  -1.165  1.00  0.00     0.153 C 
HETATM   27  C   UNL     1       9.191   2.930  -0.162  1.00  0.00     0.153 C 
ENDROOT
BRANCH  15  28
HETATM   28  C   UNL     1      14.467  -3.000   5.428  1.00  0.00     0.016 C 
HETATM   29  C   UNL     1      13.464  -2.422   6.426  1.00  0.00     0.012 C 
HETATM   30  C   UNL     1      14.451  -4.526   5.477  1.00  0.00     0.012 C 
ENDBRANCH  15  28
BRANCH  14  31
HETATM   31  C   UNL     1      14.104  -5.870   0.958  1.00  0.00     0.014 C 
HETATM   32  C   UNL     1      15.075  -6.057   2.127  1.00  0.00     0.012 C 
BRANCH  31  33
HETATM   33  C   UNL     1      13.440  -7.214   0.611  1.00  0.00     0.002 C 
HETATM   34  C   UNL     1      14.116  -8.413   1.262  1.00  0.00     0.005 C 
ENDBRANCH  31  33
ENDBRANCH  14  31
BRANCH  13  35
HETATM   35  C   UNL     1      12.681   1.843   5.790  1.00  0.00     0.014 C 
HETATM   36  C   UNL     1      11.633   2.959   5.792  1.00  0.00     0.012 C 
BRANCH  35  37
HETATM   37  C   UNL     1      12.598   1.050   7.107  1.00  0.00     0.002 C 
HETATM   38  C   UNL     1      13.586   1.520   8.164  1.00  0.00     0.005 C 
ENDBRANCH  35  37
ENDBRANCH  13  35
BRANCH  17  39
HETATM   39  C   UNL     1       9.318  -3.252  -1.223  1.00  0.00     0.016 C 
HETATM   40  C   UNL     1       9.062  -4.669  -0.716  1.00  0.00     0.012 C 
HETATM   41  C   UNL     1       9.533  -3.254  -2.736  1.00  0.00     0.012 C 
ENDBRANCH  17  39
BRANCH  18  42
HETATM   42  C   UNL     1      14.027   2.114   0.601  1.00  0.00     0.016 C 
HETATM   43  C   UNL     1      14.839   1.186  -0.303  1.00  0.00     0.012 C 
HETATM   44  C   UNL     1      13.917   3.504  -0.022  1.00  0.00     0.012 C 
ENDBRANCH  18  42
BRANCH  16  45
HETATM   45  C   UNL     1       8.326   0.633   1.355  1.00  0.00     0.010 C 
HETATM   46  C   UNL     1       8.256   0.019   2.753  1.00  0.00     0.012 C 
HETATM   47  C   UNL     1       7.471  -0.171   0.376  1.00  0.00     0.012 C 
ENDBRANCH  16  45
TORSDOF 8
ENDMDL
