REMARK  13 active torsions:
REMARK  status: ('A' for Active; 'I' for Inactive)
REMARK    1  A    between atoms: O_2  and  C_12 
REMARK    2  A    between atoms: O_2  and  C_16 
REMARK    3  A    between atoms: O_4  and  C_13 
REMARK    4  A    between atoms: O_5  and  C_14 
REMARK    5  A    between atoms: O_6  and  C_17 
REMARK    6  A    between atoms: O_7  and  C_18 
REMARK    7  A    between atoms: O_8  and  C_19 
REMARK    8  A    between atoms: O_9  and  C_21 
REMARK    9  A    between atoms: O_10  and  C_22 
REMARK   10  A    between atoms: O_11  and  C_23 
REMARK   11  A    between atoms: C_12  and  C_21 
REMARK   12  A    between atoms: C_15  and  C_22 
REMARK   13  A    between atoms: C_20  and  C_23 
ROOT
HETATM    1  O   UNL     1      -0.603  -0.892   0.812  1.00  0.00    -0.318 OA
ENDROOT
BRANCH   1   2
HETATM    2  C   UNL     1      -1.495  -0.863  -0.304  1.00  0.00     0.217 C 
HETATM    3  O   UNL     1      -1.468   0.439  -0.918  1.00  0.00    -0.341 OA
HETATM    4  C   UNL     1      -2.550   1.224  -0.379  1.00  0.00     0.180 C 
HETATM    5  C   UNL     1      -3.229   0.374   0.689  1.00  0.00     0.183 C 
HETATM    6  C   UNL     1      -2.930  -1.023   0.187  1.00  0.00     0.214 C 
BRANCH   4   7
HETATM    7  C   UNL     1      -2.003   2.532   0.165  1.00  0.00     0.198 C 
BRANCH   7   8
HETATM    8  O   UNL     1      -1.385   3.245  -0.893  1.00  0.00    -0.398 OA
HETATM    9  H   UNL     1      -0.679   2.681  -1.254  1.00  0.00     0.209 HD
ENDBRANCH   7   8
ENDBRANCH   4   7
BRANCH   5  10
HETATM   10  O   UNL     1      -4.620   0.632   0.733  1.00  0.00    -0.390 OA
HETATM   11  H   UNL     1      -4.736   1.566   0.975  1.00  0.00     0.210 HD
ENDBRANCH   5  10
BRANCH   6  12
HETATM   12  O   UNL     1      -3.070  -2.005   1.193  1.00  0.00    -0.387 OA
HETATM   13  H   UNL     1      -3.980  -1.948   1.532  1.00  0.00     0.210 HD
ENDBRANCH   6  12
BRANCH   2  14
HETATM   14  C   UNL     1      -1.090  -1.927  -1.312  1.00  0.00     0.235 C 
BRANCH  14  15
HETATM   15  O   UNL     1      -1.958  -1.848  -2.430  1.00  0.00    -0.395 OA
HETATM   16  H   UNL     1      -1.696  -2.551  -3.049  1.00  0.00     0.209 HD
ENDBRANCH  14  15
ENDBRANCH   2  14
ENDBRANCH   1   2
BRANCH   1  17
HETATM   17  C   UNL     1       0.753  -0.745   0.397  1.00  0.00     0.295 C 
HETATM   18  O   UNL     1       0.928   0.483  -0.305  1.00  0.00    -0.348 OA
HETATM   19  C   UNL     1       2.258   0.720  -0.786  1.00  0.00     0.179 C 
HETATM   20  C   UNL     1       3.292   0.658   0.352  1.00  0.00     0.180 C 
HETATM   21  C   UNL     1       3.115  -0.555   1.275  1.00  0.00     0.183 C 
HETATM   22  C   UNL     1       1.646  -0.785   1.639  1.00  0.00     0.204 C 
BRANCH  19  23
HETATM   23  C   UNL     1       2.589  -0.190  -1.967  1.00  0.00     0.198 C 
BRANCH  23  24
HETATM   24  O   UNL     1       3.837   0.206  -2.504  1.00  0.00    -0.398 OA
HETATM   25  H   UNL     1       3.749   1.123  -2.813  1.00  0.00     0.209 HD
ENDBRANCH  23  24
ENDBRANCH  19  23
BRANCH  20  26
HETATM   26  O   UNL     1       3.150   1.835   1.154  1.00  0.00    -0.390 OA
HETATM   27  H   UNL     1       3.343   2.601   0.587  1.00  0.00     0.210 HD
ENDBRANCH  20  26
BRANCH  21  28
HETATM   28  O   UNL     1       3.611  -1.729   0.638  1.00  0.00    -0.390 OA
HETATM   29  H   UNL     1       4.549  -1.577   0.433  1.00  0.00     0.210 HD
ENDBRANCH  21  28
BRANCH  22  30
HETATM   30  O   UNL     1       1.223   0.216   2.566  1.00  0.00    -0.388 OA
HETATM   31  H   UNL     1       0.279   0.067   2.743  1.00  0.00     0.210 HD
ENDBRANCH  22  30
ENDBRANCH   1  17
TORSDOF 13
