MODEL 1
REMARK VINA RESULT:    -7.370      0.000      0.000
REMARK INTER + INTRA:          -8.936
REMARK INTER:                 -10.148
REMARK INTRA:                   1.212
REMARK UNBOUND:                 1.020
REMARK  6 active torsions:
REMARK  status: ('A' for Active; 'I' for Inactive)
REMARK    1  A    between atoms: C_13  and  C_16 
REMARK    2  A    between atoms: C_14  and  C_17 
REMARK    3  A    between atoms: C_15  and  C_18 
REMARK    4  A    between atoms: C_19  and  C_22 
REMARK    5  A    between atoms: C_20  and  C_23 
REMARK    6  A    between atoms: C_21  and  C_24 
ROOT
HETATM    1  O   UNL     1      26.712  26.153  31.761  1.00  0.00    -0.304 OA
HETATM    2  O   UNL     1      27.321  21.324  33.520  1.00  0.00    -0.304 OA
HETATM    3  O   UNL     1      28.478  22.085  28.999  1.00  0.00    -0.304 OA
HETATM    4  O   UNL     1      28.613  24.566  32.526  1.00  0.00    -0.270 OA
HETATM    5  O   UNL     1      29.292  25.089  29.709  1.00  0.00    -0.270 OA
HETATM    6  O   UNL     1      28.674  19.006  31.702  1.00  0.00    -0.270 OA
HETATM    7  O   UNL     1      25.428  24.467  30.852  1.00  0.00    -0.263 OA
HETATM    8  O   UNL     1      29.474  20.677  34.017  1.00  0.00    -0.263 OA
HETATM    9  O   UNL     1      28.735  20.695  27.189  1.00  0.00    -0.263 OA
HETATM   10  N   UNL     1      27.592  23.772  34.443  1.00  0.00    -0.340 N 
HETATM   11  N   UNL     1      27.230  24.811  28.681  1.00  0.00    -0.340 N 
HETATM   12  N   UNL     1      27.157  20.281  30.483  1.00  0.00    -0.340 N 
HETATM   13  C   UNL     1      28.732  22.867  34.700  1.00  0.00     0.190 C 
HETATM   14  C   UNL     1      26.681  25.973  29.409  1.00  0.00     0.190 C 
HETATM   15  C   UNL     1      27.689  19.819  29.184  1.00  0.00     0.190 C 
HETATM   16  C   UNL     1      26.545  25.625  33.095  1.00  0.00     0.227 C 
HETATM   17  C   UNL     1      26.925  20.057  32.968  1.00  0.00     0.227 C 
HETATM   18  C   UNL     1      29.094  23.176  28.288  1.00  0.00     0.227 C 
HETATM   19  C   UNL     1      27.669  24.611  33.322  1.00  0.00     0.250 C 
HETATM   20  C   UNL     1      28.560  24.441  28.955  1.00  0.00     0.250 C 
HETATM   21  C   UNL     1      27.678  19.735  31.669  1.00  0.00     0.250 C 
HETATM   22  C   UNL     1      26.174  25.430  30.734  1.00  0.00     0.283 C 
HETATM   23  C   UNL     1      28.569  21.505  34.030  1.00  0.00     0.283 C 
HETATM   24  C   UNL     1      28.345  20.904  28.333  1.00  0.00     0.283 C 
HETATM   25  C   UNL     1      26.445  23.703  35.353  1.00  0.00     0.153 C 
HETATM   26  C   UNL     1      26.344  24.102  27.754  1.00  0.00     0.153 C 
HETATM   27  C   UNL     1      25.986  21.159  30.461  1.00  0.00     0.153 C 
ENDROOT
BRANCH  16  28
HETATM   28  C   UNL     1      26.677  26.799  34.053  1.00  0.00     0.016 C 
HETATM   29  C   UNL     1      28.094  27.370  34.014  1.00  0.00     0.012 C 
HETATM   30  C   UNL     1      25.654  27.885  33.723  1.00  0.00     0.012 C 
ENDBRANCH  16  28
BRANCH  14  31
HETATM   31  C   UNL     1      25.575  26.744  28.698  1.00  0.00     0.010 C 
HETATM   32  C   UNL     1      24.957  27.781  29.634  1.00  0.00     0.012 C 
HETATM   33  C   UNL     1      26.112  27.414  27.436  1.00  0.00     0.012 C 
ENDBRANCH  14  31
BRANCH  13  34
HETATM   34  C   UNL     1      29.046  22.678  36.184  1.00  0.00     0.010 C 
HETATM   35  C   UNL     1      30.539  22.422  36.391  1.00  0.00     0.012 C 
HETATM   36  C   UNL     1      28.222  21.533  36.769  1.00  0.00     0.012 C 
ENDBRANCH  13  34
BRANCH  18  37
HETATM   37  C   UNL     1      30.609  23.059  28.432  1.00  0.00     0.016 C 
HETATM   38  C   UNL     1      30.970  22.081  29.549  1.00  0.00     0.012 C 
HETATM   39  C   UNL     1      31.245  22.623  27.113  1.00  0.00     0.012 C 
ENDBRANCH  18  37
BRANCH  17  40
HETATM   40  C   UNL     1      27.021  18.933  33.999  1.00  0.00     0.016 C 
HETATM   41  C   UNL     1      26.726  17.582  33.352  1.00  0.00     0.012 C 
HETATM   42  C   UNL     1      26.066  19.190  35.164  1.00  0.00     0.012 C 
ENDBRANCH  17  40
BRANCH  15  43
HETATM   43  C   UNL     1      26.621  19.079  28.377  1.00  0.00     0.010 C 
HETATM   44  C   UNL     1      27.259  18.317  27.219  1.00  0.00     0.012 C 
HETATM   45  C   UNL     1      25.833  18.132  29.278  1.00  0.00     0.012 C 
ENDBRANCH  15  43
TORSDOF 6
ENDMDL
MODEL 2
REMARK VINA RESULT:    -7.331      1.678      2.129
REMARK INTER + INTRA:          -8.883
REMARK INTER:                 -10.040
REMARK INTRA:                   1.157
REMARK UNBOUND:                 1.020
REMARK  6 active torsions:
REMARK  status: ('A' for Active; 'I' for Inactive)
REMARK    1  A    between atoms: C_13  and  C_16 
REMARK    2  A    between atoms: C_14  and  C_17 
REMARK    3  A    between atoms: C_15  and  C_18 
REMARK    4  A    between atoms: C_19  and  C_22 
REMARK    5  A    between atoms: C_20  and  C_23 
REMARK    6  A    between atoms: C_21  and  C_24 
ROOT
HETATM    1  O   UNL     1      26.136  26.904  31.030  1.00  0.00    -0.304 OA
HETATM    2  O   UNL     1      25.864  22.858  34.245  1.00  0.00    -0.304 OA
HETATM    3  O   UNL     1      28.585  22.330  30.414  1.00  0.00    -0.304 OA
HETATM    4  O   UNL     1      27.569  25.742  32.852  1.00  0.00    -0.270 OA
HETATM    5  O   UNL     1      29.228  25.457  30.435  1.00  0.00    -0.270 OA
HETATM    6  O   UNL     1      27.670  20.203  33.800  1.00  0.00    -0.270 OA
HETATM    7  O   UNL     1      25.185  24.944  30.274  1.00  0.00    -0.263 OA
HETATM    8  O   UNL     1      27.668  22.530  35.637  1.00  0.00    -0.263 OA
HETATM    9  O   UNL     1      29.407  20.489  29.314  1.00  0.00    -0.263 OA
HETATM   10  N   UNL     1      25.898  25.481  34.429  1.00  0.00    -0.340 N 
HETATM   11  N   UNL     1      27.656  24.753  28.881  1.00  0.00    -0.340 N 
HETATM   12  N   UNL     1      26.744  20.959  31.804  1.00  0.00    -0.340 N 
HETATM   13  C   UNL     1      26.831  24.770  35.328  1.00  0.00     0.190 C 
HETATM   14  C   UNL     1      26.936  26.039  28.986  1.00  0.00     0.190 C 
HETATM   15  C   UNL     1      27.682  20.172  30.976  1.00  0.00     0.190 C 
HETATM   16  C   UNL     1      25.482  26.782  32.312  1.00  0.00     0.227 C 
HETATM   17  C   UNL     1      25.633  21.461  33.993  1.00  0.00     0.227 C 
HETATM   18  C   UNL     1      29.462  23.201  29.675  1.00  0.00     0.227 C 
HETATM   19  C   UNL     1      26.406  25.956  33.212  1.00  0.00     0.250 C 
HETATM   20  C   UNL     1      28.783  24.569  29.701  1.00  0.00     0.250 C 
HETATM   21  C   UNL     1      26.784  20.821  33.202  1.00  0.00     0.250 C 
HETATM   22  C   UNL     1      25.967  25.877  30.145  1.00  0.00     0.283 C 
HETATM   23  C   UNL     1      26.856  23.263  35.083  1.00  0.00     0.283 C 
HETATM   24  C   UNL     1      28.645  20.999  30.129  1.00  0.00     0.283 C 
HETATM   25  C   UNL     1      24.500  25.607  34.853  1.00  0.00     0.153 C 
HETATM   26  C   UNL     1      27.126  23.745  27.957  1.00  0.00     0.153 C 
HETATM   27  C   UNL     1      25.697  21.712  31.110  1.00  0.00     0.153 C 
ENDROOT
BRANCH  16  28
HETATM   28  C   UNL     1      25.318  28.192  32.858  1.00  0.00     0.016 C 
HETATM   29  C   UNL     1      26.531  28.590  33.698  1.00  0.00     0.012 C 
HETATM   30  C   UNL     1      25.103  29.191  31.722  1.00  0.00     0.012 C 
ENDBRANCH  16  28
BRANCH  14  31
HETATM   31  C   UNL     1      26.191  26.491  27.736  1.00  0.00     0.010 C 
HETATM   32  C   UNL     1      25.371  27.747  28.025  1.00  0.00     0.012 C 
HETATM   33  C   UNL     1      27.167  26.741  26.589  1.00  0.00     0.012 C 
ENDBRANCH  14  31
BRANCH  13  34
HETATM   34  C   UNL     1      26.588  25.047  36.812  1.00  0.00     0.010 C 
HETATM   35  C   UNL     1      27.876  25.509  37.492  1.00  0.00     0.012 C 
HETATM   36  C   UNL     1      26.030  23.807  37.509  1.00  0.00     0.012 C 
ENDBRANCH  13  34
BRANCH  18  37
HETATM   37  C   UNL     1      30.820  23.233  30.371  1.00  0.00     0.016 C 
HETATM   38  C   UNL     1      30.729  22.597  31.759  1.00  0.00     0.012 C 
HETATM   39  C   UNL     1      31.877  22.524  29.527  1.00  0.00     0.012 C 
ENDBRANCH  18  37
BRANCH  17  40
HETATM   40  C   UNL     1      25.305  20.699  35.278  1.00  0.00     0.016 C 
HETATM   41  C   UNL     1      25.328  19.192  35.030  1.00  0.00     0.012 C 
HETATM   42  C   UNL     1      23.948  21.133  35.827  1.00  0.00     0.012 C 
ENDBRANCH  17  40
BRANCH  15  43
HETATM   43  C   UNL     1      26.938  19.158  30.106  1.00  0.00     0.010 C 
HETATM   44  C   UNL     1      26.843  19.659  28.667  1.00  0.00     0.012 C 
HETATM   45  C   UNL     1      27.629  17.799  30.159  1.00  0.00     0.012 C 
ENDBRANCH  15  43
TORSDOF 6
ENDMDL
MODEL 3
REMARK VINA RESULT:    -7.172      1.977      6.075
REMARK INTER + INTRA:          -8.668
REMARK INTER:                 -10.241
REMARK INTRA:                   1.573
REMARK UNBOUND:                 1.020
REMARK  6 active torsions:
REMARK  status: ('A' for Active; 'I' for Inactive)
REMARK    1  A    between atoms: C_13  and  C_16 
REMARK    2  A    between atoms: C_14  and  C_17 
REMARK    3  A    between atoms: C_15  and  C_18 
REMARK    4  A    between atoms: C_19  and  C_22 
REMARK    5  A    between atoms: C_20  and  C_23 
REMARK    6  A    between atoms: C_21  and  C_24 
ROOT
HETATM    1  O   UNL     1      30.967  21.810  32.027  1.00  0.00    -0.304 OA
HETATM    2  O   UNL     1      27.378  25.239  33.491  1.00  0.00    -0.304 OA
HETATM    3  O   UNL     1      26.605  22.990  29.404  1.00  0.00    -0.304 OA
HETATM    4  O   UNL     1      28.590  21.846  33.061  1.00  0.00    -0.270 OA
HETATM    5  O   UNL     1      28.172  20.437  30.509  1.00  0.00    -0.270 OA
HETATM    6  O   UNL     1      24.620  25.631  31.835  1.00  0.00    -0.270 OA
HETATM    7  O   UNL     1      30.627  23.686  30.731  1.00  0.00    -0.263 OA
HETATM    8  O   UNL     1      25.443  24.377  34.392  1.00  0.00    -0.263 OA
HETATM    9  O   UNL     1      25.272  23.445  27.590  1.00  0.00    -0.263 OA
HETATM   10  N   UNL     1      28.972  23.491  34.641  1.00  0.00    -0.340 N 
HETATM   11  N   UNL     1      29.348  21.793  29.038  1.00  0.00    -0.340 N 
HETATM   12  N   UNL     1      26.459  25.470  30.419  1.00  0.00    -0.340 N 
HETATM   13  C   UNL     1      27.558  23.437  35.068  1.00  0.00     0.190 C 
HETATM   14  C   UNL     1      30.620  21.473  29.718  1.00  0.00     0.190 C 
HETATM   15  C   UNL     1      25.624  25.180  29.234  1.00  0.00     0.190 C 
HETATM   16  C   UNL     1      30.861  22.576  33.247  1.00  0.00     0.227 C 
HETATM   17  C   UNL     1      26.729  26.299  32.768  1.00  0.00     0.227 C 
HETATM   18  C   UNL     1      26.844  21.651  28.933  1.00  0.00     0.227 C 
HETATM   19  C   UNL     1      29.380  22.605  33.633  1.00  0.00     0.250 C 
HETATM   20  C   UNL     1      28.170  21.233  29.565  1.00  0.00     0.250 C 
HETATM   21  C   UNL     1      25.832  25.762  31.643  1.00  0.00     0.250 C 
HETATM   22  C   UNL     1      30.746  22.474  30.854  1.00  0.00     0.283 C 
HETATM   23  C   UNL     1      26.663  24.386  34.273  1.00  0.00     0.283 C 
HETATM   24  C   UNL     1      25.816  23.789  28.635  1.00  0.00     0.283 C 
HETATM   25  C   UNL     1      29.840  24.490  35.271  1.00  0.00     0.153 C 
HETATM   26  C   UNL     1      29.396  22.700  27.887  1.00  0.00     0.153 C 
HETATM   27  C   UNL     1      27.901  25.612  30.211  1.00  0.00     0.153 C 
ENDROOT
BRANCH  16  28
HETATM   28  C   UNL     1      31.677  21.842  34.300  1.00  0.00     0.016 C 
HETATM   29  C   UNL     1      30.883  20.673  34.881  1.00  0.00     0.012 C 
HETATM   30  C   UNL     1      33.000  21.350  33.714  1.00  0.00     0.012 C 
ENDBRANCH  16  28
BRANCH  14  31
HETATM   31  C   UNL     1      31.870  21.507  28.847  1.00  0.00     0.010 C 
HETATM   32  C   UNL     1      33.118  21.699  29.705  1.00  0.00     0.012 C 
HETATM   33  C   UNL     1      31.981  20.229  28.018  1.00  0.00     0.012 C 
ENDBRANCH  14  31
BRANCH  13  34
HETATM   34  C   UNL     1      27.357  23.671  36.564  1.00  0.00     0.010 C 
HETATM   35  C   UNL     1      26.410  22.625  37.152  1.00  0.00     0.012 C 
HETATM   36  C   UNL     1      26.826  25.079  36.825  1.00  0.00     0.012 C 
ENDBRANCH  13  34
BRANCH  18  37
HETATM   37  C   UNL     1      25.695  20.758  29.393  1.00  0.00     0.016 C 
HETATM   38  C   UNL     1      25.979  19.295  29.053  1.00  0.00     0.012 C 
HETATM   39  C   UNL     1      25.450  20.922  30.892  1.00  0.00     0.012 C 
ENDBRANCH  18  37
BRANCH  17  40
HETATM   40  C   UNL     1      25.992  27.256  33.704  1.00  0.00     0.016 C 
HETATM   41  C   UNL     1      25.126  28.229  32.906  1.00  0.00     0.012 C 
HETATM   42  C   UNL     1      26.982  28.017  34.584  1.00  0.00     0.012 C 
ENDBRANCH  17  40
BRANCH  15  43
HETATM   43  C   UNL     1      25.793  26.255  28.159  1.00  0.00     0.010 C 
HETATM   44  C   UNL     1      25.669  27.647  28.773  1.00  0.00     0.012 C 
HETATM   45  C   UNL     1      27.135  26.095  27.452  1.00  0.00     0.012 C 
ENDBRANCH  15  43
TORSDOF 6
ENDMDL
MODEL 4
REMARK VINA RESULT:    -7.136      1.963      6.433
REMARK INTER + INTRA:          -8.619
REMARK INTER:                 -10.227
REMARK INTRA:                   1.608
REMARK UNBOUND:                 1.020
REMARK  6 active torsions:
REMARK  status: ('A' for Active; 'I' for Inactive)
REMARK    1  A    between atoms: C_13  and  C_16 
REMARK    2  A    between atoms: C_14  and  C_17 
REMARK    3  A    between atoms: C_15  and  C_18 
REMARK    4  A    between atoms: C_19  and  C_22 
REMARK    5  A    between atoms: C_20  and  C_23 
REMARK    6  A    between atoms: C_21  and  C_24 
ROOT
HETATM    1  O   UNL     1      26.678  26.054  29.631  1.00  0.00    -0.304 OA
HETATM    2  O   UNL     1      29.489  21.833  30.660  1.00  0.00    -0.304 OA
HETATM    3  O   UNL     1      26.718  23.424  34.145  1.00  0.00    -0.304 OA
HETATM    4  O   UNL     1      26.365  23.490  29.845  1.00  0.00    -0.270 OA
HETATM    5  O   UNL     1      24.643  24.540  31.991  1.00  0.00    -0.270 OA
HETATM    6  O   UNL     1      29.168  20.209  33.447  1.00  0.00    -0.270 OA
HETATM    7  O   UNL     1      28.308  26.172  31.258  1.00  0.00    -0.263 OA
HETATM    8  O   UNL     1      28.371  19.820  30.619  1.00  0.00    -0.263 OA
HETATM    9  O   UNL     1      26.716  23.103  36.419  1.00  0.00    -0.263 OA
HETATM   10  N   UNL     1      28.210  22.855  28.602  1.00  0.00    -0.340 N 
HETATM   11  N   UNL     1      26.039  26.115  32.969  1.00  0.00    -0.340 N 
HETATM   12  N   UNL     1      29.216  22.510  33.791  1.00  0.00    -0.340 N 
HETATM   13  C   UNL     1      27.930  21.430  28.878  1.00  0.00     0.190 C 
HETATM   14  C   UNL     1      26.041  26.921  31.730  1.00  0.00     0.190 C 
HETATM   15  C   UNL     1      28.649  22.400  35.151  1.00  0.00     0.190 C 
HETATM   16  C   UNL     1      27.533  25.277  28.764  1.00  0.00     0.227 C 
HETATM   17  C   UNL     1      30.323  21.499  31.783  1.00  0.00     0.227 C 
HETATM   18  C   UNL     1      25.408  24.018  34.196  1.00  0.00     0.227 C 
HETATM   19  C   UNL     1      27.318  23.804  29.122  1.00  0.00     0.250 C 
HETATM   20  C   UNL     1      25.321  24.906  32.956  1.00  0.00     0.250 C 
HETATM   21  C   UNL     1      29.509  21.336  33.075  1.00  0.00     0.250 C 
HETATM   22  C   UNL     1      27.161  26.357  30.872  1.00  0.00     0.283 C 
HETATM   23  C   UNL     1      28.601  20.933  30.157  1.00  0.00     0.283 C 
HETATM   24  C   UNL     1      27.266  23.023  35.326  1.00  0.00     0.283 C 
HETATM   25  C   UNL     1      29.417  23.180  27.837  1.00  0.00     0.153 C 
HETATM   26  C   UNL     1      26.812  26.612  34.111  1.00  0.00     0.153 C 
HETATM   27  C   UNL     1      29.610  23.842  33.327  1.00  0.00     0.153 C 
ENDROOT
BRANCH  16  28
HETATM   28  C   UNL     1      27.084  25.555  27.337  1.00  0.00     0.016 C 
HETATM   29  C   UNL     1      26.115  26.735  27.297  1.00  0.00     0.012 C 
HETATM   30  C   UNL     1      28.288  25.821  26.434  1.00  0.00     0.012 C 
ENDBRANCH  16  28
BRANCH  14  31
HETATM   31  C   UNL     1      26.223  28.423  31.912  1.00  0.00     0.010 C 
HETATM   32  C   UNL     1      26.475  29.100  30.566  1.00  0.00     0.012 C 
HETATM   33  C   UNL     1      25.003  29.033  32.598  1.00  0.00     0.012 C 
ENDBRANCH  14  31
BRANCH  13  34
HETATM   34  C   UNL     1      28.277  20.498  27.718  1.00  0.00     0.010 C 
HETATM   35  C   UNL     1      27.384  19.258  27.737  1.00  0.00     0.012 C 
HETATM   36  C   UNL     1      29.750  20.098  27.767  1.00  0.00     0.012 C 
ENDBRANCH  13  34
BRANCH  18  37
HETATM   37  C   UNL     1      24.364  22.905  34.166  1.00  0.00     0.016 C 
HETATM   38  C   UNL     1      24.953  21.631  33.558  1.00  0.00     0.012 C 
HETATM   39  C   UNL     1      23.828  22.629  35.569  1.00  0.00     0.012 C 
ENDBRANCH  18  37
BRANCH  17  40
HETATM   40  C   UNL     1      31.214  20.292  31.490  1.00  0.00     0.016 C 
HETATM   41  C   UNL     1      32.053  19.933  32.715  1.00  0.00     0.012 C 
HETATM   42  C   UNL     1      32.111  20.566  30.285  1.00  0.00     0.012 C 
ENDBRANCH  17  40
BRANCH  15  43
HETATM   43  C   UNL     1      29.618  22.945  36.202  1.00  0.00     0.010 C 
HETATM   44  C   UNL     1      30.946  22.195  36.143  1.00  0.00     0.012 C 
HETATM   45  C   UNL     1      29.835  24.442  36.003  1.00  0.00     0.012 C 
ENDBRANCH  15  43
TORSDOF 6
ENDMDL
MODEL 5
REMARK VINA RESULT:    -7.072      2.049      6.116
REMARK INTER + INTRA:          -8.533
REMARK INTER:                  -9.448
REMARK INTRA:                   0.916
REMARK UNBOUND:                 1.020
REMARK  6 active torsions:
REMARK  status: ('A' for Active; 'I' for Inactive)
REMARK    1  A    between atoms: C_13  and  C_16 
REMARK    2  A    between atoms: C_14  and  C_17 
REMARK    3  A    between atoms: C_15  and  C_18 
REMARK    4  A    between atoms: C_19  and  C_22 
REMARK    5  A    between atoms: C_20  and  C_23 
REMARK    6  A    between atoms: C_21  and  C_24 
ROOT
HETATM    1  O   UNL     1      30.449  21.191  34.453  1.00  0.00    -0.304 OA
HETATM    2  O   UNL     1      26.358  24.171  33.373  1.00  0.00    -0.304 OA
HETATM    3  O   UNL     1      28.373  21.949  29.718  1.00  0.00    -0.304 OA
HETATM    4  O   UNL     1      27.931  20.942  33.891  1.00  0.00    -0.270 OA
HETATM    5  O   UNL     1      29.241  19.557  31.646  1.00  0.00    -0.270 OA
HETATM    6  O   UNL     1      25.080  24.298  30.397  1.00  0.00    -0.270 OA
HETATM    7  O   UNL     1      30.746  23.049  33.120  1.00  0.00    -0.263 OA
HETATM    8  O   UNL     1      24.363  23.081  33.004  1.00  0.00    -0.263 OA
HETATM    9  O   UNL     1      28.325  22.298  27.449  1.00  0.00    -0.263 OA
HETATM   10  N   UNL     1      27.139  22.581  35.317  1.00  0.00    -0.340 N 
HETATM   11  N   UNL     1      30.911  21.068  31.087  1.00  0.00    -0.340 N 
HETATM   12  N   UNL     1      27.405  24.372  30.340  1.00  0.00    -0.340 N 
HETATM   13  C   UNL     1      25.759  22.362  34.834  1.00  0.00     0.190 C 
HETATM   14  C   UNL     1      31.564  20.873  32.398  1.00  0.00     0.190 C 
HETATM   15  C   UNL     1      27.462  24.022  28.905  1.00  0.00     0.190 C 
HETATM   16  C   UNL     1      29.567  21.911  35.341  1.00  0.00     0.227 C 
HETATM   17  C   UNL     1      26.154  25.170  32.359  1.00  0.00     0.227 C 
HETATM   18  C   UNL     1      28.980  20.655  29.538  1.00  0.00     0.227 C 
HETATM   19  C   UNL     1      28.149  21.769  34.782  1.00  0.00     0.250 C 
HETATM   20  C   UNL     1      29.714  20.370  30.846  1.00  0.00     0.250 C 
HETATM   21  C   UNL     1      26.152  24.565  30.948  1.00  0.00     0.250 C 
HETATM   22  C   UNL     1      30.894  21.855  33.344  1.00  0.00     0.283 C 
HETATM   23  C   UNL     1      25.411  23.226  33.624  1.00  0.00     0.283 C 
HETATM   24  C   UNL     1      28.111  22.675  28.596  1.00  0.00     0.283 C 
HETATM   25  C   UNL     1      27.361  23.654  36.291  1.00  0.00     0.153 C 
HETATM   26  C   UNL     1      31.534  22.002  30.144  1.00  0.00     0.153 C 
HETATM   27  C   UNL     1      28.669  24.677  31.013  1.00  0.00     0.153 C 
ENDROOT
BRANCH  16  28
HETATM   28  C   UNL     1      29.677  21.247  36.705  1.00  0.00     0.016 C 
HETATM   29  C   UNL     1      28.841  19.969  36.752  1.00  0.00     0.012 C 
HETATM   30  C   UNL     1      31.137  20.942  37.043  1.00  0.00     0.012 C 
ENDBRANCH  16  28
BRANCH  14  31
HETATM   31  C   UNL     1      33.075  21.064  32.426  1.00  0.00     0.010 C 
HETATM   32  C   UNL     1      33.563  21.274  33.858  1.00  0.00     0.012 C 
HETATM   33  C   UNL     1      33.780  19.868  31.790  1.00  0.00     0.012 C 
ENDBRANCH  14  31
BRANCH  13  34
HETATM   34  C   UNL     1      24.693  22.537  35.915  1.00  0.00     0.010 C 
HETATM   35  C   UNL     1      23.825  21.284  36.025  1.00  0.00     0.012 C 
HETATM   36  C   UNL     1      23.828  23.763  35.628  1.00  0.00     0.012 C 
ENDBRANCH  13  34
BRANCH  18  37
HETATM   37  C   UNL     1      27.878  19.632  29.275  1.00  0.00     0.016 C 
HETATM   38  C   UNL     1      26.503  20.232  29.570  1.00  0.00     0.012 C 
HETATM   39  C   UNL     1      27.943  19.125  27.836  1.00  0.00     0.012 C 
ENDBRANCH  18  37
BRANCH  17  40
HETATM   40  C   UNL     1      24.914  26.019  32.640  1.00  0.00     0.016 C 
HETATM   41  C   UNL     1      24.678  27.017  31.508  1.00  0.00     0.012 C 
HETATM   42  C   UNL     1      25.050  26.745  33.977  1.00  0.00     0.012 C 
ENDBRANCH  17  40
BRANCH  15  43
HETATM   43  C   UNL     1      28.120  25.134  28.087  1.00  0.00     0.010 C 
HETATM   44  C   UNL     1      29.491  24.688  27.587  1.00  0.00     0.012 C 
HETATM   45  C   UNL     1      27.226  25.538  26.919  1.00  0.00     0.012 C 
ENDBRANCH  15  43
TORSDOF 6
ENDMDL
MODEL 6
REMARK VINA RESULT:    -7.028      2.135      5.597
REMARK INTER + INTRA:          -8.473
REMARK INTER:                 -10.001
REMARK INTRA:                   1.528
REMARK UNBOUND:                 1.020
REMARK  6 active torsions:
REMARK  status: ('A' for Active; 'I' for Inactive)
REMARK    1  A    between atoms: C_13  and  C_16 
REMARK    2  A    between atoms: C_14  and  C_17 
REMARK    3  A    between atoms: C_15  and  C_18 
REMARK    4  A    between atoms: C_19  and  C_22 
REMARK    5  A    between atoms: C_20  and  C_23 
REMARK    6  A    between atoms: C_21  and  C_24 
ROOT
HETATM    1  O   UNL     1      31.386  21.878  31.379  1.00  0.00    -0.304 OA
HETATM    2  O   UNL     1      27.433  23.455  34.325  1.00  0.00    -0.304 OA
HETATM    3  O   UNL     1      26.427  22.419  29.823  1.00  0.00    -0.304 OA
HETATM    4  O   UNL     1      29.336  20.881  32.615  1.00  0.00    -0.270 OA
HETATM    5  O   UNL     1      28.770  20.250  29.795  1.00  0.00    -0.270 OA
HETATM    6  O   UNL     1      24.386  23.475  33.220  1.00  0.00    -0.270 OA
HETATM    7  O   UNL     1      30.333  23.863  30.859  1.00  0.00    -0.263 OA
HETATM    8  O   UNL     1      25.998  21.820  35.077  1.00  0.00    -0.263 OA
HETATM    9  O   UNL     1      24.682  22.973  28.436  1.00  0.00    -0.263 OA
HETATM   10  N   UNL     1      29.611  22.009  34.615  1.00  0.00    -0.340 N 
HETATM   11  N   UNL     1      29.247  22.275  28.767  1.00  0.00    -0.340 N 
HETATM   12  N   UNL     1      25.879  24.311  31.644  1.00  0.00    -0.340 N 
HETATM   13  C   UNL     1      28.373  21.404  35.149  1.00  0.00     0.190 C 
HETATM   14  C   UNL     1      30.670  22.164  29.149  1.00  0.00     0.190 C 
HETATM   15  C   UNL     1      24.919  24.154  30.531  1.00  0.00     0.190 C 
HETATM   16  C   UNL     1      31.343  22.172  32.793  1.00  0.00     0.227 C 
HETATM   17  C   UNL     1      26.408  24.435  34.090  1.00  0.00     0.227 C 
HETATM   18  C   UNL     1      26.890  21.421  28.893  1.00  0.00     0.227 C 
HETATM   19  C   UNL     1      30.012  21.635  33.325  1.00  0.00     0.250 C 
HETATM   20  C   UNL     1      28.378  21.254  29.191  1.00  0.00     0.250 C 
HETATM   21  C   UNL     1      25.463  24.018  32.954  1.00  0.00     0.250 C 
HETATM   22  C   UNL     1      30.772  22.765  30.541  1.00  0.00     0.283 C 
HETATM   23  C   UNL     1      27.128  22.232  34.836  1.00  0.00     0.283 C 
HETATM   24  C   UNL     1      25.324  23.135  29.469  1.00  0.00     0.283 C 
HETATM   25  C   UNL     1      30.313  22.985  35.454  1.00  0.00     0.153 C 
HETATM   26  C   UNL     1      28.833  23.456  28.003  1.00  0.00     0.153 C 
HETATM   27  C   UNL     1      27.168  24.938  31.342  1.00  0.00     0.153 C 
ENDROOT
BRANCH  16  28
HETATM   28  C   UNL     1      32.513  21.437  33.430  1.00  0.00     0.016 C 
HETATM   29  C   UNL     1      32.267  19.929  33.432  1.00  0.00     0.012 C 
HETATM   30  C   UNL     1      33.818  21.764  32.704  1.00  0.00     0.012 C 
ENDBRANCH  16  28
BRANCH  14  31
HETATM   31  C   UNL     1      31.667  22.834  28.213  1.00  0.00     0.010 C 
HETATM   32  C   UNL     1      33.052  22.891  28.854  1.00  0.00     0.012 C 
HETATM   33  C   UNL     1      31.726  22.100  26.875  1.00  0.00     0.012 C 
ENDBRANCH  14  31
BRANCH  13  34
HETATM   34  C   UNL     1      28.429  21.105  36.647  1.00  0.00     0.010 C 
HETATM   35  C   UNL     1      28.022  19.658  36.923  1.00  0.00     0.012 C 
HETATM   36  C   UNL     1      27.536  22.069  37.425  1.00  0.00     0.012 C 
ENDBRANCH  13  34
BRANCH  18  37
HETATM   37  C   UNL     1      26.117  20.128  29.138  1.00  0.00     0.016 C 
HETATM   38  C   UNL     1      26.790  18.955  28.426  1.00  0.00     0.012 C 
HETATM   39  C   UNL     1      25.994  19.847  30.634  1.00  0.00     0.012 C 
ENDBRANCH  18  37
BRANCH  17  40
HETATM   40  C   UNL     1      25.663  24.797  35.375  1.00  0.00     0.016 C 
HETATM   41  C   UNL     1      24.508  25.751  35.076  1.00  0.00     0.012 C 
HETATM   42  C   UNL     1      26.618  25.412  36.395  1.00  0.00     0.012 C 
ENDBRANCH  17  40
BRANCH  15  43
HETATM   43  C   UNL     1      24.594  25.501  29.884  1.00  0.00     0.010 C 
HETATM   44  C   UNL     1      24.249  26.537  30.951  1.00  0.00     0.012 C 
HETATM   45  C   UNL     1      25.763  25.978  29.028  1.00  0.00     0.012 C 
ENDBRANCH  15  43
TORSDOF 6
ENDMDL
MODEL 7
REMARK VINA RESULT:    -7.023      1.854      6.284
REMARK INTER + INTRA:          -8.467
REMARK INTER:                 -10.455
REMARK INTRA:                   1.989
REMARK UNBOUND:                 1.020
REMARK  6 active torsions:
REMARK  status: ('A' for Active; 'I' for Inactive)
REMARK    1  A    between atoms: C_13  and  C_16 
REMARK    2  A    between atoms: C_14  and  C_17 
REMARK    3  A    between atoms: C_15  and  C_18 
REMARK    4  A    between atoms: C_19  and  C_22 
REMARK    5  A    between atoms: C_20  and  C_23 
REMARK    6  A    between atoms: C_21  and  C_24 
ROOT
HETATM    1  O   UNL     1      29.160  22.101  34.596  1.00  0.00    -0.304 OA
HETATM    2  O   UNL     1      26.313  25.489  31.914  1.00  0.00    -0.304 OA
HETATM    3  O   UNL     1      28.235  21.937  29.456  1.00  0.00    -0.304 OA
HETATM    4  O   UNL     1      26.810  22.271  33.516  1.00  0.00    -0.270 OA
HETATM    5  O   UNL     1      28.053  20.054  32.029  1.00  0.00    -0.270 OA
HETATM    6  O   UNL     1      25.659  25.054  28.769  1.00  0.00    -0.270 OA
HETATM    7  O   UNL     1      30.190  23.393  32.988  1.00  0.00    -0.263 OA
HETATM    8  O   UNL     1      24.190  24.813  31.333  1.00  0.00    -0.263 OA
HETATM    9  O   UNL     1      28.681  21.634  27.224  1.00  0.00    -0.263 OA
HETATM   10  N   UNL     1      26.269  24.379  34.298  1.00  0.00    -0.340 N 
HETATM   11  N   UNL     1      30.148  20.935  31.560  1.00  0.00    -0.340 N 
HETATM   12  N   UNL     1      27.885  24.590  29.259  1.00  0.00    -0.340 N 
HETATM   13  C   UNL     1      24.989  24.347  33.560  1.00  0.00     0.190 C 
HETATM   14  C   UNL     1      30.483  20.977  32.998  1.00  0.00     0.190 C 
HETATM   15  C   UNL     1      28.092  23.846  27.999  1.00  0.00     0.190 C 
HETATM   16  C   UNL     1      28.373  23.220  35.058  1.00  0.00     0.227 C 
HETATM   17  C   UNL     1      26.574  26.182  30.682  1.00  0.00     0.227 C 
HETATM   18  C   UNL     1      28.479  20.543  29.727  1.00  0.00     0.227 C 
HETATM   19  C   UNL     1      27.091  23.246  34.222  1.00  0.00     0.250 C 
HETATM   20  C   UNL     1      28.865  20.483  31.203  1.00  0.00     0.250 C 
HETATM   21  C   UNL     1      26.650  25.220  29.487  1.00  0.00     0.250 C 
HETATM   22  C   UNL     1      29.958  22.309  33.507  1.00  0.00     0.283 C 
HETATM   23  C   UNL     1      25.112  24.890  32.138  1.00  0.00     0.283 C 
HETATM   24  C   UNL     1      28.384  22.357  28.170  1.00  0.00     0.283 C 
HETATM   25  C   UNL     1      26.608  25.605  35.027  1.00  0.00     0.153 C 
HETATM   26  C   UNL     1      31.161  21.402  30.608  1.00  0.00     0.153 C 
HETATM   27  C   UNL     1      29.047  24.781  30.129  1.00  0.00     0.153 C 
ENDROOT
BRANCH  16  28
HETATM   28  C   UNL     1      28.054  22.959  36.523  1.00  0.00     0.016 C 
HETATM   29  C   UNL     1      26.634  22.418  36.678  1.00  0.00     0.012 C 
HETATM   30  C   UNL     1      29.066  21.989  37.132  1.00  0.00     0.012 C 
ENDBRANCH  16  28
BRANCH  14  31
HETATM   31  C   UNL     1      31.958  20.826  33.345  1.00  0.00     0.010 C 
HETATM   32  C   UNL     1      32.229  21.318  34.766  1.00  0.00     0.012 C 
HETATM   33  C   UNL     1      32.402  19.374  33.188  1.00  0.00     0.012 C 
ENDBRANCH  14  31
BRANCH  13  34
HETATM   34  C   UNL     1      23.842  25.052  34.284  1.00  0.00     0.010 C 
HETATM   35  C   UNL     1      23.951  26.568  34.116  1.00  0.00     0.012 C 
HETATM   36  C   UNL     1      23.825  24.679  35.764  1.00  0.00     0.012 C 
ENDBRANCH  13  34
BRANCH  18  37
HETATM   37  C   UNL     1      27.199  19.760  29.446  1.00  0.00     0.016 C 
HETATM   38  C   UNL     1      26.013  20.709  29.274  1.00  0.00     0.012 C 
HETATM   39  C   UNL     1      27.365  18.880  28.209  1.00  0.00     0.012 C 
ENDBRANCH  18  37
BRANCH  17  40
HETATM   40  C   UNL     1      25.590  27.329  30.455  1.00  0.00     0.016 C 
HETATM   41  C   UNL     1      25.816  27.969  29.087  1.00  0.00     0.012 C 
HETATM   42  C   UNL     1      25.716  28.372  31.563  1.00  0.00     0.012 C 
ENDBRANCH  17  40
BRANCH  15  43
HETATM   43  C   UNL     1      29.165  24.506  27.132  1.00  0.00     0.010 C 
HETATM   44  C   UNL     1      28.660  25.835  26.577  1.00  0.00     0.012 C 
HETATM   45  C   UNL     1      30.447  24.710  27.934  1.00  0.00     0.012 C 
ENDBRANCH  15  43
TORSDOF 6
ENDMDL
MODEL 8
REMARK VINA RESULT:    -6.997      2.058      6.560
REMARK INTER + INTRA:          -8.431
REMARK INTER:                 -10.099
REMARK INTRA:                   1.668
REMARK UNBOUND:                 1.020
REMARK  6 active torsions:
REMARK  status: ('A' for Active; 'I' for Inactive)
REMARK    1  A    between atoms: C_13  and  C_16 
REMARK    2  A    between atoms: C_14  and  C_17 
REMARK    3  A    between atoms: C_15  and  C_18 
REMARK    4  A    between atoms: C_19  and  C_22 
REMARK    5  A    between atoms: C_20  and  C_23 
REMARK    6  A    between atoms: C_21  and  C_24 
ROOT
HETATM    1  O   UNL     1      26.629  25.802  29.445  1.00  0.00    -0.304 OA
HETATM    2  O   UNL     1      30.596  22.525  29.992  1.00  0.00    -0.304 OA
HETATM    3  O   UNL     1      27.447  22.632  33.517  1.00  0.00    -0.304 OA
HETATM    4  O   UNL     1      27.120  23.264  29.261  1.00  0.00    -0.270 OA
HETATM    5  O   UNL     1      25.144  23.391  31.440  1.00  0.00    -0.270 OA
HETATM    6  O   UNL     1      30.773  20.464  32.487  1.00  0.00    -0.270 OA
HETATM    7  O   UNL     1      28.132  26.151  31.158  1.00  0.00    -0.263 OA
HETATM    8  O   UNL     1      30.153  20.301  29.592  1.00  0.00    -0.263 OA
HETATM    9  O   UNL     1      27.529  21.972  35.715  1.00  0.00    -0.263 OA
HETATM   10  N   UNL     1      29.078  23.422  28.040  1.00  0.00    -0.340 N 
HETATM   11  N   UNL     1      25.979  25.140  32.715  1.00  0.00    -0.340 N 
HETATM   12  N   UNL     1      30.107  22.586  33.168  1.00  0.00    -0.340 N 
HETATM   13  C   UNL     1      29.249  21.955  28.087  1.00  0.00     0.190 C 
HETATM   14  C   UNL     1      25.742  26.094  31.612  1.00  0.00     0.190 C 
HETATM   15  C   UNL     1      29.593  22.097  34.465  1.00  0.00     0.190 C 
HETATM   16  C   UNL     1      27.687  25.467  28.521  1.00  0.00     0.227 C 
HETATM   17  C   UNL     1      31.485  22.288  31.097  1.00  0.00     0.227 C 
HETATM   18  C   UNL     1      26.017  22.785  33.583  1.00  0.00     0.227 C 
HETATM   19  C   UNL     1      27.934  23.961  28.646  1.00  0.00     0.250 C 
HETATM   20  C   UNL     1      25.669  23.788  32.485  1.00  0.00     0.250 C 
HETATM   21  C   UNL     1      30.752  21.685  32.304  1.00  0.00     0.250 C 
HETATM   22  C   UNL     1      26.986  26.038  30.742  1.00  0.00     0.283 C 
HETATM   23  C   UNL     1      30.032  21.489  29.313  1.00  0.00     0.283 C 
HETATM   24  C   UNL     1      28.084  22.235  34.653  1.00  0.00     0.283 C 
HETATM   25  C   UNL     1      30.131  24.214  27.399  1.00  0.00     0.153 C 
HETATM   26  C   UNL     1      26.554  25.662  33.959  1.00  0.00     0.153 C 
HETATM   27  C   UNL     1      30.075  24.030  32.929  1.00  0.00     0.153 C 
ENDROOT
BRANCH  16  28
HETATM   28  C   UNL     1      27.184  25.817  27.129  1.00  0.00     0.016 C 
HETATM   29  C   UNL     1      26.125  26.916  27.198  1.00  0.00     0.012 C 
HETATM   30  C   UNL     1      28.341  26.245  26.227  1.00  0.00     0.012 C 
ENDBRANCH  16  28
BRANCH  14  31
HETATM   31  C   UNL     1      25.450  27.531  32.022  1.00  0.00     0.010 C 
HETATM   32  C   UNL     1      25.329  28.427  30.791  1.00  0.00     0.012 C 
HETATM   33  C   UNL     1      24.179  27.603  32.864  1.00  0.00     0.012 C 
ENDBRANCH  14  31
BRANCH  13  34
HETATM   34  C   UNL     1      29.874  21.366  26.823  1.00  0.00     0.010 C 
HETATM   35  C   UNL     1      29.296  19.982  26.530  1.00  0.00     0.012 C 
HETATM   36  C   UNL     1      31.394  21.294  26.954  1.00  0.00     0.012 C 
ENDBRANCH  13  34
BRANCH  18  37
HETATM   37  C   UNL     1      25.368  21.427  33.332  1.00  0.00     0.016 C 
HETATM   38  C   UNL     1      26.404  20.418  32.838  1.00  0.00     0.012 C 
HETATM   39  C   UNL     1      24.682  20.913  34.597  1.00  0.00     0.012 C 
ENDBRANCH  18  37
BRANCH  17  40
HETATM   40  C   UNL     1      32.706  21.469  30.678  1.00  0.00     0.016 C 
HETATM   41  C   UNL     1      33.632  21.238  31.870  1.00  0.00     0.012 C 
HETATM   42  C   UNL     1      33.456  22.164  29.543  1.00  0.00     0.012 C 
ENDBRANCH  17  40
BRANCH  15  43
HETATM   43  C   UNL     1      30.339  22.738  35.636  1.00  0.00     0.010 C 
HETATM   44  C   UNL     1      29.508  23.862  36.248  1.00  0.00     0.012 C 
HETATM   45  C   UNL     1      30.683  21.688  36.688  1.00  0.00     0.012 C 
ENDBRANCH  15  43
TORSDOF 6
ENDMDL
MODEL 9
REMARK VINA RESULT:    -6.820      1.994      6.086
REMARK INTER + INTRA:          -8.192
REMARK INTER:                  -9.480
REMARK INTRA:                   1.288
REMARK UNBOUND:                 1.020
REMARK  6 active torsions:
REMARK  status: ('A' for Active; 'I' for Inactive)
REMARK    1  A    between atoms: C_13  and  C_16 
REMARK    2  A    between atoms: C_14  and  C_17 
REMARK    3  A    between atoms: C_15  and  C_18 
REMARK    4  A    between atoms: C_19  and  C_22 
REMARK    5  A    between atoms: C_20  and  C_23 
REMARK    6  A    between atoms: C_21  and  C_24 
ROOT
HETATM    1  O   UNL     1      31.409  20.847  31.970  1.00  0.00    -0.304 OA
HETATM    2  O   UNL     1      27.963  24.195  33.893  1.00  0.00    -0.304 OA
HETATM    3  O   UNL     1      27.203  22.687  29.476  1.00  0.00    -0.304 OA
HETATM    4  O   UNL     1      29.006  20.852  32.941  1.00  0.00    -0.270 OA
HETATM    5  O   UNL     1      28.595  19.902  30.184  1.00  0.00    -0.270 OA
HETATM    6  O   UNL     1      25.284  25.009  32.260  1.00  0.00    -0.270 OA
HETATM    7  O   UNL     1      31.211  22.925  30.990  1.00  0.00    -0.263 OA
HETATM    8  O   UNL     1      25.957  23.312  34.596  1.00  0.00    -0.263 OA
HETATM    9  O   UNL     1      25.954  23.506  27.731  1.00  0.00    -0.263 OA
HETATM   10  N   UNL     1      29.424  22.195  34.777  1.00  0.00    -0.340 N 
HETATM   11  N   UNL     1      29.888  21.409  28.983  1.00  0.00    -0.340 N 
HETATM   12  N   UNL     1      27.156  24.973  30.879  1.00  0.00    -0.340 N 
HETATM   13  C   UNL     1      27.996  22.154  35.157  1.00  0.00     0.190 C 
HETATM   14  C   UNL     1      31.119  20.910  29.630  1.00  0.00     0.190 C 
HETATM   15  C   UNL     1      26.345  24.929  29.645  1.00  0.00     0.190 C 
HETATM   16  C   UNL     1      31.305  21.410  33.296  1.00  0.00     0.227 C 
HETATM   17  C   UNL     1      27.395  25.394  33.338  1.00  0.00     0.227 C 
HETATM   18  C   UNL     1      27.385  21.430  28.798  1.00  0.00     0.227 C 
HETATM   19  C   UNL     1      29.816  21.462  33.648  1.00  0.00     0.250 C 
HETATM   20  C   UNL     1      28.666  20.840  29.383  1.00  0.00     0.250 C 
HETATM   21  C   UNL     1      26.507  25.099  32.120  1.00  0.00     0.250 C 
HETATM   22  C   UNL     1      31.261  21.704  30.917  1.00  0.00     0.283 C 
HETATM   23  C   UNL     1      27.179  23.270  34.508  1.00  0.00     0.283 C 
HETATM   24  C   UNL     1      26.482  23.645  28.830  1.00  0.00     0.283 C 
HETATM   25  C   UNL     1      30.323  23.027  35.582  1.00  0.00     0.153 C 
HETATM   26  C   UNL     1      30.021  22.486  27.997  1.00  0.00     0.153 C 
HETATM   27  C   UNL     1      28.610  25.064  30.731  1.00  0.00     0.153 C 
ENDROOT
BRANCH  16  28
HETATM   28  C   UNL     1      32.047  20.470  34.234  1.00  0.00     0.016 C 
HETATM   29  C   UNL     1      32.047  19.045  33.680  1.00  0.00     0.012 C 
HETATM   30  C   UNL     1      33.478  20.953  34.464  1.00  0.00     0.012 C 
ENDBRANCH  16  28
BRANCH  14  31
HETATM   31  C   UNL     1      32.395  21.011  28.805  1.00  0.00     0.010 C 
HETATM   32  C   UNL     1      33.625  20.952  29.708  1.00  0.00     0.012 C 
HETATM   33  C   UNL     1      32.447  19.903  27.756  1.00  0.00     0.012 C 
ENDBRANCH  14  31
BRANCH  13  34
HETATM   34  C   UNL     1      27.760  22.154  36.667  1.00  0.00     0.010 C 
HETATM   35  C   UNL     1      26.943  20.932  37.085  1.00  0.00     0.012 C 
HETATM   36  C   UNL     1      27.062  23.439  37.105  1.00  0.00     0.012 C 
ENDBRANCH  13  34
BRANCH  18  37
HETATM   37  C   UNL     1      26.175  20.543  29.080  1.00  0.00     0.016 C 
HETATM   38  C   UNL     1      26.433  19.113  28.605  1.00  0.00     0.012 C 
HETATM   39  C   UNL     1      25.828  20.559  30.567  1.00  0.00     0.012 C 
ENDBRANCH  18  37
BRANCH  17  40
HETATM   40  C   UNL     1      26.680  26.228  34.401  1.00  0.00     0.016 C 
HETATM   41  C   UNL     1      26.170  27.538  33.804  1.00  0.00     0.012 C 
HETATM   42  C   UNL     1      27.608  26.502  35.583  1.00  0.00     0.012 C 
ENDBRANCH  17  40
BRANCH  15  43
HETATM   43  C   UNL     1      26.606  26.152  28.764  1.00  0.00     0.010 C 
HETATM   44  C   UNL     1      27.238  25.731  27.440  1.00  0.00     0.012 C 
HETATM   45  C   UNL     1      25.311  26.921  28.523  1.00  0.00     0.012 C 
ENDBRANCH  15  43
TORSDOF 6
ENDMDL
MODEL 10
REMARK VINA RESULT:    -6.795      1.860      7.964
REMARK INTER + INTRA:          -8.158
REMARK INTER:                  -9.149
REMARK INTRA:                   0.991
REMARK UNBOUND:                 1.020
REMARK  6 active torsions:
REMARK  status: ('A' for Active; 'I' for Inactive)
REMARK    1  A    between atoms: C_13  and  C_16 
REMARK    2  A    between atoms: C_14  and  C_17 
REMARK    3  A    between atoms: C_15  and  C_18 
REMARK    4  A    between atoms: C_19  and  C_22 
REMARK    5  A    between atoms: C_20  and  C_23 
REMARK    6  A    between atoms: C_21  and  C_24 
ROOT
HETATM    1  O   UNL     1      28.367  19.678  32.260  1.00  0.00    -0.304 OA
HETATM    2  O   UNL     1      27.911  24.036  29.505  1.00  0.00    -0.304 OA
HETATM    3  O   UNL     1      27.286  24.418  34.176  1.00  0.00    -0.304 OA
HETATM    4  O   UNL     1      29.725  21.824  31.738  1.00  0.00    -0.270 OA
HETATM    5  O   UNL     1      29.318  22.000  34.649  1.00  0.00    -0.270 OA
HETATM    6  O   UNL     1      27.486  26.916  30.930  1.00  0.00    -0.270 OA
HETATM    7  O   UNL     1      26.321  20.740  32.187  1.00  0.00    -0.263 OA
HETATM    8  O   UNL     1      29.699  25.485  29.573  1.00  0.00    -0.263 OA
HETATM    9  O   UNL     1      26.269  25.994  35.500  1.00  0.00    -0.263 OA
HETATM   10  N   UNL     1      29.378  21.853  29.451  1.00  0.00    -0.340 N 
HETATM   11  N   UNL     1      27.063  21.483  34.828  1.00  0.00    -0.340 N 
HETATM   12  N   UNL     1      26.156  25.272  31.898  1.00  0.00    -0.340 N 
HETATM   13  C   UNL     1      30.125  23.123  29.334  1.00  0.00     0.190 C 
HETATM   14  C   UNL     1      27.308  20.117  34.322  1.00  0.00     0.190 C 
HETATM   15  C   UNL     1      25.905  26.076  33.113  1.00  0.00     0.190 C 
HETATM   16  C   UNL     1      28.591  19.912  30.852  1.00  0.00     0.227 C 
HETATM   17  C   UNL     1      26.906  25.064  29.516  1.00  0.00     0.227 C 
HETATM   18  C   UNL     1      27.894  23.798  35.326  1.00  0.00     0.227 C 
HETATM   19  C   UNL     1      29.275  21.277  30.725  1.00  0.00     0.250 C 
HETATM   20  C   UNL     1      28.163  22.355  34.909  1.00  0.00     0.250 C 
HETATM   21  C   UNL     1      26.890  25.839  30.842  1.00  0.00     0.250 C 
HETATM   22  C   UNL     1      27.238  20.218  32.808  1.00  0.00     0.283 C 
HETATM   23  C   UNL     1      29.234  24.352  29.501  1.00  0.00     0.283 C 
HETATM   24  C   UNL     1      26.486  25.496  34.400  1.00  0.00     0.283 C 
HETATM   25  C   UNL     1      28.764  21.305  28.238  1.00  0.00     0.153 C 
HETATM   26  C   UNL     1      25.686  21.846  35.177  1.00  0.00     0.153 C 
HETATM   27  C   UNL     1      25.469  23.983  31.786  1.00  0.00     0.153 C 
ENDROOT
BRANCH  16  28
HETATM   28  C   UNL     1      29.509  18.803  30.362  1.00  0.00     0.016 C 
HETATM   29  C   UNL     1      30.281  18.186  31.528  1.00  0.00     0.012 C 
HETATM   30  C   UNL     1      28.713  17.729  29.622  1.00  0.00     0.012 C 
ENDBRANCH  16  28
BRANCH  14  31
HETATM   31  C   UNL     1      26.356  19.038  34.822  1.00  0.00     0.010 C 
HETATM   32  C   UNL     1      26.422  17.805  33.924  1.00  0.00     0.012 C 
HETATM   33  C   UNL     1      26.677  18.665  36.267  1.00  0.00     0.012 C 
ENDBRANCH  14  31
BRANCH  13  34
HETATM   34  C   UNL     1      30.935  23.245  28.043  1.00  0.00     0.010 C 
HETATM   35  C   UNL     1      31.989  22.142  27.962  1.00  0.00     0.012 C 
HETATM   36  C   UNL     1      31.591  24.620  27.944  1.00  0.00     0.012 C 
ENDBRANCH  13  34
BRANCH  18  37
HETATM   37  C   UNL     1      29.186  24.541  35.655  1.00  0.00     0.016 C 
HETATM   38  C   UNL     1      29.563  25.495  34.521  1.00  0.00     0.012 C 
HETATM   39  C   UNL     1      29.051  25.303  36.972  1.00  0.00     0.012 C 
ENDBRANCH  18  37
BRANCH  17  40
HETATM   40  C   UNL     1      27.017  25.981  28.298  1.00  0.00     0.016 C 
HETATM   41  C   UNL     1      25.774  26.858  28.170  1.00  0.00     0.012 C 
HETATM   42  C   UNL     1      27.231  25.162  27.027  1.00  0.00     0.012 C 
ENDBRANCH  17  40
BRANCH  15  43
HETATM   43  C   UNL     1      24.414  26.373  33.284  1.00  0.00     0.010 C 
HETATM   44  C   UNL     1      23.825  25.518  34.403  1.00  0.00     0.012 C 
HETATM   45  C   UNL     1      24.196  27.856  33.568  1.00  0.00     0.012 C 
ENDBRANCH  15  43
TORSDOF 6
ENDMDL
MODEL 11
REMARK VINA RESULT:    -6.768      2.104      6.821
REMARK INTER + INTRA:          -8.121
REMARK INTER:                  -8.926
REMARK INTRA:                   0.805
REMARK UNBOUND:                 1.020
REMARK  6 active torsions:
REMARK  status: ('A' for Active; 'I' for Inactive)
REMARK    1  A    between atoms: C_13  and  C_16 
REMARK    2  A    between atoms: C_14  and  C_17 
REMARK    3  A    between atoms: C_15  and  C_18 
REMARK    4  A    between atoms: C_19  and  C_22 
REMARK    5  A    between atoms: C_20  and  C_23 
REMARK    6  A    between atoms: C_21  and  C_24 
ROOT
HETATM    1  O   UNL     1      26.034  23.975  30.705  1.00  0.00    -0.304 OA
HETATM    2  O   UNL     1      30.806  22.113  29.967  1.00  0.00    -0.304 OA
HETATM    3  O   UNL     1      28.537  20.628  33.841  1.00  0.00    -0.304 OA
HETATM    4  O   UNL     1      27.191  21.796  29.911  1.00  0.00    -0.270 OA
HETATM    5  O   UNL     1      25.744  20.925  32.323  1.00  0.00    -0.270 OA
HETATM    6  O   UNL     1      32.070  19.846  31.909  1.00  0.00    -0.270 OA
HETATM    7  O   UNL     1      27.685  24.510  32.224  1.00  0.00    -0.263 OA
HETATM    8  O   UNL     1      30.954  19.960  29.164  1.00  0.00    -0.263 OA
HETATM    9  O   UNL     1      29.247  19.685  35.811  1.00  0.00    -0.263 OA
HETATM   10  N   UNL     1      28.732  22.773  28.490  1.00  0.00    -0.340 N 
HETATM   11  N   UNL     1      26.276  22.622  33.814  1.00  0.00    -0.340 N 
HETATM   12  N   UNL     1      30.969  21.500  33.119  1.00  0.00    -0.340 N 
HETATM   13  C   UNL     1      29.326  21.452  28.194  1.00  0.00     0.190 C 
HETATM   14  C   UNL     1      25.556  23.612  32.987  1.00  0.00     0.190 C 
HETATM   15  C   UNL     1      30.891  20.670  34.339  1.00  0.00     0.190 C 
HETATM   16  C   UNL     1      26.936  24.153  29.592  1.00  0.00     0.227 C 
HETATM   17  C   UNL     1      31.928  22.001  30.858  1.00  0.00     0.227 C 
HETATM   18  C   UNL     1      27.167  20.298  34.140  1.00  0.00     0.227 C 
HETATM   19  C   UNL     1      27.628  22.809  29.352  1.00  0.00     0.250 C 
HETATM   20  C   UNL     1      26.331  21.297  33.344  1.00  0.00     0.250 C 
HETATM   21  C   UNL     1      31.660  21.007  31.998  1.00  0.00     0.250 C 
HETATM   22  C   UNL     1      26.562  24.102  31.959  1.00  0.00     0.283 C 
HETATM   23  C   UNL     1      30.441  21.074  29.168  1.00  0.00     0.283 C 
HETATM   24  C   UNL     1      29.477  20.280  34.763  1.00  0.00     0.283 C 
HETATM   25  C   UNL     1      29.360  23.955  27.892  1.00  0.00     0.153 C 
HETATM   26  C   UNL     1      26.914  23.094  35.047  1.00  0.00     0.153 C 
HETATM   27  C   UNL     1      30.473  22.875  33.204  1.00  0.00     0.153 C 
ENDROOT
BRANCH  16  28
HETATM   28  C   UNL     1      26.083  24.541  28.392  1.00  0.00     0.016 C 
HETATM   29  C   UNL     1      24.681  23.946  28.512  1.00  0.00     0.012 C 
HETATM   30  C   UNL     1      26.008  26.061  28.251  1.00  0.00     0.012 C 
ENDBRANCH  16  28
BRANCH  14  31
HETATM   31  C   UNL     1      24.950  24.792  33.735  1.00  0.00     0.010 C 
HETATM   32  C   UNL     1      24.435  25.843  32.753  1.00  0.00     0.012 C 
HETATM   33  C   UNL     1      23.826  24.325  34.657  1.00  0.00     0.012 C 
ENDBRANCH  14  31
BRANCH  13  34
HETATM   34  C   UNL     1      29.827  21.308  26.758  1.00  0.00     0.010 C 
HETATM   35  C   UNL     1      29.453  19.940  26.190  1.00  0.00     0.012 C 
HETATM   36  C   UNL     1      31.338  21.521  26.687  1.00  0.00     0.012 C 
ENDBRANCH  13  34
BRANCH  18  37
HETATM   37  C   UNL     1      26.903  18.862  33.696  1.00  0.00     0.016 C 
HETATM   38  C   UNL     1      28.065  18.336  32.853  1.00  0.00     0.012 C 
HETATM   39  C   UNL     1      26.666  17.958  34.904  1.00  0.00     0.012 C 
ENDBRANCH  18  37
BRANCH  17  40
HETATM   40  C   UNL     1      33.224  21.699  30.105  1.00  0.00     0.016 C 
HETATM   41  C   UNL     1      34.386  21.527  31.081  1.00  0.00     0.012 C 
HETATM   42  C   UNL     1      33.529  22.805  29.097  1.00  0.00     0.012 C 
ENDBRANCH  17  40
BRANCH  15  43
HETATM   43  C   UNL     1      31.640  21.319  35.503  1.00  0.00     0.010 C 
HETATM   44  C   UNL     1      30.668  22.071  36.409  1.00  0.00     0.012 C 
HETATM   45  C   UNL     1      32.411  20.268  36.295  1.00  0.00     0.012 C 
ENDBRANCH  15  43
TORSDOF 6
ENDMDL
MODEL 12
REMARK VINA RESULT:    -6.767      2.301      6.575
REMARK INTER + INTRA:          -8.121
REMARK INTER:                  -9.264
REMARK INTRA:                   1.143
REMARK UNBOUND:                 1.020
REMARK  6 active torsions:
REMARK  status: ('A' for Active; 'I' for Inactive)
REMARK    1  A    between atoms: C_13  and  C_16 
REMARK    2  A    between atoms: C_14  and  C_17 
REMARK    3  A    between atoms: C_15  and  C_18 
REMARK    4  A    between atoms: C_19  and  C_22 
REMARK    5  A    between atoms: C_20  and  C_23 
REMARK    6  A    between atoms: C_21  and  C_24 
ROOT
HETATM    1  O   UNL     1      26.968  22.454  35.990  1.00  0.00    -0.304 OA
HETATM    2  O   UNL     1      29.124  22.431  31.286  1.00  0.00    -0.304 OA
HETATM    3  O   UNL     1      27.161  26.498  32.687  1.00  0.00    -0.304 OA
HETATM    4  O   UNL     1      29.118  23.292  34.811  1.00  0.00    -0.270 OA
HETATM    5  O   UNL     1      27.856  25.792  35.722  1.00  0.00    -0.270 OA
HETATM    6  O   UNL     1      29.356  25.129  29.504  1.00  0.00    -0.270 OA
HETATM    7  O   UNL     1      25.619  22.768  34.146  1.00  0.00    -0.263 OA
HETATM    8  O   UNL     1      31.190  23.432  31.099  1.00  0.00    -0.263 OA
HETATM    9  O   UNL     1      26.426  28.357  31.557  1.00  0.00    -0.263 OA
HETATM   10  N   UNL     1      29.595  21.356  33.639  1.00  0.00    -0.340 N 
HETATM   11  N   UNL     1      25.652  25.453  35.079  1.00  0.00    -0.340 N 
HETATM   12  N   UNL     1      27.266  24.936  30.508  1.00  0.00    -0.340 N 
HETATM   13  C   UNL     1      30.756  22.007  32.996  1.00  0.00     0.190 C 
HETATM   14  C   UNL     1      25.524  24.320  36.018  1.00  0.00     0.190 C 
HETATM   15  C   UNL     1      26.942  26.363  30.295  1.00  0.00     0.190 C 
HETATM   16  C   UNL     1      27.720  21.419  35.321  1.00  0.00     0.227 C 
HETATM   17  C   UNL     1      28.635  22.896  30.016  1.00  0.00     0.227 C 
HETATM   18  C   UNL     1      27.069  27.189  33.947  1.00  0.00     0.227 C 
HETATM   19  C   UNL     1      28.864  22.106  34.570  1.00  0.00     0.250 C 
HETATM   20  C   UNL     1      26.903  26.091  34.996  1.00  0.00     0.250 C 
HETATM   21  C   UNL     1      28.467  24.423  29.989  1.00  0.00     0.250 C 
HETATM   22  C   UNL     1      26.008  23.096  35.259  1.00  0.00     0.283 C 
HETATM   23  C   UNL     1      30.388  22.721  31.697  1.00  0.00     0.283 C 
HETATM   24  C   UNL     1      26.797  27.188  31.571  1.00  0.00     0.283 C 
HETATM   25  C   UNL     1      29.267  19.986  33.233  1.00  0.00     0.153 C 
HETATM   26  C   UNL     1      24.481  25.811  34.274  1.00  0.00     0.153 C 
HETATM   27  C   UNL     1      26.228  24.088  31.097  1.00  0.00     0.153 C 
ENDROOT
BRANCH  16  28
HETATM   28  C   UNL     1      28.264  20.499  36.405  1.00  0.00     0.016 C 
HETATM   29  C   UNL     1      29.456  21.144  37.110  1.00  0.00     0.012 C 
HETATM   30  C   UNL     1      27.172  20.148  37.414  1.00  0.00     0.012 C 
ENDBRANCH  16  28
BRANCH  14  31
HETATM   31  C   UNL     1      24.130  24.072  36.580  1.00  0.00     0.010 C 
HETATM   32  C   UNL     1      23.994  22.631  37.066  1.00  0.00     0.012 C 
HETATM   33  C   UNL     1      23.825  25.050  37.712  1.00  0.00     0.012 C 
ENDBRANCH  14  31
BRANCH  13  34
HETATM   34  C   UNL     1      31.934  21.065  32.751  1.00  0.00     0.010 C 
HETATM   35  C   UNL     1      33.252  21.740  33.127  1.00  0.00     0.012 C 
HETATM   36  C   UNL     1      31.965  20.606  31.294  1.00  0.00     0.012 C 
ENDBRANCH  13  34
BRANCH  18  37
HETATM   37  C   UNL     1      28.354  27.984  34.163  1.00  0.00     0.016 C 
HETATM   38  C   UNL     1      29.515  27.350  33.397  1.00  0.00     0.012 C 
HETATM   39  C   UNL     1      28.166  29.440  33.740  1.00  0.00     0.012 C 
ENDBRANCH  18  37
BRANCH  17  40
HETATM   40  C   UNL     1      29.483  22.375  28.855  1.00  0.00     0.016 C 
HETATM   41  C   UNL     1      29.063  23.036  27.544  1.00  0.00     0.012 C 
HETATM   42  C   UNL     1      29.373  20.856  28.750  1.00  0.00     0.012 C 
ENDBRANCH  17  40
BRANCH  15  43
HETATM   43  C   UNL     1      25.707  26.526  29.408  1.00  0.00     0.010 C 
HETATM   44  C   UNL     1      24.514  26.999  30.236  1.00  0.00     0.012 C 
HETATM   45  C   UNL     1      25.992  27.500  28.269  1.00  0.00     0.012 C 
ENDBRANCH  15  43
TORSDOF 6
ENDMDL
MODEL 13
REMARK VINA RESULT:    -6.627      1.917      6.544
REMARK INTER + INTRA:          -7.932
REMARK INTER:                  -9.102
REMARK INTRA:                   1.170
REMARK UNBOUND:                 1.020
REMARK  6 active torsions:
REMARK  status: ('A' for Active; 'I' for Inactive)
REMARK    1  A    between atoms: C_13  and  C_16 
REMARK    2  A    between atoms: C_14  and  C_17 
REMARK    3  A    between atoms: C_15  and  C_18 
REMARK    4  A    between atoms: C_19  and  C_22 
REMARK    5  A    between atoms: C_20  and  C_23 
REMARK    6  A    between atoms: C_21  and  C_24 
ROOT
HETATM    1  O   UNL     1      25.828  25.057  30.666  1.00  0.00    -0.304 OA
HETATM    2  O   UNL     1      29.160  21.125  31.134  1.00  0.00    -0.304 OA
HETATM    3  O   UNL     1      26.628  22.213  34.976  1.00  0.00    -0.304 OA
HETATM    4  O   UNL     1      25.811  22.466  30.746  1.00  0.00    -0.270 OA
HETATM    5  O   UNL     1      24.228  23.204  33.117  1.00  0.00    -0.270 OA
HETATM    6  O   UNL     1      29.312  19.332  33.830  1.00  0.00    -0.270 OA
HETATM    7  O   UNL     1      27.601  25.269  32.125  1.00  0.00    -0.263 OA
HETATM    8  O   UNL     1      28.262  19.006  31.077  1.00  0.00    -0.263 OA
HETATM    9  O   UNL     1      26.902  21.774  37.213  1.00  0.00    -0.263 OA
HETATM   10  N   UNL     1      27.568  22.107  29.286  1.00  0.00    -0.340 N 
HETATM   11  N   UNL     1      25.547  24.870  34.049  1.00  0.00    -0.340 N 
HETATM   12  N   UNL     1      29.155  21.602  34.314  1.00  0.00    -0.340 N 
HETATM   13  C   UNL     1      27.470  20.647  29.497  1.00  0.00     0.190 C 
HETATM   14  C   UNL     1      25.333  25.736  32.871  1.00  0.00     0.190 C 
HETATM   15  C   UNL     1      28.752  21.358  35.715  1.00  0.00     0.190 C 
HETATM   16  C   UNL     1      26.662  24.426  29.670  1.00  0.00     0.227 C 
HETATM   17  C   UNL     1      30.140  20.828  32.144  1.00  0.00     0.227 C 
HETATM   18  C   UNL     1      25.275  22.655  35.196  1.00  0.00     0.227 C 
HETATM   19  C   UNL     1      26.643  22.922  29.953  1.00  0.00     0.250 C 
HETATM   20  C   UNL     1      24.963  23.591  34.031  1.00  0.00     0.250 C 
HETATM   21  C   UNL     1      29.491  20.507  33.498  1.00  0.00     0.250 C 
HETATM   22  C   UNL     1      26.407  25.346  31.870  1.00  0.00     0.283 C 
HETATM   23  C   UNL     1      28.323  20.160  30.666  1.00  0.00     0.283 C 
HETATM   24  C   UNL     1      27.337  21.813  36.067  1.00  0.00     0.283 C 
HETATM   25  C   UNL     1      28.645  22.604  28.425  1.00  0.00     0.153 C 
HETATM   26  C   UNL     1      26.382  25.389  35.137  1.00  0.00     0.153 C 
HETATM   27  C   UNL     1      29.355  22.992  33.899  1.00  0.00     0.153 C 
ENDROOT
BRANCH  16  28
HETATM   28  C   UNL     1      26.036  24.727  28.316  1.00  0.00     0.016 C 
HETATM   29  C   UNL     1      24.746  23.931  28.130  1.00  0.00     0.012 C 
HETATM   30  C   UNL     1      25.767  26.224  28.166  1.00  0.00     0.012 C 
ENDBRANCH  16  28
BRANCH  14  31
HETATM   31  C   UNL     1      25.374  27.237  33.128  1.00  0.00     0.010 C 
HETATM   32  C   UNL     1      25.644  27.997  31.832  1.00  0.00     0.012 C 
HETATM   33  C   UNL     1      24.068  27.709  33.764  1.00  0.00     0.012 C 
ENDBRANCH  14  31
BRANCH  13  34
HETATM   34  C   UNL     1      27.787  19.822  28.250  1.00  0.00     0.010 C 
HETATM   35  C   UNL     1      26.767  18.697  28.074  1.00  0.00     0.012 C 
HETATM   36  C   UNL     1      29.202  19.252  28.323  1.00  0.00     0.012 C 
ENDBRANCH  13  34
BRANCH  18  37
HETATM   37  C   UNL     1      24.357  21.435  35.201  1.00  0.00     0.016 C 
HETATM   38  C   UNL     1      25.090  20.208  34.659  1.00  0.00     0.012 C 
HETATM   39  C   UNL     1      23.825  21.164  36.606  1.00  0.00     0.012 C 
ENDBRANCH  18  37
BRANCH  17  40
HETATM   40  C   UNL     1      31.116  19.744  31.686  1.00  0.00     0.016 C 
HETATM   41  C   UNL     1      32.091  19.390  32.807  1.00  0.00     0.012 C 
HETATM   42  C   UNL     1      31.873  20.195  30.438  1.00  0.00     0.012 C 
ENDBRANCH  17  40
BRANCH  15  43
HETATM   43  C   UNL     1      29.765  21.951  36.695  1.00  0.00     0.010 C 
HETATM   44  C   UNL     1      31.077  21.173  36.642  1.00  0.00     0.012 C 
HETATM   45  C   UNL     1      30.001  23.427  36.391  1.00  0.00     0.012 C 
ENDBRANCH  15  43
TORSDOF 6
ENDMDL
MODEL 14
REMARK VINA RESULT:    -6.567      2.130      6.739
REMARK INTER + INTRA:          -7.851
REMARK INTER:                  -8.711
REMARK INTRA:                   0.860
REMARK UNBOUND:                 1.020
REMARK  6 active torsions:
REMARK  status: ('A' for Active; 'I' for Inactive)
REMARK    1  A    between atoms: C_13  and  C_16 
REMARK    2  A    between atoms: C_14  and  C_17 
REMARK    3  A    between atoms: C_15  and  C_18 
REMARK    4  A    between atoms: C_19  and  C_22 
REMARK    5  A    between atoms: C_20  and  C_23 
REMARK    6  A    between atoms: C_21  and  C_24 
ROOT
HETATM    1  O   UNL     1      26.453  24.844  34.513  1.00  0.00    -0.304 OA
HETATM    2  O   UNL     1      29.149  23.895  30.199  1.00  0.00    -0.304 OA
HETATM    3  O   UNL     1      29.165  20.497  33.487  1.00  0.00    -0.304 OA
HETATM    4  O   UNL     1      26.246  23.458  32.332  1.00  0.00    -0.270 OA
HETATM    5  O   UNL     1      26.246  21.387  34.425  1.00  0.00    -0.270 OA
HETATM    6  O   UNL     1      30.551  21.022  29.662  1.00  0.00    -0.270 OA
HETATM    7  O   UNL     1      28.742  24.603  34.661  1.00  0.00    -0.263 OA
HETATM    8  O   UNL     1      28.170  22.481  28.667  1.00  0.00    -0.263 OA
HETATM    9  O   UNL     1      30.549  18.710  33.890  1.00  0.00    -0.263 OA
HETATM   10  N   UNL     1      26.912  25.112  30.859  1.00  0.00    -0.340 N 
HETATM   11  N   UNL     1      28.003  22.091  35.767  1.00  0.00    -0.340 N 
HETATM   12  N   UNL     1      30.882  21.747  31.848  1.00  0.00    -0.340 N 
HETATM   13  C   UNL     1      26.810  24.169  29.724  1.00  0.00     0.190 C 
HETATM   14  C   UNL     1      27.273  23.326  36.122  1.00  0.00     0.190 C 
HETATM   15  C   UNL     1      31.268  20.402  32.322  1.00  0.00     0.190 C 
HETATM   16  C   UNL     1      26.567  25.622  33.302  1.00  0.00     0.227 C 
HETATM   17  C   UNL     1      30.484  23.398  30.005  1.00  0.00     0.227 C 
HETATM   18  C   UNL     1      28.185  19.987  34.410  1.00  0.00     0.227 C 
HETATM   19  C   UNL     1      26.564  24.636  32.131  1.00  0.00     0.250 C 
HETATM   20  C   UNL     1      27.386  21.207  34.863  1.00  0.00     0.250 C 
HETATM   21  C   UNL     1      30.631  21.944  30.479  1.00  0.00     0.250 C 
HETATM   22  C   UNL     1      27.608  24.331  35.033  1.00  0.00     0.283 C 
HETATM   23  C   UNL     1      28.107  23.402  29.474  1.00  0.00     0.283 C 
HETATM   24  C   UNL     1      30.307  19.773  33.329  1.00  0.00     0.283 C 
HETATM   25  C   UNL     1      27.405  26.464  30.583  1.00  0.00     0.153 C 
HETATM   26  C   UNL     1      29.332  21.889  36.352  1.00  0.00     0.153 C 
HETATM   27  C   UNL     1      30.956  22.850  32.808  1.00  0.00     0.153 C 
ENDROOT
BRANCH  16  28
HETATM   28  C   UNL     1      25.346  26.528  33.244  1.00  0.00     0.016 C 
HETATM   29  C   UNL     1      24.227  25.983  34.131  1.00  0.00     0.012 C 
HETATM   30  C   UNL     1      25.710  27.953  33.660  1.00  0.00     0.012 C 
ENDBRANCH  16  28
BRANCH  14  31
HETATM   31  C   UNL     1      27.582  23.913  37.493  1.00  0.00     0.010 C 
HETATM   32  C   UNL     1      27.247  25.403  37.527  1.00  0.00     0.012 C 
HETATM   33  C   UNL     1      26.814  23.167  38.582  1.00  0.00     0.012 C 
ENDBRANCH  14  31
BRANCH  13  34
HETATM   34  C   UNL     1      26.337  24.819  28.424  1.00  0.00     0.010 C 
HETATM   35  C   UNL     1      25.249  23.973  27.764  1.00  0.00     0.012 C 
HETATM   36  C   UNL     1      27.508  25.026  27.466  1.00  0.00     0.012 C 
ENDBRANCH  13  34
BRANCH  18  37
HETATM   37  C   UNL     1      27.304  18.977  33.679  1.00  0.00     0.016 C 
HETATM   38  C   UNL     1      27.603  18.987  32.180  1.00  0.00     0.012 C 
HETATM   39  C   UNL     1      27.499  17.575  34.254  1.00  0.00     0.012 C 
ENDBRANCH  18  37
BRANCH  17  40
HETATM   40  C   UNL     1      30.962  23.601  28.567  1.00  0.00     0.016 C 
HETATM   41  C   UNL     1      32.360  23.015  28.378  1.00  0.00     0.012 C 
HETATM   42  C   UNL     1      30.947  25.083  28.200  1.00  0.00     0.012 C 
ENDBRANCH  17  40
BRANCH  15  43
HETATM   43  C   UNL     1      32.697  20.394  32.868  1.00  0.00     0.010 C 
HETATM   44  C   UNL     1      33.641  21.103  31.901  1.00  0.00     0.012 C 
HETATM   45  C   UNL     1      32.745  21.047  34.246  1.00  0.00     0.012 C 
ENDBRANCH  15  43
TORSDOF 6
ENDMDL
MODEL 15
REMARK VINA RESULT:    -6.542      2.022      6.227
REMARK INTER + INTRA:          -7.817
REMARK INTER:                  -8.757
REMARK INTRA:                   0.940
REMARK UNBOUND:                 1.020
REMARK  6 active torsions:
REMARK  status: ('A' for Active; 'I' for Inactive)
REMARK    1  A    between atoms: C_13  and  C_16 
REMARK    2  A    between atoms: C_14  and  C_17 
REMARK    3  A    between atoms: C_15  and  C_18 
REMARK    4  A    between atoms: C_19  and  C_22 
REMARK    5  A    between atoms: C_20  and  C_23 
REMARK    6  A    between atoms: C_21  and  C_24 
ROOT
HETATM    1  O   UNL     1      28.606  22.955  29.524  1.00  0.00    -0.304 OA
HETATM    2  O   UNL     1      26.280  24.711  33.801  1.00  0.00    -0.304 OA
HETATM    3  O   UNL     1      29.253  21.077  34.357  1.00  0.00    -0.304 OA
HETATM    4  O   UNL     1      29.153  24.400  31.606  1.00  0.00    -0.270 OA
HETATM    5  O   UNL     1      30.993  22.119  31.891  1.00  0.00    -0.270 OA
HETATM    6  O   UNL     1      27.023  23.561  36.739  1.00  0.00    -0.270 OA
HETATM    7  O   UNL     1      27.149  21.566  30.650  1.00  0.00    -0.263 OA
HETATM    8  O   UNL     1      27.553  26.033  35.192  1.00  0.00    -0.263 OA
HETATM    9  O   UNL     1      29.518  19.504  36.009  1.00  0.00    -0.263 OA
HETATM   10  N   UNL     1      27.250  25.714  31.571  1.00  0.00    -0.340 N 
HETATM   11  N   UNL     1      29.580  20.332  31.454  1.00  0.00    -0.340 N 
HETATM   12  N   UNL     1      26.818  21.853  35.172  1.00  0.00    -0.340 N 
HETATM   13  C   UNL     1      27.675  26.397  32.811  1.00  0.00     0.190 C 
HETATM   14  C   UNL     1      29.381  20.793  30.065  1.00  0.00     0.190 C 
HETATM   15  C   UNL     1      27.529  20.877  36.023  1.00  0.00     0.190 C 
HETATM   16  C   UNL     1      27.734  24.092  29.704  1.00  0.00     0.227 C 
HETATM   17  C   UNL     1      25.598  24.020  34.861  1.00  0.00     0.227 C 
HETATM   18  C   UNL     1      30.508  20.703  33.756  1.00  0.00     0.227 C 
HETATM   19  C   UNL     1      28.108  24.740  31.040  1.00  0.00     0.250 C 
HETATM   20  C   UNL     1      30.391  21.118  32.292  1.00  0.00     0.250 C 
HETATM   21  C   UNL     1      26.552  23.137  35.680  1.00  0.00     0.250 C 
HETATM   22  C   UNL     1      28.230  21.783  30.118  1.00  0.00     0.283 C 
HETATM   23  C   UNL     1      27.184  25.692  34.074  1.00  0.00     0.283 C 
HETATM   24  C   UNL     1      28.866  20.391  35.468  1.00  0.00     0.283 C 
HETATM   25  C   UNL     1      25.947  26.073  31.004  1.00  0.00     0.153 C 
HETATM   26  C   UNL     1      28.889  19.108  31.874  1.00  0.00     0.153 C 
HETATM   27  C   UNL     1      26.268  21.371  33.904  1.00  0.00     0.153 C 
ENDROOT
BRANCH  16  28
HETATM   28  C   UNL     1      28.008  25.044  28.550  1.00  0.00     0.016 C 
HETATM   29  C   UNL     1      29.166  24.534  27.693  1.00  0.00     0.012 C 
HETATM   30  C   UNL     1      26.755  25.234  27.696  1.00  0.00     0.012 C 
ENDBRANCH  16  28
BRANCH  14  31
HETATM   31  C   UNL     1      29.094  19.708  29.035  1.00  0.00     0.010 C 
HETATM   32  C   UNL     1      28.364  20.293  27.827  1.00  0.00     0.012 C 
HETATM   33  C   UNL     1      30.388  19.025  28.599  1.00  0.00     0.012 C 
ENDBRANCH  14  31
BRANCH  13  34
HETATM   34  C   UNL     1      27.289  27.875  32.864  1.00  0.00     0.010 C 
HETATM   35  C   UNL     1      28.470  28.724  33.333  1.00  0.00     0.012 C 
HETATM   36  C   UNL     1      26.082  28.087  33.775  1.00  0.00     0.012 C 
ENDBRANCH  13  34
BRANCH  18  37
HETATM   37  C   UNL     1      31.632  21.452  34.467  1.00  0.00     0.016 C 
HETATM   38  C   UNL     1      31.072  22.327  35.588  1.00  0.00     0.012 C 
HETATM   39  C   UNL     1      32.669  20.475  35.017  1.00  0.00     0.012 C 
ENDBRANCH  18  37
BRANCH  17  40
HETATM   40  C   UNL     1      24.786  24.978  35.734  1.00  0.00     0.016 C 
HETATM   41  C   UNL     1      24.023  24.209  36.810  1.00  0.00     0.012 C 
HETATM   42  C   UNL     1      23.825  25.800  34.878  1.00  0.00     0.012 C 
ENDBRANCH  17  40
BRANCH  15  43
HETATM   43  C   UNL     1      26.633  19.689  36.375  1.00  0.00     0.010 C 
HETATM   44  C   UNL     1      26.963  18.490  35.490  1.00  0.00     0.012 C 
HETATM   45  C   UNL     1      26.781  19.327  37.850  1.00  0.00     0.012 C 
ENDBRANCH  15  43
TORSDOF 6
ENDMDL
MODEL 16
REMARK VINA RESULT:    -6.371      2.240      5.937
REMARK INTER + INTRA:          -7.586
REMARK INTER:                  -8.995
REMARK INTRA:                   1.410
REMARK UNBOUND:                 1.020
REMARK  6 active torsions:
REMARK  status: ('A' for Active; 'I' for Inactive)
REMARK    1  A    between atoms: C_13  and  C_16 
REMARK    2  A    between atoms: C_14  and  C_17 
REMARK    3  A    between atoms: C_15  and  C_18 
REMARK    4  A    between atoms: C_19  and  C_22 
REMARK    5  A    between atoms: C_20  and  C_23 
REMARK    6  A    between atoms: C_21  and  C_24 
ROOT
HETATM    1  O   UNL     1      31.418  20.792  33.811  1.00  0.00    -0.304 OA
HETATM    2  O   UNL     1      26.714  22.765  34.687  1.00  0.00    -0.304 OA
HETATM    3  O   UNL     1      27.848  21.938  30.172  1.00  0.00    -0.304 OA
HETATM    4  O   UNL     1      28.945  20.019  33.878  1.00  0.00    -0.270 OA
HETATM    5  O   UNL     1      29.713  19.511  31.081  1.00  0.00    -0.270 OA
HETATM    6  O   UNL     1      24.561  23.162  32.297  1.00  0.00    -0.270 OA
HETATM    7  O   UNL     1      30.926  22.896  33.005  1.00  0.00    -0.263 OA
HETATM    8  O   UNL     1      24.947  21.295  34.568  1.00  0.00    -0.263 OA
HETATM    9  O   UNL     1      27.020  22.719  28.177  1.00  0.00    -0.263 OA
HETATM   10  N   UNL     1      28.353  21.069  35.852  1.00  0.00    -0.340 N 
HETATM   11  N   UNL     1      30.806  21.485  30.540  1.00  0.00    -0.340 N 
HETATM   12  N   UNL     1      26.690  23.847  31.660  1.00  0.00    -0.340 N 
HETATM   13  C   UNL     1      26.958  20.603  35.704  1.00  0.00     0.190 C 
HETATM   14  C   UNL     1      31.865  21.202  31.531  1.00  0.00     0.190 C 
HETATM   15  C   UNL     1      26.355  23.824  30.221  1.00  0.00     0.190 C 
HETATM   16  C   UNL     1      30.745  21.062  35.060  1.00  0.00     0.227 C 
HETATM   17  C   UNL     1      26.017  23.862  34.073  1.00  0.00     0.227 C 
HETATM   18  C   UNL     1      28.597  20.911  29.495  1.00  0.00     0.227 C 
HETATM   19  C   UNL     1      29.275  20.675  34.873  1.00  0.00     0.250 C 
HETATM   20  C   UNL     1      29.747  20.565  30.438  1.00  0.00     0.250 C 
HETATM   21  C   UNL     1      25.682  23.580  32.602  1.00  0.00     0.250 C 
HETATM   22  C   UNL     1      31.357  21.761  32.849  1.00  0.00     0.283 C 
HETATM   23  C   UNL     1      26.090  21.576  34.909  1.00  0.00     0.283 C 
HETATM   24  C   UNL     1      27.113  22.784  29.399  1.00  0.00     0.283 C 
HETATM   25  C   UNL     1      28.667  21.940  36.988  1.00  0.00     0.153 C 
HETATM   26  C   UNL     1      30.912  22.721  29.758  1.00  0.00     0.153 C 
HETATM   27  C   UNL     1      28.022  24.325  32.037  1.00  0.00     0.153 C 
ENDROOT
BRANCH  16  28
HETATM   28  C   UNL     1      31.403  20.184  36.114  1.00  0.00     0.016 C 
HETATM   29  C   UNL     1      30.949  18.733  35.966  1.00  0.00     0.012 C 
HETATM   30  C   UNL     1      32.925  20.280  36.024  1.00  0.00     0.012 C 
ENDBRANCH  16  28
BRANCH  14  31
HETATM   31  C   UNL     1      33.243  21.769  31.215  1.00  0.00     0.010 C 
HETATM   32  C   UNL     1      34.093  21.850  32.482  1.00  0.00     0.012 C 
HETATM   33  C   UNL     1      33.942  20.922  30.154  1.00  0.00     0.012 C 
ENDBRANCH  14  31
BRANCH  13  34
HETATM   34  C   UNL     1      26.276  20.271  37.031  1.00  0.00     0.010 C 
HETATM   35  C   UNL     1      26.042  21.540  37.850  1.00  0.00     0.012 C 
HETATM   36  C   UNL     1      27.103  19.266  37.828  1.00  0.00     0.012 C 
ENDBRANCH  13  34
BRANCH  18  37
HETATM   37  C   UNL     1      27.681  19.713  29.260  1.00  0.00     0.016 C 
HETATM   38  C   UNL     1      26.303  19.959  29.875  1.00  0.00     0.012 C 
HETATM   39  C   UNL     1      27.555  19.413  27.768  1.00  0.00     0.012 C 
ENDBRANCH  18  37
BRANCH  17  40
HETATM   40  C   UNL     1      24.793  24.284  34.887  1.00  0.00     0.016 C 
HETATM   41  C   UNL     1      24.060  25.433  34.198  1.00  0.00     0.012 C 
HETATM   42  C   UNL     1      25.201  24.680  36.305  1.00  0.00     0.012 C 
ENDBRANCH  17  40
BRANCH  15  43
HETATM   43  C   UNL     1      26.501  25.212  29.594  1.00  0.00     0.010 C 
HETATM   44  C   UNL     1      27.777  25.289  28.760  1.00  0.00     0.012 C 
HETATM   45  C   UNL     1      25.279  25.544  28.742  1.00  0.00     0.012 C 
ENDBRANCH  15  43
TORSDOF 6
ENDMDL
MODEL 17
REMARK VINA RESULT:    -6.219      2.494      6.995
REMARK INTER + INTRA:          -7.380
REMARK INTER:                  -8.208
REMARK INTRA:                   0.828
REMARK UNBOUND:                 1.020
REMARK  6 active torsions:
REMARK  status: ('A' for Active; 'I' for Inactive)
REMARK    1  A    between atoms: C_13  and  C_16 
REMARK    2  A    between atoms: C_14  and  C_17 
REMARK    3  A    between atoms: C_15  and  C_18 
REMARK    4  A    between atoms: C_19  and  C_22 
REMARK    5  A    between atoms: C_20  and  C_23 
REMARK    6  A    between atoms: C_21  and  C_24 
ROOT
HETATM    1  O   UNL     1      26.777  23.877  32.847  1.00  0.00    -0.304 OA
HETATM    2  O   UNL     1      30.037  20.934  30.110  1.00  0.00    -0.304 OA
HETATM    3  O   UNL     1      30.426  20.698  34.817  1.00  0.00    -0.304 OA
HETATM    4  O   UNL     1      27.087  21.393  32.173  1.00  0.00    -0.270 OA
HETATM    5  O   UNL     1      27.305  21.306  35.108  1.00  0.00    -0.270 OA
HETATM    6  O   UNL     1      32.056  18.840  31.543  1.00  0.00    -0.270 OA
HETATM    7  O   UNL     1      29.038  24.313  32.967  1.00  0.00    -0.263 OA
HETATM    8  O   UNL     1      29.537  18.690  29.987  1.00  0.00    -0.263 OA
HETATM    9  O   UNL     1      32.104  20.000  36.220  1.00  0.00    -0.263 OA
HETATM   10  N   UNL     1      27.541  21.742  29.932  1.00  0.00    -0.340 N 
HETATM   11  N   UNL     1      28.731  23.091  35.515  1.00  0.00    -0.340 N 
HETATM   12  N   UNL     1      32.003  20.884  32.654  1.00  0.00    -0.340 N 
HETATM   13  C   UNL     1      27.754  20.294  29.729  1.00  0.00     0.190 C 
HETATM   14  C   UNL     1      27.727  24.045  35.000  1.00  0.00     0.190 C 
HETATM   15  C   UNL     1      32.611  20.325  33.880  1.00  0.00     0.190 C 
HETATM   16  C   UNL     1      26.848  23.652  31.422  1.00  0.00     0.227 C 
HETATM   17  C   UNL     1      31.459  20.748  30.212  1.00  0.00     0.227 C 
HETATM   18  C   UNL     1      29.485  20.729  35.906  1.00  0.00     0.227 C 
HETATM   19  C   UNL     1      27.171  22.170  31.215  1.00  0.00     0.250 C 
HETATM   20  C   UNL     1      28.408  21.723  35.478  1.00  0.00     0.250 C 
HETATM   21  C   UNL     1      31.857  20.059  31.525  1.00  0.00     0.250 C 
HETATM   22  C   UNL     1      27.954  24.113  33.499  1.00  0.00     0.283 C 
HETATM   23  C   UNL     1      29.201  19.869  29.972  1.00  0.00     0.283 C 
HETATM   24  C   UNL     1      31.705  20.332  35.109  1.00  0.00     0.283 C 
HETATM   25  C   UNL     1      27.766  22.634  28.791  1.00  0.00     0.153 C 
HETATM   26  C   UNL     1      30.006  23.632  35.995  1.00  0.00     0.153 C 
HETATM   27  C   UNL     1      31.746  22.325  32.622  1.00  0.00     0.153 C 
ENDROOT
BRANCH  16  28
HETATM   28  C   UNL     1      25.478  23.988  30.854  1.00  0.00     0.016 C 
HETATM   29  C   UNL     1      24.457  24.167  31.977  1.00  0.00     0.012 C 
HETATM   30  C   UNL     1      25.545  25.246  29.988  1.00  0.00     0.012 C 
ENDBRANCH  16  28
BRANCH  14  31
HETATM   31  C   UNL     1      27.764  25.444  35.602  1.00  0.00     0.010 C 
HETATM   32  C   UNL     1      27.016  26.432  34.710  1.00  0.00     0.012 C 
HETATM   33  C   UNL     1      27.173  25.439  37.010  1.00  0.00     0.012 C 
ENDBRANCH  14  31
BRANCH  13  34
HETATM   34  C   UNL     1      27.291  19.788  28.364  1.00  0.00     0.010 C 
HETATM   35  C   UNL     1      26.395  18.559  28.519  1.00  0.00     0.012 C 
HETATM   36  C   UNL     1      28.488  19.467  27.471  1.00  0.00     0.012 C 
ENDBRANCH  13  34
BRANCH  18  37
HETATM   37  C   UNL     1      28.914  19.327  36.099  1.00  0.00     0.016 C 
HETATM   38  C   UNL     1      29.306  18.421  34.931  1.00  0.00     0.012 C 
HETATM   39  C   UNL     1      29.386  18.728  37.422  1.00  0.00     0.012 C 
ENDBRANCH  18  37
BRANCH  17  40
HETATM   40  C   UNL     1      32.030  20.044  28.980  1.00  0.00     0.016 C 
HETATM   41  C   UNL     1      33.534  19.830  29.132  1.00  0.00     0.012 C 
HETATM   42  C   UNL     1      31.726  20.845  27.715  1.00  0.00     0.012 C 
ENDBRANCH  17  40
BRANCH  15  43
HETATM   43  C   UNL     1      33.946  21.000  34.195  1.00  0.00     0.010 C 
HETATM   44  C   UNL     1      34.793  20.109  35.100  1.00  0.00     0.012 C 
HETATM   45  C   UNL     1      34.696  21.329  32.908  1.00  0.00     0.012 C 
ENDBRANCH  15  43
TORSDOF 6
ENDMDL
MODEL 18
REMARK VINA RESULT:    -6.190      2.217      5.944
REMARK INTER + INTRA:          -7.342
REMARK INTER:                  -8.737
REMARK INTRA:                   1.395
REMARK UNBOUND:                 1.020
REMARK  6 active torsions:
REMARK  status: ('A' for Active; 'I' for Inactive)
REMARK    1  A    between atoms: C_13  and  C_16 
REMARK    2  A    between atoms: C_14  and  C_17 
REMARK    3  A    between atoms: C_15  and  C_18 
REMARK    4  A    between atoms: C_19  and  C_22 
REMARK    5  A    between atoms: C_20  and  C_23 
REMARK    6  A    between atoms: C_21  and  C_24 
ROOT
HETATM    1  O   UNL     1      26.713  21.893  29.659  1.00  0.00    -0.304 OA
HETATM    2  O   UNL     1      26.938  23.695  34.505  1.00  0.00    -0.304 OA
HETATM    3  O   UNL     1      30.120  20.401  33.329  1.00  0.00    -0.304 OA
HETATM    4  O   UNL     1      28.145  23.514  31.087  1.00  0.00    -0.270 OA
HETATM    5  O   UNL     1      30.086  21.440  30.311  1.00  0.00    -0.270 OA
HETATM    6  O   UNL     1      29.298  22.813  36.544  1.00  0.00    -0.270 OA
HETATM    7  O   UNL     1      26.285  20.448  31.404  1.00  0.00    -0.263 OA
HETATM    8  O   UNL     1      28.604  25.219  34.957  1.00  0.00    -0.263 OA
HETATM    9  O   UNL     1      31.426  18.970  34.562  1.00  0.00    -0.263 OA
HETATM   10  N   UNL     1      26.400  24.638  32.109  1.00  0.00    -0.340 N 
HETATM   11  N   UNL     1      28.880  19.503  30.732  1.00  0.00    -0.340 N 
HETATM   12  N   UNL     1      28.463  20.996  35.354  1.00  0.00    -0.340 N 
HETATM   13  C   UNL     1      27.355  25.437  32.905  1.00  0.00     0.190 C 
HETATM   14  C   UNL     1      27.899  19.853  29.684  1.00  0.00     0.190 C 
HETATM   15  C   UNL     1      29.631  20.148  35.672  1.00  0.00     0.190 C 
HETATM   16  C   UNL     1      25.961  22.952  30.289  1.00  0.00     0.227 C 
HETATM   17  C   UNL     1      27.035  23.013  35.766  1.00  0.00     0.227 C 
HETATM   18  C   UNL     1      30.871  20.109  32.136  1.00  0.00     0.227 C 
HETATM   19  C   UNL     1      26.930  23.717  31.194  1.00  0.00     0.250 C 
HETATM   20  C   UNL     1      29.922  20.415  30.979  1.00  0.00     0.250 C 
HETATM   21  C   UNL     1      28.375  22.279  35.922  1.00  0.00     0.250 C 
HETATM   22  C   UNL     1      26.863  20.732  30.363  1.00  0.00     0.283 C 
HETATM   23  C   UNL     1      27.723  24.772  34.230  1.00  0.00     0.283 C 
HETATM   24  C   UNL     1      30.488  19.755  34.470  1.00  0.00     0.283 C 
HETATM   25  C   UNL     1      24.969  24.835  32.356  1.00  0.00     0.153 C 
HETATM   26  C   UNL     1      28.679  18.250  31.466  1.00  0.00     0.153 C 
HETATM   27  C   UNL     1      27.366  20.382  34.603  1.00  0.00     0.153 C 
ENDROOT
BRANCH  16  28
HETATM   28  C   UNL     1      25.444  23.849  29.174  1.00  0.00     0.016 C 
HETATM   29  C   UNL     1      26.535  24.099  28.134  1.00  0.00     0.012 C 
HETATM   30  C   UNL     1      24.209  23.235  28.514  1.00  0.00     0.012 C 
ENDBRANCH  16  28
BRANCH  14  31
HETATM   31  C   UNL     1      27.220  18.681  28.986  1.00  0.00     0.010 C 
HETATM   32  C   UNL     1      25.719  18.685  29.268  1.00  0.00     0.012 C 
HETATM   33  C   UNL     1      27.483  18.725  27.483  1.00  0.00     0.012 C 
ENDBRANCH  14  31
BRANCH  13  34
HETATM   34  C   UNL     1      26.896  26.872  33.159  1.00  0.00     0.010 C 
HETATM   35  C   UNL     1      27.575  27.836  32.187  1.00  0.00     0.012 C 
HETATM   36  C   UNL     1      27.178  27.283  34.603  1.00  0.00     0.012 C 
ENDBRANCH  13  34
BRANCH  18  37
HETATM   37  C   UNL     1      32.106  21.005  32.104  1.00  0.00     0.016 C 
HETATM   38  C   UNL     1      32.014  22.087  33.180  1.00  0.00     0.012 C 
HETATM   39  C   UNL     1      33.378  20.179  32.283  1.00  0.00     0.012 C 
ENDBRANCH  18  37
BRANCH  17  40
HETATM   40  C   UNL     1      26.733  23.944  36.940  1.00  0.00     0.016 C 
HETATM   41  C   UNL     1      26.770  23.176  38.260  1.00  0.00     0.012 C 
HETATM   42  C   UNL     1      25.377  24.623  36.753  1.00  0.00     0.012 C 
ENDBRANCH  17  40
BRANCH  15  43
HETATM   43  C   UNL     1      29.218  18.906  36.463  1.00  0.00     0.010 C 
HETATM   44  C   UNL     1      30.419  18.321  37.203  1.00  0.00     0.012 C 
HETATM   45  C   UNL     1      28.096  19.245  37.440  1.00  0.00     0.012 C 
ENDBRANCH  15  43
TORSDOF 6
ENDMDL
MODEL 19
REMARK VINA RESULT:    -6.149      2.288      6.381
REMARK INTER + INTRA:          -7.287
REMARK INTER:                  -8.306
REMARK INTRA:                   1.020
REMARK UNBOUND:                 1.020
REMARK  6 active torsions:
REMARK  status: ('A' for Active; 'I' for Inactive)
REMARK    1  A    between atoms: C_13  and  C_16 
REMARK    2  A    between atoms: C_14  and  C_17 
REMARK    3  A    between atoms: C_15  and  C_18 
REMARK    4  A    between atoms: C_19  and  C_22 
REMARK    5  A    between atoms: C_20  and  C_23 
REMARK    6  A    between atoms: C_21  and  C_24 
ROOT
HETATM    1  O   UNL     1      30.824  20.571  31.184  1.00  0.00    -0.304 OA
HETATM    2  O   UNL     1      27.975  22.534  35.033  1.00  0.00    -0.304 OA
HETATM    3  O   UNL     1      27.233  24.339  30.727  1.00  0.00    -0.304 OA
HETATM    4  O   UNL     1      28.408  20.425  32.112  1.00  0.00    -0.270 OA
HETATM    5  O   UNL     1      28.006  21.534  29.414  1.00  0.00    -0.270 OA
HETATM    6  O   UNL     1      25.621  24.693  34.482  1.00  0.00    -0.270 OA
HETATM    7  O   UNL     1      31.100  22.789  31.754  1.00  0.00    -0.263 OA
HETATM    8  O   UNL     1      25.792  21.813  35.165  1.00  0.00    -0.263 OA
HETATM    9  O   UNL     1      26.288  26.297  29.987  1.00  0.00    -0.263 OA
HETATM   10  N   UNL     1      28.956  20.192  34.347  1.00  0.00    -0.340 N 
HETATM   11  N   UNL     1      29.645  23.174  29.343  1.00  0.00    -0.340 N 
HETATM   12  N   UNL     1      27.539  25.178  33.257  1.00  0.00    -0.340 N 
HETATM   13  C   UNL     1      27.525  20.196  34.718  1.00  0.00     0.190 C 
HETATM   14  C   UNL     1      30.709  22.154  29.438  1.00  0.00     0.190 C 
HETATM   15  C   UNL     1      26.820  26.081  32.335  1.00  0.00     0.190 C 
HETATM   16  C   UNL     1      30.743  20.176  32.571  1.00  0.00     0.227 C 
HETATM   17  C   UNL     1      27.689  23.894  35.403  1.00  0.00     0.227 C 
HETATM   18  C   UNL     1      27.212  23.790  29.396  1.00  0.00     0.227 C 
HETATM   19  C   UNL     1      29.272  20.280  32.984  1.00  0.00     0.250 C 
HETATM   20  C   UNL     1      28.312  22.730  29.382  1.00  0.00     0.250 C 
HETATM   21  C   UNL     1      26.845  24.613  34.341  1.00  0.00     0.250 C 
HETATM   22  C   UNL     1      30.917  21.909  30.923  1.00  0.00     0.283 C 
HETATM   23  C   UNL     1      26.986  21.601  34.981  1.00  0.00     0.283 C 
HETATM   24  C   UNL     1      26.758  25.606  30.885  1.00  0.00     0.283 C 
HETATM   25  C   UNL     1      29.943  20.134  35.428  1.00  0.00     0.153 C 
HETATM   26  C   UNL     1      30.052  24.580  29.252  1.00  0.00     0.153 C 
HETATM   27  C   UNL     1      28.989  25.059  33.094  1.00  0.00     0.153 C 
ENDROOT
BRANCH  16  28
HETATM   28  C   UNL     1      31.223  18.734  32.647  1.00  0.00     0.016 C 
HETATM   29  C   UNL     1      31.191  18.082  31.266  1.00  0.00     0.012 C 
HETATM   30  C   UNL     1      32.630  18.663  33.239  1.00  0.00     0.012 C 
ENDBRANCH  16  28
BRANCH  14  31
HETATM   31  C   UNL     1      32.034  22.505  28.772  1.00  0.00     0.010 C 
HETATM   32  C   UNL     1      33.152  21.605  29.292  1.00  0.00     0.012 C 
HETATM   33  C   UNL     1      31.918  22.394  27.254  1.00  0.00     0.012 C 
ENDBRANCH  14  31
BRANCH  13  34
HETATM   34  C   UNL     1      27.192  19.287  35.901  1.00  0.00     0.010 C 
HETATM   35  C   UNL     1      26.400  18.066  35.437  1.00  0.00     0.012 C 
HETATM   36  C   UNL     1      26.416  20.053  36.970  1.00  0.00     0.012 C 
ENDBRANCH  13  34
BRANCH  18  37
HETATM   37  C   UNL     1      25.837  23.179  29.141  1.00  0.00     0.016 C 
HETATM   38  C   UNL     1      25.022  23.130  30.433  1.00  0.00     0.012 C 
HETATM   39  C   UNL     1      25.088  23.963  28.065  1.00  0.00     0.012 C 
ENDBRANCH  18  37
BRANCH  17  40
HETATM   40  C   UNL     1      27.081  23.986  36.803  1.00  0.00     0.016 C 
HETATM   41  C   UNL     1      27.106  25.427  37.306  1.00  0.00     0.012 C 
HETATM   42  C   UNL     1      27.821  23.065  37.772  1.00  0.00     0.012 C 
ENDBRANCH  17  40
BRANCH  15  43
HETATM   43  C   UNL     1      27.372  27.505  32.408  1.00  0.00     0.010 C 
HETATM   44  C   UNL     1      26.451  28.473  31.670  1.00  0.00     0.012 C 
HETATM   45  C   UNL     1      27.552  27.934  33.861  1.00  0.00     0.012 C 
ENDBRANCH  15  43
TORSDOF 6
ENDMDL
